<event>
 7    1  0.3345055E-009  0.9159318E+02  0.7818608E-02  0.1299039E+00
         -1   -1    0    0    0  501 -0.00000000000E+00  0.00000000000E+00  0.91344317184E+01  0.91344331088E+01  0.50400000000E-02 0. -1.
          1   -1    0    0  501    0  0.00000000000E+00 -0.00000000000E+00 -0.22960677769E+03  0.22960677775E+03  0.50400000000E-02 0.  1.
         23    2    1    2    0    0 -0.35527136788E-14  0.00000000000E+00 -0.22047234597E+03  0.23874121085E+03  0.91593178905E+02 0.  0.
    9000005    2    3    3    0    0  0.31602413924E+02  0.20095931890E+02 -0.17811938938E+03  0.18220509871E+03  0.83439845440E+01 0.  0.
         22    1    3    3    0    0 -0.31602413924E+02 -0.20095931890E+02 -0.42352956588E+02  0.56536112141E+02  0.00000000000E+00 0. -1.
         22    1    4    4    0    0  0.28857705994E+01  0.34302979816E+01 -0.34943017051E+02  0.35229377752E+02  0.00000000000E+00 0. -1.
         22    1    4    4    0    0  0.28716643324E+02  0.16665633909E+02 -0.14317637233E+03  0.14697572096E+03  0.00000000000E+00 0. -1.
<mgrwt>
<rscale>  0 0.91593179E+02</rscale>
<asrwt>0</asrwt>
<pdfrwt beam="2">  1        1 0.35324115E-01 0.91593179E+02</pdfrwt>
<pdfrwt beam="1">  1       -1 0.14052975E-02 0.91593179E+02</pdfrwt>
<totfact> 0.12015923E+05</totfact>
</mgrwt>
</event>
<event>
 7    1  0.3345055E-009  0.9160365E+02  0.7818608E-02  0.1299014E+00
          1   -1    0    0  501    0  0.00000000000E+00  0.00000000000E+00  0.14864137317E+02  0.14864138172E+02  0.50400000000E-02 0. -1.
         -1   -1    0    0    0  501 -0.00000000000E+00 -0.00000000000E+00 -0.14113211893E+03  0.14113211902E+03  0.50400000000E-02 0.  1.
         23    2    1    2    0    0  0.00000000000E+00 -0.35527136788E-14 -0.12626798161E+03  0.15599625719E+03  0.91603652097E+02 0.  0.
    9000005    2    3    3    0    0 -0.18131284213E+02  0.30186953617E+02 -0.14330722127E+02  0.38650845279E+02  0.69658171233E+01 0.  0.
         22    1    3    3    0    0  0.18131284213E+02 -0.30186953617E+02 -0.11193725949E+03  0.11734541192E+03  0.00000000000E+00 0.  1.
         22    1    4    4    0    0 -0.81647932910E+00  0.14342793797E+01  0.80028509891E+00  0.18341897594E+01  0.00000000000E+00 0. -1.
         22    1    4    4    0    0 -0.17314804884E+02  0.28752674237E+02 -0.15131007226E+02  0.36816655519E+02  0.00000000000E+00 0. -1.
<mgrwt>
<rscale>  0 0.91603652E+02</rscale>
<asrwt>0</asrwt>
<pdfrwt beam="1">  1        1 0.22867905E-02 0.91603652E+02</pdfrwt>
<pdfrwt beam="2">  1       -1 0.21712633E-01 0.91603652E+02</pdfrwt>
<totfact> 0.74928803E+04</totfact>
</mgrwt>
</event>
<event>
 7    1  0.3345055E-009  0.9159008E+02  0.7818608E-02  0.1299046E+00
         -1   -1    0    0    0  501 -0.00000000000E+00  0.00000000000E+00  0.35523167616E+03  0.35523167620E+03  0.50400000000E-02 0.  1.
          1   -1    0    0  501    0  0.00000000000E+00 -0.00000000000E+00 -0.59037114254E+01  0.59037135767E+01  0.50400000000E-02 0. -1.
         23    2    1    2    0    0  0.00000000000E+00  0.00000000000E+00  0.34932796473E+03  0.36113538977E+03  0.91590080251E+02 0.  0.
    9000005    2    3    3    0    0  0.80357804767E+01  0.16235616531E+02  0.33995769077E+03  0.34074002152E+03  0.14295514621E+02 0.  0.
         22    1    3    3    0    0 -0.80357804767E+01 -0.16235616531E+02  0.93702739615E+01  0.20395368252E+02  0.00000000000E+00 0. -1.
         22    1    4    4    0    0  0.48330182678E+01 -0.73162408172E+00  0.42210583402E+02  0.42492666314E+02  0.00000000000E+00 0. -1.
         22    1    4    4    0    0  0.32027622089E+01  0.16967240612E+02  0.29774710737E+03  0.29824735521E+03  0.00000000000E+00 0. -1.
<mgrwt>
<rscale>  0 0.91590080E+02</rscale>
<asrwt>0</asrwt>
<pdfrwt beam="2">  1        1 0.90826334E-03 0.91590080E+02</pdfrwt>
<pdfrwt beam="1">  1       -1 0.54651035E-01 0.91590080E+02</pdfrwt>
<totfact> 0.55743958E+04</totfact>
</mgrwt>
</event>
<event>
 7    1  0.3345055E-009  0.9222772E+02  0.7818608E-02  0.1297545E+00
          1   -1    0    0  501    0  0.00000000000E+00  0.00000000000E+00  0.13190997841E+03  0.13190997851E+03  0.50400000000E-02 0. -1.
         -1   -1    0    0    0  501 -0.00000000000E+00 -0.00000000000E+00 -0.16120750883E+02  0.16120751671E+02  0.50400000000E-02 0.  1.
         23    2    1    2    0    0  0.00000000000E+00 -0.35527136788E-14  0.11578922753E+03  0.14803073018E+03  0.92227717448E+02 0.  0.
    9000005    2    3    3    0    0 -0.28597963172E+02  0.22674523245E+02  0.14128904162E+02  0.40017773322E+02  0.83557612957E+01 0.  0.
         22    1    3    3    0    0  0.28597963172E+02 -0.22674523245E+02  0.10166032337E+03  0.10801295686E+03  0.00000000000E+00 0. -1.
         22    1    4    4    0    0 -0.15935280470E+02  0.15278663608E+02  0.12211074770E+02  0.25228576502E+02  0.00000000000E+00 0.  1.
         22    1    4    4    0    0 -0.12662682702E+02  0.73958596368E+01  0.19178293924E+01  0.14789196819E+02  0.00000000000E+00 0.  1.
<mgrwt>
<rscale>  0 0.92227717E+02</rscale>
<asrwt>0</asrwt>
<pdfrwt beam="1">  1        1 0.20293842E-01 0.92227717E+02</pdfrwt>
<pdfrwt beam="2">  1       -1 0.24801157E-02 0.92227717E+02</pdfrwt>
<totfact> 0.10620148E+05</totfact>
</mgrwt>
</event>
<event>
 7    1  0.3345055E-009  0.9024997E+02  0.7818608E-02  0.1302247E+00
          1   -1    0    0  501    0  0.00000000000E+00  0.00000000000E+00  0.77920373185E+03  0.77920373186E+03  0.50400000000E-02 0. -1.
         -1   -1    0    0    0  501 -0.00000000000E+00 -0.00000000000E+00 -0.26132603933E+01  0.26132652534E+01  0.50400000000E-02 0.  1.
         23    2    1    2    0    0 -0.35527136788E-14  0.00000000000E+00  0.77659047145E+03  0.78181699712E+03  0.90249967468E+02 0.  0.
    9000005    2    3    3    0    0 -0.29978113023E+02 -0.22517435980E+02  0.59581111459E+03  0.59719062292E+03  0.15493019164E+02 0.  0.
         22    1    3    3    0    0  0.29978113023E+02  0.22517435980E+02  0.18077935686E+03  0.18462637420E+03  0.00000000000E+00 0.  1.
         22    1    4    4    0    0 -0.18839544871E+02 -0.92241758641E+01  0.42074202474E+03  0.42126460243E+03  0.00000000000E+00 0. -1.
         22    1    4    4    0    0 -0.11138568151E+02 -0.13293260116E+02  0.17506908985E+03  0.17592602049E+03  0.00000000000E+00 0. -1.
<mgrwt>
<rscale>  0 0.90249967E+02</rscale>
<asrwt>0</asrwt>
<pdfrwt beam="1">  1        1 0.11987759E+00 0.90249967E+02</pdfrwt>
<pdfrwt beam="2">  1       -1 0.40204012E-03 0.90249967E+02</pdfrwt>
<totfact> 0.14546738E+05</totfact>
</mgrwt>
</event>
<event>
 7    1  0.3345055E-009  0.1095619E+03  0.7818608E-02  0.1261383E+00
         -1   -1    0    0    0  501 -0.00000000000E+00  0.00000000000E+00  0.42693893429E+01  0.42693923178E+01  0.50400000000E-02 0.  1.
          1   -1    0    0  501    0  0.00000000000E+00 -0.00000000000E+00 -0.70289970772E+03  0.70289970774E+03  0.50400000000E-02 0. -1.
         23    2    1    2    0    0 -0.17763568394E-14  0.00000000000E+00 -0.69863031838E+03  0.70716910006E+03  0.10956192002E+03 0.  0.
    9000005    2    3    3    0    0  0.11318084890E+02 -0.51880324342E+02 -0.42411182384E+03  0.42756210633E+03  0.10901768034E+02 0.  0.
         22    1    3    3    0    0 -0.11318084890E+02  0.51880324342E+02 -0.27451849454E+03  0.27960699373E+03  0.00000000000E+00 0.  1.
         22    1    4    4    0    0  0.65125118362E+01 -0.14369337550E+02 -0.97490891243E+02  0.98759123869E+02  0.00000000000E+00 0. -1.
         22    1    4    4    0    0  0.48055730536E+01 -0.37510986791E+02 -0.32662093260E+03  0.32880298246E+03  0.00000000000E+00 0. -1.
<mgrwt>
<rscale>  0 0.10956192E+03</rscale>
<asrwt>0</asrwt>
<pdfrwt beam="2">  1        1 0.10813833E+00 0.10956192E+03</pdfrwt>
<pdfrwt beam="1">  1       -1 0.65682992E-03 0.10956192E+03</pdfrwt>
<totfact> 0.87085858E+04</totfact>
</mgrwt>
</event>
<event>
 7    1  0.3345055E-009  0.9054782E+02  0.7818608E-02  0.1301530E+00
         -1   -1    0    0    0  501 -0.00000000000E+00  0.00000000000E+00  0.18044161979E+02  0.18044162683E+02  0.50400000000E-02 0.  1.
          1   -1    0    0  501    0  0.00000000000E+00 -0.00000000000E+00 -0.11359500937E+03  0.11359500949E+03  0.50400000000E-02 0. -1.
         23    2    1    2    0    0  0.00000000000E+00 -0.17763568394E-14 -0.95550847395E+02  0.13163917217E+03  0.90547817265E+02 0.  0.
    9000005    2    3    3    0    0 -0.39025496015E+02  0.88857785903E+01 -0.77661641995E+02  0.87798893085E+02  0.86815084634E+01 0.  0.
         22    1    3    3    0    0  0.39025496015E+02 -0.88857785903E+01 -0.17889205399E+02  0.43840279084E+02  0.00000000000E+00 0.  1.
         22    1    4    4    0    0 -0.21556515722E+02  0.93046557454E+01 -0.44964597599E+02  0.50725486945E+02  0.00000000000E+00 0.  1.
         22    1    4    4    0    0 -0.17468980292E+02 -0.41887715508E+00 -0.32697044397E+02  0.37073406140E+02  0.00000000000E+00 0.  1.
<mgrwt>
<rscale>  0 0.90547817E+02</rscale>
<asrwt>0</asrwt>
<pdfrwt beam="2">  1        1 0.17476155E-01 0.90547817E+02</pdfrwt>
<pdfrwt beam="1">  1       -1 0.27760251E-02 0.90547817E+02</pdfrwt>
<totfact> 0.10874761E+05</totfact>
</mgrwt>
</event>
<event>
 7    1  0.3345055E-009  0.9096813E+02  0.7818608E-02  0.1300524E+00
          1   -1    0    0  501    0  0.00000000000E+00  0.00000000000E+00  0.24103800841E+03  0.24103800846E+03  0.50400000000E-02 0. -1.
         -1   -1    0    0    0  501 -0.00000000000E+00 -0.00000000000E+00 -0.85828791147E+01  0.85828805945E+01  0.50400000000E-02 0.  1.
         23    2    1    2    0    0  0.00000000000E+00  0.00000000000E+00  0.23245512929E+03  0.24962088905E+03  0.90968132430E+02 0.  0.
    9000005    2    3    3    0    0  0.38942780191E+02  0.14937950931E+02  0.16565625864E+03  0.17086956127E+03  0.38377643784E+01 0.  0.
         22    1    3    3    0    0 -0.38942780191E+02 -0.14937950931E+02  0.66798870648E+02  0.78751327778E+02  0.00000000000E+00 0.  1.
         22    1    4    4    0    0  0.13404276946E+02  0.68571738271E+01  0.55948066400E+02  0.57938602047E+02  0.00000000000E+00 0.  1.
         22    1    4    4    0    0  0.25538503245E+02  0.80807771039E+01  0.10970819224E+03  0.11293095923E+03  0.00000000000E+00 0.  1.
<mgrwt>
<rscale>  0 0.90968132E+02</rscale>
<asrwt>0</asrwt>
<pdfrwt beam="1">  1        1 0.37082765E-01 0.90968132E+02</pdfrwt>
<pdfrwt beam="2">  1       -1 0.13204432E-02 0.90968132E+02</pdfrwt>
<totfact> 0.12354780E+05</totfact>
</mgrwt>
</event>
<event>
 7    1  0.3345055E-009  0.9093696E+02  0.7818608E-02  0.1300598E+00
         -1   -1    0    0    0  501 -0.00000000000E+00  0.00000000000E+00  0.45649532369E+01  0.45649560192E+01  0.50400000000E-02 0.  1.
          1   -1    0    0  501    0  0.00000000000E+00 -0.00000000000E+00 -0.45288131461E+03  0.45288131464E+03  0.50400000000E-02 0. -1.
         23    2    1    2    0    0  0.00000000000E+00  0.35527136788E-14 -0.44831636138E+03  0.45744627066E+03  0.90936959832E+02 0.  0.
    9000005    2    3    3    0    0  0.19540777609E+02  0.24384843106E+02 -0.38806030417E+03  0.38956950738E+03  0.14040614239E+02 0.  0.
         22    1    3    3    0    0 -0.19540777609E+02 -0.24384843106E+02 -0.60256057210E+02  0.67876763280E+02  0.00000000000E+00 0.  1.
         22    1    4    4    0    0 -0.90214861978E+00  0.45674130818E+01 -0.99261510510E+02  0.99370632498E+02  0.00000000000E+00 0. -1.
         22    1    4    4    0    0  0.20442926229E+02  0.19817430024E+02 -0.28879879366E+03  0.29019887488E+03  0.00000000000E+00 0. -1.
<mgrwt>
<rscale>  0 0.90936960E+02</rscale>
<asrwt>0</asrwt>
<pdfrwt beam="2">  1        1 0.69674013E-01 0.90936960E+02</pdfrwt>
<pdfrwt beam="1">  1       -1 0.70230107E-03 0.90936960E+02</pdfrwt>
<totfact> 0.13844598E+05</totfact>
</mgrwt>
</event>
<event>
 7    1  0.3345055E-009  0.9117529E+02  0.7818608E-02  0.1300030E+00
          1   -1    0    0  501    0  0.00000000000E+00  0.00000000000E+00  0.17885456522E+03  0.17885456529E+03  0.50400000000E-02 0. -1.
         -1   -1    0    0    0  501 -0.00000000000E+00 -0.00000000000E+00 -0.11619681902E+02  0.11619682995E+02  0.50400000000E-02 0.  1.
         23    2    1    2    0    0  0.71054273576E-14  0.00000000000E+00  0.16723488332E+03  0.19047424829E+03  0.91175287562E+02 0.  0.
    9000005    2    3    3    0    0 -0.34040590378E+02 -0.21989335700E+02  0.12692842959E+03  0.13331742113E+03  0.45183915966E+01 0.  0.
         22    1    3    3    0    0  0.34040590378E+02  0.21989335700E+02  0.40306453731E+02  0.57156827153E+02  0.00000000000E+00 0.  1.
         22    1    4    4    0    0 -0.33738690352E+02 -0.21764499206E+02  0.12661280627E+03  0.13282618478E+03  0.00000000000E+00 0. -1.
         22    1    4    4    0    0 -0.30190002544E+00 -0.22483649337E+00  0.31562331570E+00  0.49123634997E+00  0.00000000000E+00 0. -1.
<mgrwt>
<rscale>  0 0.91175288E+02</rscale>
<asrwt>0</asrwt>
<pdfrwt beam="1">  1        1 0.27516087E-01 0.91175288E+02</pdfrwt>
<pdfrwt beam="2">  1       -1 0.17876434E-02 0.91175288E+02</pdfrwt>
<totfact> 0.11588994E+05</totfact>
</mgrwt>
</event>
<event>
 6    1  0.3345055E-009  0.1295806E+03  0.7818608E-02  0.1228079E+00
          1   -1    0    0  501    0  0.00000000000E+00  0.00000000000E+00  0.38202351278E+02  0.38202351611E+02  0.50400000000E-02 0. -1.
         -1   -1    0    0    0  501 -0.00000000000E+00 -0.00000000000E+00 -0.10988285001E+03  0.10988285012E+03  0.50400000000E-02 0.  1.
    9000005    2    1    2    0    0 -0.35675669238E+02 -0.50633824057E+02 -0.18615844398E+02  0.66522985890E+02  0.15563433905E+02 0.  0.
         22    1    1    2    0    0  0.35675669238E+02  0.50633824057E+02 -0.53064654333E+02  0.81562215845E+02  0.00000000000E+00 0. -1.
         22    1    3    3    0    0 -0.21318391026E+02 -0.41749550837E+02 -0.11997877894E+02  0.48388509638E+02  0.00000000000E+00 0. -1.
         22    1    3    3    0    0 -0.14357278212E+02 -0.88842732201E+01 -0.66179665036E+01  0.18134476252E+02  0.00000000000E+00 0. -1.
<mgrwt>
<rscale>  0 0.12958060E+03</rscale>
<asrwt>0</asrwt>
<pdfrwt beam="1">  1        1 0.58772849E-02 0.12958060E+03</pdfrwt>
<pdfrwt beam="2">  1       -1 0.16905054E-01 0.12958060E+03</pdfrwt>
<totfact> 0.32130733E+04</totfact>
</mgrwt>
</event>
<event>
 7    1  0.3345055E-009  0.9298650E+02  0.7818608E-02  0.1295776E+00
          1   -1    0    0  501    0  0.00000000000E+00  0.00000000000E+00  0.11117331012E+02  0.11117332155E+02  0.50400000000E-02 0. -1.
         -1   -1    0    0    0  501 -0.00000000000E+00 -0.00000000000E+00 -0.19443716548E+03  0.19443716554E+03  0.50400000000E-02 0.  1.
         23    2    1    2    0    0 -0.35527136788E-14  0.00000000000E+00 -0.18331983447E+03  0.20555449770E+03  0.92986503404E+02 0.  0.
    9000005    2    3    3    0    0 -0.24288247142E+02 -0.38170921500E+02 -0.11469535751E+03  0.12335804379E+03  0.39043227695E+01 0.  0.
         22    1    3    3    0    0  0.24288247142E+02  0.38170921500E+02 -0.68624476958E+02  0.82196453909E+02  0.00000000000E+00 0.  1.
         22    1    4    4    0    0 -0.18013262509E+02 -0.24945340817E+02 -0.77022406802E+02  0.82940935637E+02  0.00000000000E+00 0. -1.
         22    1    4    4    0    0 -0.62749846329E+01 -0.13225580683E+02 -0.37672950705E+02  0.40417108152E+02  0.00000000000E+00 0. -1.
<mgrwt>
<rscale>  0 0.92986503E+02</rscale>
<asrwt>0</asrwt>
<pdfrwt beam="1">  1        1 0.17103589E-02 0.92986503E+02</pdfrwt>
<pdfrwt beam="2">  1       -1 0.29913408E-01 0.92986503E+02</pdfrwt>
<totfact> 0.66484541E+04</totfact>
</mgrwt>
</event>
<event>
 7    1  0.3345055E-009  0.9185749E+02  0.7818608E-02  0.1298415E+00
          1   -1    0    0  501    0  0.00000000000E+00  0.00000000000E+00  0.99437914767E+02  0.99437914895E+02  0.50400000000E-02 0. -1.
         -1   -1    0    0    0  501 -0.00000000000E+00 -0.00000000000E+00 -0.21213734800E+02  0.21213735398E+02  0.50400000000E-02 0.  1.
         23    2    1    2    0    0  0.00000000000E+00  0.00000000000E+00  0.78224179967E+02  0.12065165029E+03  0.91857489552E+02 0.  0.
    9000005    2    3    3    0    0 -0.40900610308E+02 -0.16049093338E+02  0.27440776511E+02  0.53499677968E+02  0.13371088460E+02 0.  0.
         22    1    3    3    0    0  0.40900610308E+02  0.16049093338E+02  0.50783403456E+02  0.67151972325E+02  0.00000000000E+00 0.  1.
         22    1    4    4    0    0 -0.39914647121E+01 -0.48901765264E+01  0.83665864417E+01  0.10480714942E+02  0.00000000000E+00 0.  1.
         22    1    4    4    0    0 -0.36909145596E+02 -0.11158916812E+02  0.19074190070E+02  0.43018963026E+02  0.00000000000E+00 0.  1.
<mgrwt>
<rscale>  0 0.91857490E+02</rscale>
<asrwt>0</asrwt>
<pdfrwt beam="1">  1        1 0.15298140E-01 0.91857490E+02</pdfrwt>
<pdfrwt beam="2">  1       -1 0.32636517E-02 0.91857490E+02</pdfrwt>
<totfact> 0.10225620E+05</totfact>
</mgrwt>
</event>
<event>
 7    1  0.3345055E-009  0.1076462E+03  0.7818608E-02  0.1264992E+00
          1   -1    0    0  501    0  0.00000000000E+00  0.00000000000E+00  0.67051160708E+03  0.67051160710E+03  0.50400000000E-02 0. -1.
         -1   -1    0    0    0  501 -0.00000000000E+00 -0.00000000000E+00 -0.43204704751E+01  0.43204734148E+01  0.50400000000E-02 0.  1.
         23    2    1    2    0    0 -0.71054273576E-14 -0.71054273576E-14  0.66619113661E+03  0.67483208052E+03  0.10764620941E+03 0.  0.
    9000005    2    3    3    0    0  0.36709464691E+02  0.38308220248E+02  0.37529917999E+03  0.37914096641E+03  0.91265203104E+01 0.  0.
         22    1    3    3    0    0 -0.36709464691E+02 -0.38308220248E+02  0.29089195662E+03  0.29569111410E+03  0.00000000000E+00 0.  1.
         22    1    4    4    0    0  0.29595940617E+02  0.34698357597E+02  0.33133773403E+03  0.33446164161E+03  0.00000000000E+00 0.  1.
         22    1    4    4    0    0  0.71135240742E+01  0.36098626511E+01  0.43961445964E+02  0.44679324798E+02  0.00000000000E+00 0.  1.
<mgrwt>
<rscale>  0 0.10764621E+03</rscale>
<asrwt>0</asrwt>
<pdfrwt beam="1">  1        1 0.10315570E+00 0.10764621E+03</pdfrwt>
<pdfrwt beam="2">  1       -1 0.66468757E-03 0.10764621E+03</pdfrwt>
<totfact> 0.91305116E+04</totfact>
</mgrwt>
</event>
<event>
 7    1  0.3345055E-009  0.1224107E+03  0.7818608E-02  0.1239172E+00
          1   -1    0    0  501    0  0.00000000000E+00  0.00000000000E+00  0.10265314803E+02  0.10265316040E+02  0.50400000000E-02 0. -1.
         -1   -1    0    0    0  501 -0.00000000000E+00 -0.00000000000E+00 -0.36492748058E+03  0.36492748062E+03  0.50400000000E-02 0.  1.
         23    2    1    2    0    0  0.00000000000E+00 -0.35527136788E-14 -0.35466216578E+03  0.37519279666E+03  0.12241071370E+03 0.  0.
    9000005    2    3    3    0    0 -0.52544325669E+02 -0.30214816052E+02 -0.15510282236E+03  0.16663159985E+03  0.59467045215E+01 0.  0.
         22    1    3    3    0    0  0.52544325669E+02  0.30214816052E+02 -0.19955934342E+03  0.20856119681E+03  0.00000000000E+00 0. -1.
         22    1    4    4    0    0 -0.19884873586E+02 -0.12949683031E+02 -0.67872480995E+02  0.71901155517E+02  0.00000000000E+00 0. -1.
         22    1    4    4    0    0 -0.32659452082E+02 -0.17265133020E+02 -0.87230341366E+02  0.94730444333E+02  0.00000000000E+00 0. -1.
<mgrwt>
<rscale>  0 0.12241071E+03</rscale>
<asrwt>0</asrwt>
<pdfrwt beam="1">  1        1 0.15792796E-02 0.12241071E+03</pdfrwt>
<pdfrwt beam="2">  1       -1 0.56142679E-01 0.12241071E+03</pdfrwt>
<totfact> 0.25560471E+04</totfact>
</mgrwt>
</event>
<event>
 7    1  0.3345055E-009  0.9162015E+02  0.7818608E-02  0.1298975E+00
          1   -1    0    0  501    0  0.00000000000E+00  0.00000000000E+00  0.24794945962E+02  0.24794946474E+02  0.50400000000E-02 0. -1.
         -1   -1    0    0    0  501 -0.00000000000E+00 -0.00000000000E+00 -0.84636718687E+02  0.84636718837E+02  0.50400000000E-02 0.  1.
         23    2    1    2    0    0 -0.88817841970E-15 -0.71054273576E-14 -0.59841772725E+02  0.10943166531E+03  0.91620148493E+02 0.  0.
    9000005    2    3    3    0    0 -0.52956583101E+01 -0.40823821093E+02 -0.64284500552E+01  0.41995685269E+02  0.52615820380E+01 0.  0.
         22    1    3    3    0    0  0.52956583101E+01  0.40823821093E+02 -0.53413322670E+02  0.67435980042E+02  0.00000000000E+00 0.  1.
         22    1    4    4    0    0 -0.40595013749E+01 -0.16556446906E+02 -0.44401773844E+01  0.17615636826E+02  0.00000000000E+00 0. -1.
         22    1    4    4    0    0 -0.12361569352E+01 -0.24267374187E+02 -0.19882726708E+01  0.24380048443E+02  0.00000000000E+00 0. -1.
<mgrwt>
<rscale>  0 0.91620148E+02</rscale>
<asrwt>0</asrwt>
<pdfrwt beam="1">  1        1 0.38146072E-02 0.91620148E+02</pdfrwt>
<pdfrwt beam="2">  1       -1 0.13021034E-01 0.91620148E+02</pdfrwt>
<totfact> 0.82802067E+04</totfact>
</mgrwt>
</event>
<event>
 7    1  0.3345055E-009  0.9156648E+02  0.7818608E-02  0.1299102E+00
         -1   -1    0    0    0  501 -0.00000000000E+00  0.00000000000E+00  0.92977228796E+02  0.92977228933E+02  0.50400000000E-02 0.  1.
          1   -1    0    0  501    0  0.00000000000E+00 -0.00000000000E+00 -0.22544284569E+02  0.22544285132E+02  0.50400000000E-02 0. -1.
         23    2    1    2    0    0  0.00000000000E+00  0.00000000000E+00  0.70432944228E+02  0.11552151406E+03  0.91566481745E+02 0.  0.
    9000005    2    3    3    0    0 -0.66261183974E+01 -0.19921510331E+02  0.86453593519E+02  0.89112553036E+02  0.51040432343E+01 0.  0.
         22    1    3    3    0    0  0.66261183974E+01  0.19921510331E+02 -0.16020649292E+02  0.26408961029E+02  0.00000000000E+00 0. -1.
         22    1    4    4    0    0 -0.37518902188E+01 -0.56076625320E+01  0.34118978047E+02  0.34779695546E+02  0.00000000000E+00 0.  1.
         22    1    4    4    0    0 -0.28742281786E+01 -0.14313847799E+02  0.52334615473E+02  0.54332857491E+02  0.00000000000E+00 0.  1.
<mgrwt>
<rscale>  0 0.91566482E+02</rscale>
<asrwt>0</asrwt>
<pdfrwt beam="2">  1        1 0.34683515E-02 0.91566482E+02</pdfrwt>
<pdfrwt beam="1">  1       -1 0.14304189E-01 0.91566482E+02</pdfrwt>
<totfact> 0.81561382E+04</totfact>
</mgrwt>
</event>
<event>
 7    1  0.3345055E-009  0.8729174E+02  0.7818608E-02  0.1309546E+00
          1   -1    0    0  501    0  0.00000000000E+00  0.00000000000E+00  0.16769703516E+03  0.16769703524E+03  0.50400000000E-02 0. -1.
         -1   -1    0    0    0  501 -0.00000000000E+00 -0.00000000000E+00 -0.11359543647E+02  0.11359544765E+02  0.50400000000E-02 0.  1.
         23    2    1    2    0    0  0.88817841970E-15 -0.35527136788E-14  0.15633749152E+03  0.17905658001E+03  0.87291738379E+02 0.  0.
    9000005    2    3    3    0    0  0.51894978953E+01 -0.29814156881E+02  0.16761144387E+02  0.36237213261E+02  0.10788179866E+02 0.  0.
         22    1    3    3    0    0 -0.51894978953E+01  0.29814156881E+02  0.13957634713E+03  0.14281936674E+03  0.00000000000E+00 0. -1.
         22    1    4    4    0    0  0.33835134516E+00 -0.98122142044E+01  0.20056370476E+00  0.98200944509E+01  0.00000000000E+00 0. -1.
         22    1    4    4    0    0  0.48511465502E+01 -0.20001942677E+02  0.16560580683E+02  0.26417118810E+02  0.00000000000E+00 0. -1.
<mgrwt>
<rscale>  0 0.87291738E+02</rscale>
<asrwt>0</asrwt>
<pdfrwt beam="1">  1        1 0.25799544E-01 0.87291738E+02</pdfrwt>
<pdfrwt beam="2">  1       -1 0.17476222E-02 0.87291738E+02</pdfrwt>
<totfact> 0.12866613E+05</totfact>
</mgrwt>
</event>
<event>
 7    1  0.3345055E-009  0.9152899E+02  0.7818608E-02  0.1299191E+00
         -1   -1    0    0    0  501 -0.00000000000E+00  0.00000000000E+00  0.10804555539E+03  0.10804555551E+03  0.50400000000E-02 0.  1.
          1   -1    0    0  501    0  0.00000000000E+00 -0.00000000000E+00 -0.19384315825E+02  0.19384316480E+02  0.50400000000E-02 0. -1.
         23    2    1    2    0    0 -0.88817841970E-15  0.00000000000E+00  0.88661239566E+02  0.12742987199E+03  0.91528994716E+02 0.  0.
    9000005    2    3    3    0    0  0.52526363119E+01  0.16002875908E+02  0.10306590477E+03  0.10526736750E+03  0.13227082391E+02 0.  0.
         22    1    3    3    0    0 -0.52526363119E+01 -0.16002875908E+02 -0.14404665205E+02  0.22162504489E+02  0.00000000000E+00 0. -1.
         22    1    4    4    0    0  0.19628329249E+01  0.34469218711E+00  0.16222530400E+01  0.25696752170E+01  0.00000000000E+00 0.  1.
         22    1    4    4    0    0  0.32898033870E+01  0.15658183721E+02  0.10144365173E+03  0.10269769228E+03  0.00000000000E+00 0.  1.
<mgrwt>
<rscale>  0 0.91528995E+02</rscale>
<asrwt>0</asrwt>
<pdfrwt beam="2">  1        1 0.29822026E-02 0.91528995E+02</pdfrwt>
<pdfrwt beam="1">  1       -1 0.16622392E-01 0.91528995E+02</pdfrwt>
<totfact> 0.79391612E+04</totfact>
</mgrwt>
</event>
<event>
 7    1  0.3345055E-009  0.8640771E+02  0.7818608E-02  0.1311792E+00
          1   -1    0    0  501    0  0.00000000000E+00  0.00000000000E+00  0.10226145226E+02  0.10226146468E+02  0.50400000000E-02 0. -1.
         -1   -1    0    0    0  501 -0.00000000000E+00 -0.00000000000E+00 -0.18252949814E+03  0.18252949821E+03  0.50400000000E-02 0.  1.
         23    2    1    2    0    0  0.00000000000E+00  0.00000000000E+00 -0.17230335292E+03  0.19275564468E+03  0.86407714525E+02 0.  0.
    9000005    2    3    3    0    0  0.16308993004E+02  0.38732773570E+02 -0.10768093632E+03  0.11566953874E+03  0.42481932315E+01 0.  0.
         22    1    3    3    0    0 -0.16308993004E+02 -0.38732773570E+02 -0.64622416600E+02  0.77086105937E+02  0.00000000000E+00 0. -1.
         22    1    4    4    0    0  0.15360508857E+02  0.38104468809E+02 -0.10529436806E+03  0.11302565957E+03  0.00000000000E+00 0.  1.
         22    1    4    4    0    0  0.94848414683E+00  0.62830476178E+00 -0.23865682563E+01  0.26438791751E+01  0.00000000000E+00 0.  1.
<mgrwt>
<rscale>  0 0.86407715E+02</rscale>
<asrwt>0</asrwt>
<pdfrwt beam="1">  1        1 0.15732533E-02 0.86407715E+02</pdfrwt>
<pdfrwt beam="2">  1       -1 0.28081459E-01 0.86407715E+02</pdfrwt>
<totfact> 0.81863540E+04</totfact>
</mgrwt>
</event>
<event>
 7    1  0.3345055E-009  0.9527778E+02  0.7818608E-02  0.1290552E+00
          1   -1    0    0  501    0  0.00000000000E+00  0.00000000000E+00  0.19524251586E+02  0.19524252237E+02  0.50400000000E-02 0. -1.
         -1   -1    0    0    0  501 -0.00000000000E+00 -0.00000000000E+00 -0.11623819856E+03  0.11623819867E+03  0.50400000000E-02 0.  1.
         23    2    1    2    0    0  0.00000000000E+00  0.00000000000E+00 -0.96713946976E+02  0.13576245091E+03  0.95277780920E+02 0.  0.
    9000005    2    3    3    0    0 -0.63901236236E+01  0.42512962257E+02 -0.75506673361E+02  0.87825679073E+02  0.12802599064E+02 0.  0.
         22    1    3    3    0    0  0.63901236236E+01 -0.42512962257E+02 -0.21207273615E+02  0.47936771835E+02  0.00000000000E+00 0. -1.
         22    1    4    4    0    0 -0.45062659064E+01  0.34380707199E+02 -0.48943254391E+02  0.59981510570E+02  0.00000000000E+00 0.  1.
         22    1    4    4    0    0 -0.18838577171E+01  0.81322550585E+01 -0.26563418970E+02  0.27844168503E+02  0.00000000000E+00 0.  1.
<mgrwt>
<rscale>  0 0.95277781E+02</rscale>
<asrwt>0</asrwt>
<pdfrwt beam="1">  1        1 0.30037311E-02 0.95277781E+02</pdfrwt>
<pdfrwt beam="2">  1       -1 0.17882799E-01 0.95277781E+02</pdfrwt>
<totfact> 0.70533528E+04</totfact>
</mgrwt>
</event>
<event>
 7    1  0.3345055E-009  0.9058653E+02  0.7818608E-02  0.1301438E+00
          1   -1    0    0  501    0  0.00000000000E+00  0.00000000000E+00  0.32118550860E+02  0.32118551256E+02  0.50400000000E-02 0. -1.
         -1   -1    0    0    0  501 -0.00000000000E+00 -0.00000000000E+00 -0.63872117403E+02  0.63872117602E+02  0.50400000000E-02 0.  1.
         23    2    1    2    0    0 -0.35527136788E-14  0.00000000000E+00 -0.31753566543E+02  0.95990668858E+02  0.90586530564E+02 0.  0.
    9000005    2    3    3    0    0 -0.27343615687E+02 -0.22422558556E+02 -0.45288964003E+02  0.58127079020E+02  0.87876392624E+01 0.  0.
         22    1    3    3    0    0  0.27343615687E+02  0.22422558556E+02  0.13535397460E+02  0.37863589839E+02  0.00000000000E+00 0. -1.
         22    1    4    4    0    0 -0.11580681070E+02 -0.12086815427E+02 -0.27588939854E+02  0.32269999744E+02  0.00000000000E+00 0. -1.
         22    1    4    4    0    0 -0.15762934617E+02 -0.10335743129E+02 -0.17700024150E+02  0.25857079276E+02  0.00000000000E+00 0. -1.
<mgrwt>
<rscale>  0 0.90586531E+02</rscale>
<asrwt>0</asrwt>
<pdfrwt beam="1">  1        1 0.49413156E-02 0.90586531E+02</pdfrwt>
<pdfrwt beam="2">  1       -1 0.98264797E-02 0.90586531E+02</pdfrwt>
<totfact> 0.89275849E+04</totfact>
</mgrwt>
</event>
<event>
 7    1  0.3345055E-009  0.9403855E+02  0.7818608E-02  0.1293356E+00
          1   -1    0    0  501    0  0.00000000000E+00  0.00000000000E+00  0.31732947353E+02  0.31732947753E+02  0.50400000000E-02 0. -1.
         -1   -1    0    0    0  501 -0.00000000000E+00 -0.00000000000E+00 -0.69669295655E+02  0.69669295837E+02  0.50400000000E-02 0.  1.
         23    2    1    2    0    0 -0.71054273576E-14  0.00000000000E+00 -0.37936348302E+02  0.10140224359E+03  0.94038547855E+02 0.  0.
    9000005    2    3    3    0    0  0.32329961541E+02 -0.31860560323E+02 -0.66608029833E+01  0.46279821181E+02  0.60937537575E+01 0.  0.
         22    1    3    3    0    0 -0.32329961541E+02  0.31860560323E+02 -0.31275545318E+02  0.55122422409E+02  0.00000000000E+00 0.  1.
         22    1    4    4    0    0  0.75551775025E+01 -0.74255131365E+01 -0.41997194751E+01  0.11395463839E+02  0.00000000000E+00 0. -1.
         22    1    4    4    0    0  0.24774784038E+02 -0.24435047186E+02 -0.24610835083E+01  0.34884357342E+02  0.00000000000E+00 0. -1.
<mgrwt>
<rscale>  0 0.94038548E+02</rscale>
<asrwt>0</asrwt>
<pdfrwt beam="1">  1        1 0.48819920E-02 0.94038548E+02</pdfrwt>
<pdfrwt beam="2">  1       -1 0.10718353E-01 0.94038548E+02</pdfrwt>
<totfact> 0.80037921E+04</totfact>
</mgrwt>
</event>
<event>
 7    1  0.3345055E-009  0.8896585E+02  0.7818608E-02  0.1305376E+00
          1   -1    0    0  501    0  0.00000000000E+00  0.00000000000E+00  0.71102119603E+02  0.71102119782E+02  0.50400000000E-02 0. -1.
         -1   -1    0    0    0  501 -0.00000000000E+00 -0.00000000000E+00 -0.27829419485E+02  0.27829419942E+02  0.50400000000E-02 0.  1.
         23    2    1    2    0    0  0.00000000000E+00  0.00000000000E+00  0.43272700118E+02  0.98931539723E+02  0.88965852868E+02 0.  0.
    9000005    2    3    3    0    0  0.11564946412E+02  0.11732700004E+02  0.67457878054E+02  0.69668473125E+02  0.56326371348E+01 0.  0.
         22    1    3    3    0    0 -0.11564946412E+02 -0.11732700004E+02 -0.24185177937E+02  0.29263066598E+02  0.00000000000E+00 0.  1.
         22    1    4    4    0    0  0.50347778535E+01  0.17064382754E+01  0.17028116751E+02  0.17838656892E+02  0.00000000000E+00 0. -1.
         22    1    4    4    0    0  0.65301685586E+01  0.10026261729E+02  0.50429761304E+02  0.51829816234E+02  0.00000000000E+00 0. -1.
<mgrwt>
<rscale>  0 0.88965853E+02</rscale>
<asrwt>0</asrwt>
<pdfrwt beam="1">  1        1 0.10938787E-01 0.88965853E+02</pdfrwt>
<pdfrwt beam="2">  1       -1 0.42814493E-02 0.88965853E+02</pdfrwt>
<totfact> 0.10581088E+05</totfact>
</mgrwt>
</event>
<event>
 7    1  0.3345055E-009  0.9102807E+02  0.7818608E-02  0.1300381E+00
          1   -1    0    0  501    0  0.00000000000E+00  0.00000000000E+00  0.18365173833E+02  0.18365174525E+02  0.50400000000E-02 0. -1.
         -1   -1    0    0    0  501 -0.00000000000E+00 -0.00000000000E+00 -0.11279649473E+03  0.11279649484E+03  0.50400000000E-02 0.  1.
         23    2    1    2    0    0  0.00000000000E+00  0.00000000000E+00 -0.94431320898E+02  0.13116166937E+03  0.91028067897E+02 0.  0.
    9000005    2    3    3    0    0  0.39560300339E+02 -0.91177299944E+01 -0.73824930711E+02  0.85633945071E+02  0.15326506150E+02 0.  0.
         22    1    3    3    0    0 -0.39560300339E+02  0.91177299944E+01 -0.20606390187E+02  0.45527724298E+02  0.00000000000E+00 0. -1.
         22    1    4    4    0    0  0.15242127528E+02 -0.10432811884E+02 -0.25122087799E+02  0.31181489875E+02  0.00000000000E+00 0.  1.
         22    1    4    4    0    0  0.24318172811E+02  0.13150818899E+01 -0.48702842912E+02  0.54452455197E+02  0.00000000000E+00 0.  1.
<mgrwt>
<rscale>  0 0.91028068E+02</rscale>
<asrwt>0</asrwt>
<pdfrwt beam="1">  1        1 0.28254115E-02 0.91028068E+02</pdfrwt>
<pdfrwt beam="2">  1       -1 0.17353307E-01 0.91028068E+02</pdfrwt>
<totfact> 0.79850585E+04</totfact>
</mgrwt>
</event>
<event>
 7    1  0.3345055E-009  0.6974791E+02  0.7818608E-02  0.1360952E+00
          1   -1    0    0  501    0  0.00000000000E+00  0.00000000000E+00  0.73664966689E+03  0.73664966690E+03  0.50400000000E-02 0. -1.
         -1   -1    0    0    0  501 -0.00000000000E+00 -0.00000000000E+00 -0.16509745995E+01  0.16509822923E+01  0.50400000000E-02 0.  1.
         23    2    1    2    0    0  0.00000000000E+00  0.00000000000E+00  0.73499869229E+03  0.73830064920E+03  0.69747909931E+02 0.  0.
    9000005    2    3    3    0    0  0.72994554175E+01  0.19801293109E+02  0.65899580769E+03  0.65942218746E+03  0.10806179182E+02 0.  0.
         22    1    3    3    0    0 -0.72994554175E+01 -0.19801293109E+02  0.76002884601E+02  0.78878461736E+02  0.00000000000E+00 0.  1.
         22    1    4    4    0    0 -0.13063941542E+00  0.43277700266E+01  0.28478289251E+03  0.28481580456E+03  0.00000000000E+00 0. -1.
         22    1    4    4    0    0  0.74300948329E+01  0.15473523083E+02  0.37421291517E+03  0.37460638290E+03  0.00000000000E+00 0. -1.
<mgrwt>
<rscale>  0 0.69747910E+02</rscale>
<asrwt>0</asrwt>
<pdfrwt beam="1">  1        1 0.11333060E+00 0.69747910E+02</pdfrwt>
<pdfrwt beam="2">  1       -1 0.25399695E-03 0.69747910E+02</pdfrwt>
<totfact> 0.28571931E+05</totfact>
</mgrwt>
</event>
<event>
 7    1  0.3345055E-009  0.9096040E+02  0.7818608E-02  0.1300542E+00
         -1   -1    0    0    0  501 -0.00000000000E+00  0.00000000000E+00  0.73484524442E+01  0.73484541726E+01  0.50400000000E-02 0. -1.
          1   -1    0    0  501    0  0.00000000000E+00 -0.00000000000E+00 -0.28148077797E+03  0.28148077802E+03  0.50400000000E-02 0.  1.
         23    2    1    2    0    0 -0.88817841970E-15  0.00000000000E+00 -0.27413232553E+03  0.28882923219E+03  0.90960395052E+02 0.  0.
    9000005    2    3    3    0    0 -0.67135722496E+01  0.17680392294E+02 -0.26836821613E+03  0.26905821094E+03  0.36267235586E+01 0.  0.
         22    1    3    3    0    0  0.67135722496E+01 -0.17680392294E+02 -0.57641094012E+01  0.19771021249E+02  0.00000000000E+00 0. -1.
         22    1    4    4    0    0 -0.13758500585E+01  0.15510214546E+01 -0.19250900413E+02  0.19362226050E+02  0.00000000000E+00 0.  1.
         22    1    4    4    0    0 -0.53377221911E+01  0.16129370840E+02 -0.24911731571E+03  0.24969598489E+03  0.00000000000E+00 0.  1.
<mgrwt>
<rscale>  0 0.90960395E+02</rscale>
<asrwt>0</asrwt>
<pdfrwt beam="2">  1        1 0.43304727E-01 0.90960395E+02</pdfrwt>
<pdfrwt beam="1">  1       -1 0.11305315E-02 0.90960395E+02</pdfrwt>
<totfact> 0.12736718E+05</totfact>
</mgrwt>
</event>
<event>
 7    1  0.3345055E-009  0.9789493E+02  0.7818608E-02  0.1284786E+00
          1   -1    0    0  501    0  0.00000000000E+00  0.00000000000E+00  0.12215732486E+04  0.12215732486E+04  0.50400000000E-02 0. -1.
         -1   -1    0    0    0  501 -0.00000000000E+00 -0.00000000000E+00 -0.19612825508E+01  0.19612890266E+01  0.50400000000E-02 0.  1.
         23    2    1    2    0    0  0.00000000000E+00  0.00000000000E+00  0.12196119660E+04  0.12235345376E+04  0.97894928673E+02 0.  0.
    9000005    2    3    3    0    0 -0.14488687431E+02  0.32939615718E+01  0.11925849869E+04  0.11926925233E+04  0.59776159457E+01 0.  0.
         22    1    3    3    0    0  0.14488687431E+02 -0.32939615718E+01  0.27026979075E+02  0.30842014270E+02  0.00000000000E+00 0.  1.
         22    1    4    4    0    0 -0.66334928470E+01  0.15108643983E+01  0.77495456145E+03  0.77498442453E+03  0.00000000000E+00 0.  1.
         22    1    4    4    0    0 -0.78551945844E+01  0.17830971735E+01  0.41763042548E+03  0.41770809880E+03  0.00000000000E+00 0.  1.
<mgrwt>
<rscale>  0 0.97894929E+02</rscale>
<asrwt>0</asrwt>
<pdfrwt beam="1">  1        1 0.18793409E+00 0.97894929E+02</pdfrwt>
<pdfrwt beam="2">  1       -1 0.30173670E-03 0.97894929E+02</pdfrwt>
<totfact> 0.10451630E+05</totfact>
</mgrwt>
</event>
<event>
 7    1  0.3345055E-009  0.8932872E+02  0.7818608E-02  0.1304485E+00
          1   -1    0    0  501    0  0.00000000000E+00  0.00000000000E+00  0.14778179483E+02  0.14778180343E+02  0.50400000000E-02 0. -1.
         -1   -1    0    0    0  501 -0.00000000000E+00 -0.00000000000E+00 -0.13498988634E+03  0.13498988643E+03  0.50400000000E-02 0.  1.
         23    2    1    2    0    0  0.00000000000E+00 -0.71054273576E-14 -0.12021170686E+03  0.14976806678E+03  0.89328715207E+02 0.  0.
    9000005    2    3    3    0    0  0.68135040608E+01 -0.41699650061E+02 -0.44745271329E+02  0.63278370604E+02  0.14721692400E+02 0.  0.
         22    1    3    3    0    0 -0.68135040608E+01  0.41699650061E+02 -0.75466435527E+02  0.86489696172E+02  0.00000000000E+00 0.  1.
         22    1    4    4    0    0  0.65168910829E+01 -0.24733759666E+02 -0.16855579117E+02  0.30632324169E+02  0.00000000000E+00 0.  1.
         22    1    4    4    0    0  0.29661297789E+00 -0.16965890395E+02 -0.27889692212E+02  0.32646046435E+02  0.00000000000E+00 0.  1.
<mgrwt>
<rscale>  0 0.89328715E+02</rscale>
<asrwt>0</asrwt>
<pdfrwt beam="1">  1        1 0.22735662E-02 0.89328715E+02</pdfrwt>
<pdfrwt beam="2">  1       -1 0.20767674E-01 0.89328715E+02</pdfrwt>
<totfact> 0.80764863E+04</totfact>
</mgrwt>
</event>
<event>
 7    1  0.3345055E-009  0.8952209E+02  0.7818608E-02  0.1304013E+00
         -1   -1    0    0    0  501 -0.00000000000E+00  0.00000000000E+00  0.40812669174E+01  0.40812700294E+01  0.50400000000E-02 0.  1.
          1   -1    0    0  501    0  0.00000000000E+00 -0.00000000000E+00 -0.49091380783E+03  0.49091380786E+03  0.50400000000E-02 0. -1.
         23    2    1    2    0    0  0.00000000000E+00  0.00000000000E+00 -0.48683254092E+03  0.49499507789E+03  0.89522087997E+02 0.  0.
    9000005    2    3    3    0    0 -0.54559476597E+01 -0.44217687995E+02 -0.22195506771E+03  0.22639677724E+03  0.25450674692E+01 0.  0.
         22    1    3    3    0    0  0.54559476597E+01  0.44217687995E+02 -0.26487747321E+03  0.26859830064E+03  0.00000000000E+00 0. -1.
         22    1    4    4    0    0 -0.67912499843E+00 -0.16162110746E+01 -0.93358892276E+01  0.94990618838E+01  0.00000000000E+00 0. -1.
         22    1    4    4    0    0 -0.47768226613E+01 -0.42601476921E+02 -0.21261917848E+03  0.21689771536E+03  0.00000000000E+00 0. -1.
<mgrwt>
<rscale>  0 0.89522088E+02</rscale>
<asrwt>0</asrwt>
<pdfrwt beam="2">  1        1 0.75525155E-01 0.89522088E+02</pdfrwt>
<pdfrwt beam="1">  1       -1 0.62788785E-03 0.89522088E+02</pdfrwt>
<totfact> 0.14586082E+05</totfact>
</mgrwt>
</event>
<event>
 7    1  0.3345055E-009  0.8960623E+02  0.7818608E-02  0.1303808E+00
          1   -1    0    0  501    0  0.00000000000E+00  0.00000000000E+00  0.15834964643E+03  0.15834964651E+03  0.50400000000E-02 0. -1.
         -1   -1    0    0    0  501 -0.00000000000E+00 -0.00000000000E+00 -0.12676499672E+02  0.12676500674E+02  0.50400000000E-02 0.  1.
         23    2    1    2    0    0  0.00000000000E+00  0.00000000000E+00  0.14567314676E+03  0.17102614719E+03  0.89606234909E+02 0.  0.
    9000005    2    3    3    0    0 -0.58371293628E+01  0.35268090735E+02  0.12352517432E+03  0.12897328775E+03  0.98858464310E+01 0.  0.
         22    1    3    3    0    0  0.58371293628E+01 -0.35268090735E+02  0.22147972438E+02  0.42052859432E+02  0.00000000000E+00 0.  1.
         22    1    4    4    0    0 -0.17662538659E+01  0.23466354721E+02  0.64930383598E+02  0.69063334489E+02  0.00000000000E+00 0. -1.
         22    1    4    4    0    0 -0.40708754969E+01  0.11801736014E+02  0.58594790723E+02  0.59909953265E+02  0.00000000000E+00 0. -1.
<mgrwt>
<rscale>  0 0.89606235E+02</rscale>
<asrwt>0</asrwt>
<pdfrwt beam="1">  1        1 0.24361486E-01 0.89606235E+02</pdfrwt>
<pdfrwt beam="2">  1       -1 0.19502306E-02 0.89606235E+02</pdfrwt>
<totfact> 0.11868055E+05</totfact>
</mgrwt>
</event>
<event>
 7    1  0.3345055E-009  0.9088130E+02  0.7818608E-02  0.1300731E+00
          1   -1    0    0  501    0  0.00000000000E+00  0.00000000000E+00  0.16283820773E+03  0.16283820781E+03  0.50400000000E-02 0. -1.
         -1   -1    0    0    0  501 -0.00000000000E+00 -0.00000000000E+00 -0.12680392723E+02  0.12680393724E+02  0.50400000000E-02 0.  1.
         23    2    1    2    0    0  0.00000000000E+00  0.00000000000E+00  0.15015781501E+03  0.17551860154E+03  0.90881296625E+02 0.  0.
    9000005    2    3    3    0    0 -0.78299653182E+00 -0.38498015640E+02  0.30310934394E+02  0.49637764688E+02  0.79021925859E+01 0.  0.
         22    1    3    3    0    0  0.78299653182E+00  0.38498015640E+02  0.11984688062E+03  0.12588083685E+03  0.00000000000E+00 0. -1.
         22    1    4    4    0    0  0.69946692707E+00 -0.18128375787E+02  0.19087272511E+02  0.26333462259E+02  0.00000000000E+00 0. -1.
         22    1    4    4    0    0 -0.14824634589E+01 -0.20369639853E+02  0.11223661882E+02  0.23304302429E+02  0.00000000000E+00 0. -1.
<mgrwt>
<rscale>  0 0.90881297E+02</rscale>
<asrwt>0</asrwt>
<pdfrwt beam="1">  1        1 0.25052029E-01 0.90881297E+02</pdfrwt>
<pdfrwt beam="2">  1       -1 0.19508300E-02 0.90881297E+02</pdfrwt>
<totfact> 0.11485224E+05</totfact>
</mgrwt>
</event>
<event>
 7    1  0.3345055E-009  0.8682250E+02  0.7818608E-02  0.1310734E+00
         -1   -1    0    0    0  501 -0.00000000000E+00  0.00000000000E+00  0.47114768819E+02  0.47114769089E+02  0.50400000000E-02 0.  1.
          1   -1    0    0  501    0  0.00000000000E+00 -0.00000000000E+00 -0.39998847585E+02  0.39998847902E+02  0.50400000000E-02 0. -1.
         23    2    1    2    0    0  0.00000000000E+00  0.00000000000E+00  0.71159212344E+01  0.87113616991E+02  0.86822496683E+02 0.  0.
    9000005    2    3    3    0    0  0.21703817546E+02  0.98022437451E+00 -0.32420641335E+02  0.42000910181E+02  0.15522948676E+02 0.  0.
         22    1    3    3    0    0 -0.21703817546E+02 -0.98022437451E+00  0.39536562569E+02  0.45112706809E+02  0.00000000000E+00 0.  1.
         22    1    4    4    0    0  0.22329896872E+02 -0.30368093296E+01 -0.28696692876E+02  0.36487623755E+02  0.00000000000E+00 0. -1.
         22    1    4    4    0    0 -0.62607932564E+00  0.40170337041E+01 -0.37239484582E+01  0.55132864266E+01  0.00000000000E+00 0. -1.
<mgrwt>
<rscale>  0 0.86822497E+02</rscale>
<asrwt>0</asrwt>
<pdfrwt beam="2">  1        1 0.61536689E-02 0.86822497E+02</pdfrwt>
<pdfrwt beam="1">  1       -1 0.72484260E-02 0.86822497E+02</pdfrwt>
<totfact> 0.10403146E+05</totfact>
</mgrwt>
</event>
<event>
 7    1  0.3345055E-009  0.8816699E+02  0.7818608E-02  0.1307352E+00
          1   -1    0    0  501    0  0.00000000000E+00  0.00000000000E+00  0.25252508851E+02  0.25252509353E+02  0.50400000000E-02 0. -1.
         -1   -1    0    0    0  501 -0.00000000000E+00 -0.00000000000E+00 -0.76956880054E+02  0.76956880219E+02  0.50400000000E-02 0.  1.
         23    2    1    2    0    0  0.00000000000E+00  0.00000000000E+00 -0.51704371203E+02  0.10220938957E+03  0.88166985404E+02 0.  0.
    9000005    2    3    3    0    0 -0.32514530319E+02  0.20757135829E+02 -0.48389732784E+02  0.63491949089E+02  0.14198872864E+02 0.  0.
         22    1    3    3    0    0  0.32514530319E+02 -0.20757135829E+02 -0.33146384190E+01  0.38717440483E+02  0.00000000000E+00 0. -1.
         22    1    4    4    0    0 -0.17921490121E+02  0.10549138623E+02 -0.14970930758E+02  0.25624068795E+02  0.00000000000E+00 0.  1.
         22    1    4    4    0    0 -0.14593040198E+02  0.10207997206E+02 -0.33418802026E+02  0.37867880295E+02  0.00000000000E+00 0.  1.
<mgrwt>
<rscale>  0 0.88166985E+02</rscale>
<asrwt>0</asrwt>
<pdfrwt beam="1">  1        1 0.38850015E-02 0.88166985E+02</pdfrwt>
<pdfrwt beam="2">  1       -1 0.11839520E-01 0.88166985E+02</pdfrwt>
<totfact> 0.92829647E+04</totfact>
</mgrwt>
</event>
<event>
 7    1  0.3345055E-009  0.9309300E+02  0.7818608E-02  0.1295530E+00
          1   -1    0    0  501    0  0.00000000000E+00  0.00000000000E+00  0.18265691328E+03  0.18265691335E+03  0.50400000000E-02 0. -1.
         -1   -1    0    0    0  501 -0.00000000000E+00 -0.00000000000E+00 -0.11861454395E+02  0.11861455466E+02  0.50400000000E-02 0.  1.
         23    2    1    2    0    0  0.00000000000E+00  0.00000000000E+00  0.17079545889E+03  0.19451836882E+03  0.93093002051E+02 0.  0.
    9000005    2    3    3    0    0 -0.18222076830E+02 -0.85032868380E+01  0.17301034863E+03  0.17428829942E+03  0.62833598180E+01 0.  0.
         22    1    3    3    0    0  0.18222076830E+02  0.85032868380E+01 -0.22148897477E+01  0.20230069393E+02  0.00000000000E+00 0.  1.
         22    1    4    4    0    0 -0.17641052422E+02 -0.93496287020E+01  0.16077204391E+03  0.16200701340E+03  0.00000000000E+00 0.  1.
         22    1    4    4    0    0 -0.58102440769E+00  0.84634186398E+00  0.12238304722E+02  0.12281286023E+02  0.00000000000E+00 0.  1.
<mgrwt>
<rscale>  0 0.93093002E+02</rscale>
<asrwt>0</asrwt>
<pdfrwt beam="1">  1        1 0.28101062E-01 0.93093002E+02</pdfrwt>
<pdfrwt beam="2">  1       -1 0.18248393E-02 0.93093002E+02</pdfrwt>
<totfact> 0.11001769E+05</totfact>
</mgrwt>
</event>
<event>
 7    1  0.3345055E-009  0.9077745E+02  0.7818608E-02  0.1300980E+00
         -1   -1    0    0    0  501 -0.00000000000E+00  0.00000000000E+00  0.32863013171E+01  0.32863051819E+01  0.50400000000E-02 0.  1.
          1   -1    0    0  501    0  0.00000000000E+00 -0.00000000000E+00 -0.62688558467E+03  0.62688558469E+03  0.50400000000E-02 0. -1.
         23    2    1    2    0    0  0.88817841970E-15  0.00000000000E+00 -0.62359928336E+03  0.63017188988E+03  0.90777445364E+02 0.  0.
    9000005    2    3    3    0    0 -0.44564500004E+01  0.32126048447E+02 -0.52856948222E+03  0.52975970915E+03  0.14412111623E+02 0.  0.
         22    1    3    3    0    0  0.44564500004E+01 -0.32126048447E+02 -0.95029801131E+02  0.10041218073E+03  0.00000000000E+00 0.  1.
         22    1    4    4    0    0  0.47656918222E+01  0.79551569546E+01 -0.17460053465E+03  0.17484662719E+03  0.00000000000E+00 0. -1.
         22    1    4    4    0    0 -0.92221418226E+01  0.24170891493E+02 -0.35396894758E+03  0.35491308196E+03  0.00000000000E+00 0. -1.
<mgrwt>
<rscale>  0 0.90777445E+02</rscale>
<asrwt>0</asrwt>
<pdfrwt beam="2">  1        1 0.96443842E-01 0.90777445E+02</pdfrwt>
<pdfrwt beam="1">  1       -1 0.50558561E-03 0.90777445E+02</pdfrwt>
<totfact> 0.14356247E+05</totfact>
</mgrwt>
</event>
<event>
 7    1  0.3345055E-009  0.9179808E+02  0.7818608E-02  0.1298555E+00
          1   -1    0    0  501    0  0.00000000000E+00  0.00000000000E+00  0.85311484726E+02  0.85311484875E+02  0.50400000000E-02 0. -1.
         -1   -1    0    0    0  501 -0.00000000000E+00 -0.00000000000E+00 -0.24694469891E+02  0.24694470406E+02  0.50400000000E-02 0.  1.
         23    2    1    2    0    0  0.00000000000E+00 -0.35527136788E-14  0.60617014835E+02  0.11000595528E+03  0.91798081187E+02 0.  0.
    9000005    2    3    3    0    0 -0.84800124163E+00  0.30903942420E+02  0.70926203885E+02  0.77416813806E+02  0.26577996707E+01 0.  0.
         22    1    3    3    0    0  0.84800124163E+00 -0.30903942420E+02 -0.10309189051E+02  0.32589141475E+02  0.00000000000E+00 0.  1.
         22    1    4    4    0    0 -0.10032654924E+01  0.27879643514E+02  0.65681300246E+02  0.71360453096E+02  0.00000000000E+00 0.  1.
         22    1    4    4    0    0  0.15526425072E+00  0.30242989055E+01  0.52449036397E+01  0.60563607097E+01  0.00000000000E+00 0.  1.
<mgrwt>
<rscale>  0 0.91798081E+02</rscale>
<asrwt>0</asrwt>
<pdfrwt beam="1">  1        1 0.13124844E-01 0.91798081E+02</pdfrwt>
<pdfrwt beam="2">  1       -1 0.37991493E-02 0.91798081E+02</pdfrwt>
<totfact> 0.99900646E+04</totfact>
</mgrwt>
</event>
<event>
 7    1  0.3345055E-009  0.7841309E+02  0.7818608E-02  0.1333616E+00
         -1   -1    0    0    0  501 -0.00000000000E+00  0.00000000000E+00  0.24472407865E+02  0.24472408384E+02  0.50400000000E-02 0.  1.
          1   -1    0    0  501    0  0.00000000000E+00 -0.00000000000E+00 -0.62811680320E+02  0.62811680522E+02  0.50400000000E-02 0. -1.
         23    2    1    2    0    0  0.17763568394E-14  0.00000000000E+00 -0.38339272454E+02  0.87284088906E+02  0.78413087963E+02 0.  0.
    9000005    2    3    3    0    0 -0.10737891494E+02  0.19454367335E+02 -0.54113420164E+02  0.60033429133E+02  0.13489835042E+02 0.  0.
         22    1    3    3    0    0  0.10737891494E+02 -0.19454367335E+02  0.15774147710E+02  0.27250659774E+02  0.00000000000E+00 0.  1.
         22    1    4    4    0    0 -0.75467419925E+01  0.54294787589E+01 -0.34377212708E+02  0.35612151127E+02  0.00000000000E+00 0.  1.
         22    1    4    4    0    0 -0.31911495013E+01  0.14024888576E+02 -0.19736207456E+02  0.24421278006E+02  0.00000000000E+00 0.  1.
<mgrwt>
<rscale>  0 0.78413088E+02</rscale>
<asrwt>0</asrwt>
<pdfrwt beam="2">  1        1 0.96633354E-02 0.78413088E+02</pdfrwt>
<pdfrwt beam="1">  1       -1 0.37649859E-02 0.78413088E+02</pdfrwt>
<totfact> 0.14663617E+05</totfact>
</mgrwt>
</event>
<event>
 7    1  0.3345055E-009  0.9070163E+02  0.7818608E-02  0.1301161E+00
          1   -1    0    0  501    0  0.00000000000E+00  0.00000000000E+00  0.41963108905E+02  0.41963109208E+02  0.50400000000E-02 0. -1.
         -1   -1    0    0    0  501 -0.00000000000E+00 -0.00000000000E+00 -0.49012011500E+02  0.49012011759E+02  0.50400000000E-02 0.  1.
         23    2    1    2    0    0  0.00000000000E+00  0.33306690739E-15 -0.70489025949E+01  0.90975120967E+02  0.90701629573E+02 0.  0.
    9000005    2    3    3    0    0  0.32471229330E+02 -0.49465929092E+00  0.26304119939E+02  0.44423541680E+02  0.15063827787E+02 0.  0.
         22    1    3    3    0    0 -0.32471229330E+02  0.49465929092E+00 -0.33353022534E+02  0.46551579288E+02  0.00000000000E+00 0.  1.
         22    1    4    4    0    0  0.11430046463E+02  0.48123750901E+01  0.16423062243E+02  0.20579647460E+02  0.00000000000E+00 0.  1.
         22    1    4    4    0    0  0.21041182867E+02 -0.53070343810E+01  0.98810576962E+01  0.23843894219E+02  0.00000000000E+00 0.  1.
<mgrwt>
<rscale>  0 0.90701630E+02</rscale>
<asrwt>0</asrwt>
<pdfrwt beam="1">  1        1 0.64558629E-02 0.90701630E+02</pdfrwt>
<pdfrwt beam="2">  1       -1 0.75403095E-02 0.90701630E+02</pdfrwt>
<totfact> 0.92678121E+04</totfact>
</mgrwt>
</event>
<event>
 7    1  0.3345055E-009  0.1040429E+03  0.7818608E-02  0.1272017E+00
         -1   -1    0    0    0  501 -0.00000000000E+00  0.00000000000E+00  0.19635026236E+02  0.19635026883E+02  0.50400000000E-02 0.  1.
          1   -1    0    0  501    0  0.00000000000E+00 -0.00000000000E+00 -0.13782678620E+03  0.13782678629E+03  0.50400000000E-02 0. -1.
         23    2    1    2    0    0 -0.71054273576E-14 -0.22204460493E-15 -0.11819175996E+03  0.15746181318E+03  0.10404292616E+03 0.  0.
    9000005    2    3    3    0    0  0.47698162666E+02  0.78934070348E+00 -0.33648840366E+02  0.60388423234E+02  0.15452489194E+02 0.  0.
         22    1    3    3    0    0 -0.47698162666E+02 -0.78934070348E+00 -0.84542919598E+02  0.97073389941E+02  0.00000000000E+00 0. -1.
         22    1    4    4    0    0  0.11226347655E+02  0.29212175460E+01 -0.16138089035E+02  0.19874665062E+02  0.00000000000E+00 0.  1.
         22    1    4    4    0    0  0.36471815011E+02 -0.21318768426E+01 -0.17510751331E+02  0.40513758172E+02  0.00000000000E+00 0.  1.
<mgrwt>
<rscale>  0 0.10404293E+03</rscale>
<asrwt>0</asrwt>
<pdfrwt beam="2">  1        1 0.21204120E-01 0.10404293E+03</pdfrwt>
<pdfrwt beam="1">  1       -1 0.30207734E-02 0.10404293E+03</pdfrwt>
<totfact> 0.77047611E+04</totfact>
</mgrwt>
</event>
<event>
 7    1  0.3345055E-009  0.9365405E+02  0.7818608E-02  0.1294237E+00
          1   -1    0    0  501    0  0.00000000000E+00  0.00000000000E+00  0.17783108071E+03  0.17783108078E+03  0.50400000000E-02 0.  1.
         -1   -1    0    0    0  501 -0.00000000000E+00 -0.00000000000E+00 -0.12330633835E+02  0.12330634865E+02  0.50400000000E-02 0. -1.
         23    2    1    2    0    0  0.00000000000E+00  0.00000000000E+00  0.16550044688E+03  0.19016171565E+03  0.93654045196E+02 0.  0.
    9000005    2    3    3    0    0  0.29205467063E+02  0.10236762655E+02  0.14306051693E+02  0.35832535805E+02  0.11025284176E+02 0.  0.
         22    1    3    3    0    0 -0.29205467063E+02 -0.10236762655E+02  0.15119439518E+03  0.15432917984E+03  0.00000000000E+00 0.  1.
         22    1    4    4    0    0  0.17876020057E+02  0.15932351501E+01  0.11481087752E+02  0.21305066705E+02  0.00000000000E+00 0.  1.
         22    1    4    4    0    0  0.11329447006E+02  0.86435275050E+01  0.28249639408E+01  0.14527469100E+02  0.00000000000E+00 0.  1.
<mgrwt>
<rscale>  0 0.93654045E+02</rscale>
<asrwt>0</asrwt>
<pdfrwt beam="1">  1        1 0.27358627E-01 0.93654045E+02</pdfrwt>
<pdfrwt beam="2">  1       -1 0.18970208E-02 0.93654045E+02</pdfrwt>
<totfact> 0.10769294E+05</totfact>
</mgrwt>
</event>
<event>
 7    1  0.3345055E-009  0.8335053E+02  0.7818608E-02  0.1319803E+00
         -1   -1    0    0    0  501 -0.00000000000E+00  0.00000000000E+00  0.21919073689E+02  0.21919074268E+02  0.50400000000E-02 0.  1.
          1   -1    0    0  501    0  0.00000000000E+00 -0.00000000000E+00 -0.79238183918E+02  0.79238184078E+02  0.50400000000E-02 0. -1.
         23    2    1    2    0    0  0.00000000000E+00  0.00000000000E+00 -0.57319110229E+02  0.10115725835E+03  0.83350528005E+02 0.  0.
    9000005    2    3    3    0    0  0.10811171738E+02 -0.25599509877E+02  0.81681050870E+01  0.30018016643E+02  0.78833395310E+01 0.  0.
         22    1    3    3    0    0 -0.10811171738E+02  0.25599509877E+02 -0.65487215316E+02  0.71139241704E+02  0.00000000000E+00 0. -1.
         22    1    4    4    0    0  0.64639890386E+01 -0.75119330410E+01  0.51621248612E+01  0.11174069330E+02  0.00000000000E+00 0. -1.
         22    1    4    4    0    0  0.43471826998E+01 -0.18087576836E+02  0.30059802258E+01  0.18843947313E+02  0.00000000000E+00 0. -1.
<mgrwt>
<rscale>  0 0.83350528E+02</rscale>
<asrwt>0</asrwt>
<pdfrwt beam="2">  1        1 0.12190490E-01 0.83350528E+02</pdfrwt>
<pdfrwt beam="1">  1       -1 0.33721653E-02 0.83350528E+02</pdfrwt>
<totfact> 0.12848466E+05</totfact>
</mgrwt>
</event>
<event>
 7    1  0.3345055E-009  0.9178946E+02  0.7818608E-02  0.1298575E+00
          1   -1    0    0  501    0  0.00000000000E+00  0.00000000000E+00  0.45068119210E+02  0.45068119492E+02  0.50400000000E-02 0. -1.
         -1   -1    0    0    0  501 -0.00000000000E+00 -0.00000000000E+00 -0.46736502408E+02  0.46736502680E+02  0.50400000000E-02 0.  1.
         23    2    1    2    0    0  0.35527136788E-14  0.00000000000E+00 -0.16683831975E+01  0.91804622172E+02  0.91789460994E+02 0.  0.
    9000005    2    3    3    0    0  0.30159555298E+02 -0.58323801435E+01 -0.33465274222E+02  0.47593111083E+02  0.14197331085E+02 0.  0.
         22    1    3    3    0    0 -0.30159555298E+02  0.58323801435E+01  0.31796891025E+02  0.44211511088E+02  0.00000000000E+00 0. -1.
         22    1    4    4    0    0  0.28405009569E+02 -0.10726525639E+01 -0.30606426845E+02  0.41770186932E+02  0.00000000000E+00 0. -1.
         22    1    4    4    0    0  0.17545457288E+01 -0.47597275796E+01 -0.28588473773E+01  0.58229241514E+01  0.00000000000E+00 0. -1.
<mgrwt>
<rscale>  0 0.91789461E+02</rscale>
<asrwt>0</asrwt>
<pdfrwt beam="1">  1        1 0.69335569E-02 0.91789461E+02</pdfrwt>
<pdfrwt beam="2">  1       -1 0.71902312E-02 0.91789461E+02</pdfrwt>
<totfact> 0.90590256E+04</totfact>
</mgrwt>
</event>
<event>
 7    1  0.3345055E-009  0.9209676E+02  0.7818608E-02  0.1297852E+00
          1   -1    0    0  501    0  0.00000000000E+00  0.00000000000E+00  0.27299023954E+03  0.27299023959E+03  0.50400000000E-02 0. -1.
         -1   -1    0    0    0  501 -0.00000000000E+00 -0.00000000000E+00 -0.77675043276E+01  0.77675059627E+01  0.50400000000E-02 0.  1.
         23    2    1    2    0    0  0.17763568394E-14  0.00000000000E+00  0.26522273522E+03  0.28075774555E+03  0.92096755711E+02 0.  0.
    9000005    2    3    3    0    0  0.14893074549E+02 -0.37590763096E+02  0.19860935878E+03  0.20283335232E+03  0.77988640862E+01 0.  0.
         22    1    3    3    0    0 -0.14893074549E+02  0.37590763096E+02  0.66613376437E+02  0.77924393228E+02  0.00000000000E+00 0.  1.
         22    1    4    4    0    0  0.20159238590E+01 -0.76516988743E+01  0.26127629011E+02  0.27299550223E+02  0.00000000000E+00 0. -1.
         22    1    4    4    0    0  0.12877150690E+02 -0.29939064221E+02  0.17248172977E+03  0.17553380210E+03  0.00000000000E+00 0. -1.
<mgrwt>
<rscale>  0 0.92096756E+02</rscale>
<asrwt>0</asrwt>
<pdfrwt beam="1">  1        1 0.41998492E-01 0.92096756E+02</pdfrwt>
<pdfrwt beam="2">  1       -1 0.11950010E-02 0.92096756E+02</pdfrwt>
<totfact> 0.12248311E+05</totfact>
</mgrwt>
</event>
<event>
 7    1  0.3345055E-009  0.9067839E+02  0.7818608E-02  0.1301217E+00
         -1   -1    0    0    0  501 -0.00000000000E+00  0.00000000000E+00  0.42532360087E+02  0.42532360385E+02  0.50400000000E-02 0.  1.
          1   -1    0    0  501    0  0.00000000000E+00 -0.00000000000E+00 -0.48331264168E+02  0.48331264430E+02  0.50400000000E-02 0. -1.
         23    2    1    2    0    0  0.00000000000E+00  0.00000000000E+00 -0.57989040810E+01  0.90863624816E+02  0.90678393381E+02 0.  0.
    9000005    2    3    3    0    0 -0.23016136009E+02  0.28240176560E+02  0.23231221608E+02  0.44280384412E+02  0.96856955021E+01 0.  0.
         22    1    3    3    0    0  0.23016136009E+02 -0.28240176560E+02 -0.29030125689E+02  0.46583240403E+02  0.00000000000E+00 0. -1.
         22    1    4    4    0    0 -0.12841366555E+02  0.86837198831E+01  0.11551660379E+02  0.19332577260E+02  0.00000000000E+00 0. -1.
         22    1    4    4    0    0 -0.10174769455E+02  0.19556456677E+02  0.11679561229E+02  0.24947807153E+02  0.00000000000E+00 0. -1.
<mgrwt>
<rscale>  0 0.90678393E+02</rscale>
<asrwt>0</asrwt>
<pdfrwt beam="2">  1        1 0.74355792E-02 0.90678393E+02</pdfrwt>
<pdfrwt beam="1">  1       -1 0.65434400E-02 0.90678393E+02</pdfrwt>
<totfact> 0.94728766E+04</totfact>
</mgrwt>
</event>
<event>
 7    1  0.3345055E-009  0.8911640E+02  0.7818608E-02  0.1305006E+00
         -1   -1    0    0    0  501 -0.00000000000E+00  0.00000000000E+00  0.16491826231E+02  0.16491827001E+02  0.50400000000E-02 0.  1.
          1   -1    0    0  501    0  0.00000000000E+00 -0.00000000000E+00 -0.12038893041E+03  0.12038893052E+03  0.50400000000E-02 0. -1.
         23    2    1    2    0    0 -0.22204460493E-15  0.00000000000E+00 -0.10389710418E+03  0.13688075752E+03  0.89116404335E+02 0.  0.
    9000005    2    3    3    0    0  0.68288321862E+00 -0.20303433022E+02 -0.11234570389E+03  0.11487906307E+03  0.12765039260E+02 0.  0.
         22    1    3    3    0    0 -0.68288321862E+00  0.20303433022E+02  0.84485997022E+01  0.22001694455E+02  0.00000000000E+00 0.  1.
         22    1    4    4    0    0  0.44519059082E+01 -0.14599130973E+01 -0.18310548444E+02  0.18900449645E+02  0.00000000000E+00 0.  1.
         22    1    4    4    0    0 -0.37690226896E+01 -0.18843519924E+02 -0.94035155442E+02  0.95978613421E+02  0.00000000000E+00 0.  1.
<mgrwt>
<rscale>  0 0.89116404E+02</rscale>
<asrwt>0</asrwt>
<pdfrwt beam="2">  1        1 0.18521373E-01 0.89116404E+02</pdfrwt>
<pdfrwt beam="1">  1       -1 0.25372042E-02 0.89116404E+02</pdfrwt>
<totfact> 0.11467757E+05</totfact>
</mgrwt>
</event>
<event>
 7    1  0.3345055E-009  0.9758429E+02  0.7818608E-02  0.1285459E+00
          1   -1    0    0  501    0  0.00000000000E+00  0.00000000000E+00  0.13636845247E+03  0.13636845256E+03  0.50400000000E-02 0. -1.
         -1   -1    0    0    0  501 -0.00000000000E+00 -0.00000000000E+00 -0.17457653990E+02  0.17457654718E+02  0.50400000000E-02 0.  1.
         23    2    1    2    0    0 -0.35527136788E-14  0.71054273576E-14  0.11891079848E+03  0.15382610728E+03  0.97584288111E+02 0.  0.
    9000005    2    3    3    0    0 -0.27437883775E+02  0.34216256846E+02  0.30714442061E+02  0.55326427159E+02  0.13930071515E+02 0.  0.
         22    1    3    3    0    0  0.27437883775E+02 -0.34216256846E+02  0.88196356419E+02  0.98499680122E+02  0.00000000000E+00 0. -1.
         22    1    4    4    0    0 -0.26615177774E+02  0.32362155179E+02  0.23946115210E+02  0.48260679745E+02  0.00000000000E+00 0. -1.
         22    1    4    4    0    0 -0.82270600072E+00  0.18541016675E+01  0.67683268509E+01  0.70657474139E+01  0.00000000000E+00 0. -1.
<mgrwt>
<rscale>  0 0.97584288E+02</rscale>
<asrwt>0</asrwt>
<pdfrwt beam="1">  1        1 0.20979762E-01 0.97584288E+02</pdfrwt>
<pdfrwt beam="2">  1       -1 0.26857930E-02 0.97584288E+02</pdfrwt>
<totfact> 0.91638486E+04</totfact>
</mgrwt>
</event>
<event>
 7    1  0.3345055E-009  0.9094285E+02  0.7818608E-02  0.1300584E+00
          1   -1    0    0  501    0  0.00000000000E+00  0.00000000000E+00  0.17034489540E+03  0.17034489548E+03  0.50400000000E-02 0. -1.
         -1   -1    0    0    0  501 -0.00000000000E+00 -0.00000000000E+00 -0.12138023624E+02  0.12138024670E+02  0.50400000000E-02 0.  1.
         23    2    1    2    0    0  0.00000000000E+00  0.00000000000E+00  0.15820687178E+03  0.18248292015E+03  0.90942849458E+02 0.  0.
    9000005    2    3    3    0    0 -0.12437335117E+02 -0.34257115438E+02  0.13315440947E+03  0.13825777876E+03  0.75418408467E+01 0.  0.
         22    1    3    3    0    0  0.12437335117E+02  0.34257115438E+02  0.25052462307E+02  0.44225141386E+02  0.00000000000E+00 0.  1.
         22    1    4    4    0    0 -0.11244646544E+02 -0.24744093708E+02  0.10711475750E+03  0.11050920108E+03  0.00000000000E+00 0.  1.
         22    1    4    4    0    0 -0.11926885728E+01 -0.95130217305E+01  0.26039651973E+02  0.27748577681E+02  0.00000000000E+00 0.  1.
<mgrwt>
<rscale>  0 0.90942849E+02</rscale>
<asrwt>0</asrwt>
<pdfrwt beam="1">  1        1 0.26206907E-01 0.90942849E+02</pdfrwt>
<pdfrwt beam="2">  1       -1 0.18673883E-02 0.90942849E+02</pdfrwt>
<totfact> 0.11561583E+05</totfact>
</mgrwt>
</event>
<event>
 7    1  0.3345055E-009  0.7804059E+02  0.7818608E-02  0.1334706E+00
         -1   -1    0    0    0  501 -0.00000000000E+00  0.00000000000E+00  0.29472195600E+03  0.29472195604E+03  0.50400000000E-02 0.  1.
          1   -1    0    0  501    0  0.00000000000E+00 -0.00000000000E+00 -0.51661682768E+01  0.51661707353E+01  0.50400000000E-02 0. -1.
         23    2    1    2    0    0 -0.35527136788E-14  0.35527136788E-14  0.28955578772E+03  0.29988812678E+03  0.78040594428E+02 0.  0.
    9000005    2    3    3    0    0 -0.20789814681E+02  0.23281187176E+02  0.23010091136E+03  0.23273820203E+03  0.15697490347E+02 0.  0.
         22    1    3    3    0    0  0.20789814681E+02 -0.23281187176E+02  0.59454876363E+02  0.67149924751E+02  0.00000000000E+00 0. -1.
         22    1    4    4    0    0 -0.71974003423E+01  0.18927837229E+02  0.11688031529E+03  0.11862155662E+03  0.00000000000E+00 0. -1.
         22    1    4    4    0    0 -0.13592414338E+02  0.43533499471E+01  0.11322059607E+03  0.11411664541E+03  0.00000000000E+00 0. -1.
<mgrwt>
<rscale>  0 0.78040594E+02</rscale>
<asrwt>0</asrwt>
<pdfrwt beam="2">  1        1 0.79479528E-03 0.78040594E+02</pdfrwt>
<pdfrwt beam="1">  1       -1 0.45341841E-01 0.78040594E+02</pdfrwt>
<totfact> 0.91416934E+04</totfact>
</mgrwt>
</event>
<event>
 7    1  0.3506571E-009  0.9086475E+02  0.7818608E-02  0.1300771E+00
         -1   -1    0    0    0  501 -0.00000000000E+00  0.00000000000E+00  0.54314710368E+02  0.54314710602E+02  0.50400000000E-02 0.  1.
          1   -1    0    0  501    0  0.00000000000E+00 -0.00000000000E+00 -0.38002606038E+02  0.38002606372E+02  0.50400000000E-02 0. -1.
         23    2    1    2    0    0  0.00000000000E+00  0.00000000000E+00  0.16312104330E+02  0.92317316974E+02  0.90864747100E+02 0.  0.
    9000005    2    3    3    0    0 -0.75998157340E+01  0.38068617267E+02  0.29548274472E+02  0.51303014349E+02  0.15872048930E+02 0.  0.
         22    1    3    3    0    0  0.75998157340E+01 -0.38068617267E+02 -0.13236170142E+02  0.41014302625E+02  0.00000000000E+00 0. -1.
         22    1    4    4    0    0 -0.14528825462E+01  0.19074991847E+02  0.52148339155E+01  0.19828279663E+02  0.00000000000E+00 0. -1.
         22    1    4    4    0    0 -0.61469331878E+01  0.18993625420E+02  0.24333440556E+02  0.31474734685E+02  0.00000000000E+00 0. -1.
<mgrwt>
<rscale>  0 0.90864747E+02</rscale>
<asrwt>0</asrwt>
<pdfrwt beam="2">  1        1 0.58465549E-02 0.90864747E+02</pdfrwt>
<pdfrwt beam="1">  1       -1 0.83561093E-02 0.90864747E+02</pdfrwt>
<totfact> 0.90835684E+04</totfact>
</mgrwt>
</event>
<event>
 7    1  0.3345055E-009  0.9402220E+02  0.7818608E-02  0.1293394E+00
         -1   -1    0    0    0  501 -0.00000000000E+00  0.00000000000E+00  0.15598063568E+03  0.15598063576E+03  0.50400000000E-02 0.  1.
          1   -1    0    0  501    0  0.00000000000E+00 -0.00000000000E+00 -0.14168702856E+02  0.14168703752E+02  0.50400000000E-02 0. -1.
         23    2    1    2    0    0 -0.71054273576E-14  0.00000000000E+00  0.14181193283E+03  0.17014933952E+03  0.94022196559E+02 0.  0.
    9000005    2    3    3    0    0  0.36937702967E+02  0.13358561984E+02  0.28791245802E+02  0.50497675198E+02  0.13350441446E+02 0.  0.
         22    1    3    3    0    0 -0.36937702967E+02 -0.13358561984E+02  0.11302068702E+03  0.11965166432E+03  0.00000000000E+00 0.  1.
         22    1    4    4    0    0  0.20178288314E+02  0.28055188704E+00  0.15228524217E+02  0.25281415674E+02  0.00000000000E+00 0.  1.
         22    1    4    4    0    0  0.16759414653E+02  0.13078010097E+02  0.13562721585E+02  0.25216259524E+02  0.00000000000E+00 0.  1.
<mgrwt>
<rscale>  0 0.94022197E+02</rscale>
<asrwt>0</asrwt>
<pdfrwt beam="2">  1        1 0.21798006E-02 0.94022197E+02</pdfrwt>
<pdfrwt beam="1">  1       -1 0.23997020E-01 0.94022197E+02</pdfrwt>
<totfact> 0.68405793E+04</totfact>
</mgrwt>
</event>
<event>
 7    1  0.3345055E-009  0.9085664E+02  0.7818608E-02  0.1300790E+00
          1   -1    0    0  501    0  0.00000000000E+00  0.00000000000E+00  0.47738627005E+02  0.47738627271E+02  0.50400000000E-02 0. -1.
         -1   -1    0    0    0  501 -0.00000000000E+00 -0.00000000000E+00 -0.43229819436E+02  0.43229819729E+02  0.50400000000E-02 0.  1.
         23    2    1    2    0    0 -0.71054273576E-14  0.00000000000E+00  0.45088075695E+01  0.90968447001E+02  0.90856639845E+02 0.  0.
    9000005    2    3    3    0    0 -0.40437411915E+02 -0.91748108056E+01  0.19564083497E+02  0.46854698929E+02  0.96565010711E+01 0.  0.
         22    1    3    3    0    0  0.40437411915E+02  0.91748108056E+01 -0.15055275928E+02  0.44113748072E+02  0.00000000000E+00 0. -1.
         22    1    4    4    0    0 -0.26614758791E+02 -0.97686411986E+01  0.10118319330E+02  0.30102360745E+02  0.00000000000E+00 0.  1.
         22    1    4    4    0    0 -0.13822653124E+02  0.59383039297E+00  0.94457641670E+01  0.16752338184E+02  0.00000000000E+00 0.  1.
<mgrwt>
<rscale>  0 0.90856640E+02</rscale>
<asrwt>0</asrwt>
<pdfrwt beam="1">  1        1 0.73444042E-02 0.90856640E+02</pdfrwt>
<pdfrwt beam="2">  1       -1 0.66507415E-02 0.90856640E+02</pdfrwt>
<totfact> 0.94036519E+04</totfact>
</mgrwt>
</event>
<event>
 7    1  0.3345055E-009  0.9068052E+02  0.7818608E-02  0.1301212E+00
         -1   -1    0    0    0  501 -0.00000000000E+00  0.00000000000E+00  0.12502220651E+02  0.12502221667E+02  0.50400000000E-02 0.  1.
          1   -1    0    0  501    0  0.00000000000E+00 -0.00000000000E+00 -0.16442990124E+03  0.16442990132E+03  0.50400000000E-02 0. -1.
         23    2    1    2    0    0  0.00000000000E+00  0.35527136788E-14 -0.15192768059E+03  0.17693212299E+03  0.90680516179E+02 0.  0.
    9000005    2    3    3    0    0  0.30715176129E+02 -0.30657991277E+02 -0.94478770227E+02  0.10493412457E+03  0.14198521123E+02 0.  0.
         22    1    3    3    0    0 -0.30715176129E+02  0.30657991277E+02 -0.57448910363E+02  0.71997998414E+02  0.00000000000E+00 0. -1.
         22    1    4    4    0    0  0.14948362409E+02 -0.23525642272E+02 -0.65461425398E+02  0.71148489781E+02  0.00000000000E+00 0. -1.
         22    1    4    4    0    0  0.15766813720E+02 -0.71323490048E+01 -0.29017344829E+02  0.33785634790E+02  0.00000000000E+00 0. -1.
<mgrwt>
<rscale>  0 0.90680516E+02</rscale>
<asrwt>0</asrwt>
<pdfrwt beam="2">  1        1 0.25296906E-01 0.90680516E+02</pdfrwt>
<pdfrwt beam="1">  1       -1 0.19234188E-02 0.90680516E+02</pdfrwt>
<totfact> 0.11574727E+05</totfact>
</mgrwt>
</event>
<event>
 7    1  0.3345055E-009  0.9236070E+02  0.7818608E-02  0.1297234E+00
          1   -1    0    0  501    0  0.00000000000E+00  0.00000000000E+00  0.35835732962E+01  0.35835768403E+01  0.50400000000E-02 0. -1.
         -1   -1    0    0    0  501 -0.00000000000E+00 -0.00000000000E+00 -0.59511090728E+03  0.59511090730E+03  0.50400000000E-02 0.  1.
         23    2    1    2    0    0  0.00000000000E+00  0.00000000000E+00 -0.59152733398E+03  0.59869448414E+03  0.92360697765E+02 0.  0.
    9000005    2    3    3    0    0 -0.19347204214E+02  0.36772492661E+02 -0.42091478727E+03  0.42309502053E+03  0.10658692239E+02 0.  0.
         22    1    3    3    0    0  0.19347204214E+02 -0.36772492661E+02 -0.17061254671E+03  0.17559946361E+03  0.00000000000E+00 0. -1.
         22    1    4    4    0    0 -0.16199620257E+02  0.24865333817E+02 -0.33333861249E+03  0.33465705296E+03  0.00000000000E+00 0.  1.
         22    1    4    4    0    0 -0.31475839570E+01  0.11907158843E+02 -0.87576174786E+02  0.88437967563E+02  0.00000000000E+00 0.  1.
<mgrwt>
<rscale>  0 0.92360698E+02</rscale>
<asrwt>0</asrwt>
<pdfrwt beam="1">  1        1 0.55131972E-03 0.92360698E+02</pdfrwt>
<pdfrwt beam="2">  1       -1 0.91555446E-01 0.92360698E+02</pdfrwt>
<totfact> 0.40469423E+04</totfact>
</mgrwt>
</event>
<event>
 7    1  0.3345055E-009  0.9227732E+02  0.7818608E-02  0.1297429E+00
         -1   -1    0    0    0  501 -0.00000000000E+00  0.00000000000E+00  0.39834834182E+03  0.39834834185E+03  0.50400000000E-02 0.  1.
          1   -1    0    0  501    0  0.00000000000E+00 -0.00000000000E+00 -0.53440045126E+01  0.53440068892E+01  0.50400000000E-02 0. -1.
         23    2    1    2    0    0  0.00000000000E+00  0.17763568394E-14  0.39300433731E+03  0.40369234874E+03  0.92277317308E+02 0.  0.
    9000005    2    3    3    0    0  0.14868678263E+02  0.13919153898E+02  0.37675294387E+03  0.37763609753E+03  0.15856260703E+02 0.  0.
         22    1    3    3    0    0 -0.14868678263E+02 -0.13919153898E+02  0.16251393434E+02  0.26056251209E+02  0.00000000000E+00 0. -1.
         22    1    4    4    0    0  0.18715611952E+01 -0.27909087350E+01  0.22323200246E+02  0.22574702260E+02  0.00000000000E+00 0.  1.
         22    1    4    4    0    0  0.12997117067E+02  0.16710062633E+02  0.35442974363E+03  0.35506139527E+03  0.00000000000E+00 0.  1.
<mgrwt>
<rscale>  0 0.92277317E+02</rscale>
<asrwt>0</asrwt>
<pdfrwt beam="2">  1        1 0.82215472E-03 0.92277317E+02</pdfrwt>
<pdfrwt beam="1">  1       -1 0.61284361E-01 0.92277317E+02</pdfrwt>
<totfact> 0.51747098E+04</totfact>
</mgrwt>
</event>
<event>
 7    1  0.3345055E-009  0.9037062E+02  0.7818608E-02  0.1301957E+00
         -1   -1    0    0    0  501 -0.00000000000E+00  0.00000000000E+00  0.53878878179E+02  0.53878878415E+02  0.50400000000E-02 0.  1.
          1   -1    0    0  501    0  0.00000000000E+00 -0.00000000000E+00 -0.37894478506E+02  0.37894478841E+02  0.50400000000E-02 0. -1.
         23    2    1    2    0    0  0.00000000000E+00  0.00000000000E+00  0.15984399673E+02  0.91773357256E+02  0.90370615076E+02 0.  0.
    9000005    2    3    3    0    0  0.32758528482E+02 -0.28278482478E+02  0.19209263097E+02  0.48377579770E+02  0.99297873150E+01 0.  0.
         22    1    3    3    0    0 -0.32758528482E+02  0.28278482478E+02 -0.32248634241E+01  0.43395777486E+02  0.00000000000E+00 0. -1.
         22    1    4    4    0    0  0.27980291072E+02 -0.20138686390E+02  0.12008154333E+02  0.36505604343E+02  0.00000000000E+00 0. -1.
         22    1    4    4    0    0  0.47782374099E+01 -0.81397960880E+01  0.72011087644E+01  0.11871975427E+02  0.00000000000E+00 0. -1.
<mgrwt>
<rscale>  0 0.90370615E+02</rscale>
<asrwt>0</asrwt>
<pdfrwt beam="2">  1        1 0.58299198E-02 0.90370615E+02</pdfrwt>
<pdfrwt beam="1">  1       -1 0.82890582E-02 0.90370615E+02</pdfrwt>
<totfact> 0.92206562E+04</totfact>
</mgrwt>
</event>
<event>
 7    1  0.3345055E-009  0.9661909E+02  0.7818608E-02  0.1287571E+00
         -1   -1    0    0    0  501 -0.00000000000E+00  0.00000000000E+00  0.11797728545E+03  0.11797728556E+03  0.50400000000E-02 0.  1.
          1   -1    0    0  501    0  0.00000000000E+00 -0.00000000000E+00 -0.19781876562E+02  0.19781877204E+02  0.50400000000E-02 0. -1.
         23    2    1    2    0    0  0.17763568394E-14 -0.71054273576E-14  0.98195408893E+02  0.13775916277E+03  0.96619090238E+02 0.  0.
    9000005    2    3    3    0    0  0.11754708315E+02 -0.44042440170E+02  0.67844711050E+02  0.82995355710E+02  0.14401893911E+02 0.  0.
         22    1    3    3    0    0 -0.11754708315E+02  0.44042440170E+02  0.30350697843E+02  0.54763807056E+02  0.00000000000E+00 0. -1.
         22    1    4    4    0    0  0.16269070633E+01 -0.25970989394E+02  0.28937702498E+02  0.38916959575E+02  0.00000000000E+00 0. -1.
         22    1    4    4    0    0  0.10127801252E+02 -0.18071450776E+02  0.38907008552E+02  0.44078396135E+02  0.00000000000E+00 0. -1.
<mgrwt>
<rscale>  0 0.96619090E+02</rscale>
<asrwt>0</asrwt>
<pdfrwt beam="2">  1        1 0.30433657E-02 0.96619090E+02</pdfrwt>
<pdfrwt beam="1">  1       -1 0.18150352E-01 0.96619090E+02</pdfrwt>
<totfact> 0.67818571E+04</totfact>
</mgrwt>
</event>
<event>
 7    1  0.3345055E-009  0.8882748E+02  0.7818608E-02  0.1305716E+00
         -1   -1    0    0    0  501 -0.00000000000E+00  0.00000000000E+00  0.23239476817E+02  0.23239477364E+02  0.50400000000E-02 0.  1.
          1   -1    0    0  501    0  0.00000000000E+00 -0.00000000000E+00 -0.84880588745E+02  0.84880588895E+02  0.50400000000E-02 0. -1.
         23    2    1    2    0    0  0.00000000000E+00  0.00000000000E+00 -0.61641111928E+02  0.10812006626E+03  0.88827484756E+02 0.  0.
    9000005    2    3    3    0    0  0.34125527013E+02 -0.17853589973E+01 -0.64921476172E+02  0.73790780070E+02  0.79083534514E+01 0.  0.
         22    1    3    3    0    0 -0.34125527013E+02  0.17853589973E+01  0.32803642435E+01  0.34329286189E+02  0.00000000000E+00 0.  1.
         22    1    4    4    0    0  0.27934419403E+02  0.55437739921E+00 -0.46890678699E+02  0.54583650213E+02  0.00000000000E+00 0. -1.
         22    1    4    4    0    0  0.61911076102E+01 -0.23397363965E+01 -0.18030797473E+02  0.19207129857E+02  0.00000000000E+00 0. -1.
<mgrwt>
<rscale>  0 0.88827485E+02</rscale>
<asrwt>0</asrwt>
<pdfrwt beam="2">  1        1 0.13058552E-01 0.88827485E+02</pdfrwt>
<pdfrwt beam="1">  1       -1 0.35753042E-02 0.88827485E+02</pdfrwt>
<totfact> 0.10921544E+05</totfact>
</mgrwt>
</event>
<event>
 7    1  0.3345055E-009  0.8804534E+02  0.7818608E-02  0.1307655E+00
          1   -1    0    0  501    0  0.00000000000E+00  0.00000000000E+00  0.78738676192E+01  0.78738692322E+01  0.50400000000E-02 0. -1.
         -1   -1    0    0    0  501 -0.00000000000E+00 -0.00000000000E+00 -0.24613000790E+03  0.24613000795E+03  0.50400000000E-02 0.  1.
         23    2    1    2    0    0  0.00000000000E+00  0.00000000000E+00 -0.23825614028E+03  0.25400387718E+03  0.88045336293E+02 0.  0.
    9000005    2    3    3    0    0  0.18509351065E+02 -0.38984476799E+02 -0.13815275655E+03  0.14499436869E+03  0.86485432742E+01 0.  0.
         22    1    3    3    0    0 -0.18509351065E+02  0.38984476799E+02 -0.10010338373E+03  0.10900950850E+03  0.00000000000E+00 0. -1.
         22    1    4    4    0    0  0.36392362376E+01 -0.17090729434E+02 -0.50890181726E+02  0.53806576449E+02  0.00000000000E+00 0.  1.
         22    1    4    4    0    0  0.14870114827E+02 -0.21893747365E+02 -0.87262574824E+02  0.91187792240E+02  0.00000000000E+00 0.  1.
<mgrwt>
<rscale>  0 0.88045336E+02</rscale>
<asrwt>0</asrwt>
<pdfrwt beam="1">  1        1 0.12113646E-02 0.88045336E+02</pdfrwt>
<pdfrwt beam="2">  1       -1 0.37866149E-01 0.88045336E+02</pdfrwt>
<totfact> 0.71314801E+04</totfact>
</mgrwt>
</event>
<event>
 7    1  0.3345055E-009  0.9056662E+02  0.7818608E-02  0.1301485E+00
          1   -1    0    0  501    0  0.00000000000E+00  0.00000000000E+00  0.11904552713E+02  0.11904553779E+02  0.50400000000E-02 0. -1.
         -1   -1    0    0    0  501 -0.00000000000E+00 -0.00000000000E+00 -0.17225156956E+03  0.17225156964E+03  0.50400000000E-02 0.  1.
         23    2    1    2    0    0  0.35527136788E-14  0.00000000000E+00 -0.16034701685E+03  0.18415612342E+03  0.90566616249E+02 0.  0.
    9000005    2    3    3    0    0  0.24773765665E+02  0.29110528220E+02 -0.12855545698E+03  0.13443826347E+03  0.92724779566E+01 0.  0.
         22    1    3    3    0    0 -0.24773765665E+02 -0.29110528220E+02 -0.31791559870E+02  0.49717859945E+02  0.00000000000E+00 0.  1.
         22    1    4    4    0    0  0.75920358183E+01  0.36304935979E+01 -0.22598455409E+02  0.24114511783E+02  0.00000000000E+00 0. -1.
         22    1    4    4    0    0  0.17181729847E+02  0.25480034622E+02 -0.10595700157E+03  0.11032375169E+03  0.00000000000E+00 0. -1.
<mgrwt>
<rscale>  0 0.90566616E+02</rscale>
<asrwt>0</asrwt>
<pdfrwt beam="1">  1        1 0.18314699E-02 0.90566616E+02</pdfrwt>
<pdfrwt beam="2">  1       -1 0.26500240E-01 0.90566616E+02</pdfrwt>
<totfact> 0.73567486E+04</totfact>
</mgrwt>
</event>
<event>
 7    1  0.3345055E-009  0.8975848E+02  0.7818608E-02  0.1303438E+00
          1   -1    0    0  501    0  0.00000000000E+00  0.00000000000E+00  0.56593399178E+02  0.56593399402E+02  0.50400000000E-02 0. -1.
         -1   -1    0    0    0  501 -0.00000000000E+00 -0.00000000000E+00 -0.35589771984E+02  0.35589772341E+02  0.50400000000E-02 0.  1.
         23    2    1    2    0    0 -0.35527136788E-14 -0.17763568394E-14  0.21003627194E+02  0.92183171743E+02  0.89758480364E+02 0.  0.
    9000005    2    3    3    0    0  0.23798324284E+02  0.15497169369E+02 -0.24771470799E+02  0.38314051707E+02  0.69150774009E+01 0.  0.
         22    1    3    3    0    0 -0.23798324284E+02 -0.15497169369E+02  0.45775097993E+02  0.53869120036E+02  0.00000000000E+00 0. -1.
         22    1    4    4    0    0  0.21334815753E+02  0.14754824476E+02 -0.24576893801E+02  0.35733778382E+02  0.00000000000E+00 0. -1.
         22    1    4    4    0    0  0.24635085312E+01  0.74234489315E+00 -0.19457699783E+00  0.25802733250E+01  0.00000000000E+00 0. -1.
<mgrwt>
<rscale>  0 0.89758480E+02</rscale>
<asrwt>0</asrwt>
<pdfrwt beam="1">  1        1 0.87066768E-02 0.89758480E+02</pdfrwt>
<pdfrwt beam="2">  1       -1 0.54753496E-02 0.89758480E+02</pdfrwt>
<totfact> 0.99772043E+04</totfact>
</mgrwt>
</event>
<event>
 7    1  0.3345055E-009  0.9046903E+02  0.7818608E-02  0.1301720E+00
         -1   -1    0    0    0  501 -0.00000000000E+00  0.00000000000E+00  0.21512928847E+03  0.21512928853E+03  0.50400000000E-02 0.  1.
          1   -1    0    0  501    0  0.00000000000E+00 -0.00000000000E+00 -0.95113093637E+01  0.95113106990E+01  0.50400000000E-02 0. -1.
         23    2    1    2    0    0  0.00000000000E+00  0.00000000000E+00  0.20561797911E+03  0.22464059923E+03  0.90469030556E+02 0.  0.
    9000005    2    3    3    0    0 -0.87946148907E+01  0.27052448303E+02  0.18952738579E+03  0.19195899273E+03  0.10883230856E+02 0.  0.
         22    1    3    3    0    0  0.87946148907E+01 -0.27052448303E+02  0.16090593316E+02  0.32681606501E+02  0.00000000000E+00 0. -1.
         22    1    4    4    0    0 -0.61544604840E+00  0.17576784055E+02  0.96011288899E+02  0.97608860805E+02  0.00000000000E+00 0.  1.
         22    1    4    4    0    0 -0.81791688423E+01  0.94756642477E+01  0.93516096892E+02  0.94350131922E+02  0.00000000000E+00 0.  1.
<mgrwt>
<rscale>  0 0.90469031E+02</rscale>
<asrwt>0</asrwt>
<pdfrwt beam="2">  1        1 0.14632785E-02 0.90469031E+02</pdfrwt>
<pdfrwt beam="1">  1       -1 0.33096813E-01 0.90469031E+02</pdfrwt>
<totfact> 0.69346751E+04</totfact>
</mgrwt>
</event>
<event>
 7    1  0.3345055E-009  0.9141566E+02  0.7818608E-02  0.1299459E+00
         -1   -1    0    0    0  501 -0.00000000000E+00  0.00000000000E+00  0.14352188701E+02  0.14352189586E+02  0.50400000000E-02 0.  1.
          1   -1    0    0  501    0  0.00000000000E+00 -0.00000000000E+00 -0.14556702729E+03  0.14556702738E+03  0.50400000000E-02 0. -1.
         23    2    1    2    0    0  0.00000000000E+00  0.00000000000E+00 -0.13121483859E+03  0.15991921697E+03  0.91415655598E+02 0.  0.
    9000005    2    3    3    0    0 -0.32013666079E+02  0.32310915617E+02 -0.66787560794E+02  0.81053862036E+02  0.63466676542E+01 0.  0.
         22    1    3    3    0    0  0.32013666079E+02 -0.32310915617E+02 -0.64427277798E+02  0.78865354930E+02  0.00000000000E+00 0. -1.
         22    1    4    4    0    0 -0.16769623271E+01  0.10425652594E+01 -0.56237120880E+01  0.59603089362E+01  0.00000000000E+00 0.  1.
         22    1    4    4    0    0 -0.30336703752E+02  0.31268350358E+02 -0.61163848706E+02  0.75093553100E+02  0.00000000000E+00 0.  1.
<mgrwt>
<rscale>  0 0.91415656E+02</rscale>
<asrwt>0</asrwt>
<pdfrwt beam="2">  1        1 0.22394926E-01 0.91415656E+02</pdfrwt>
<pdfrwt beam="1">  1       -1 0.22080292E-02 0.91415656E+02</pdfrwt>
<totfact> 0.11073243E+05</totfact>
</mgrwt>
</event>
<event>
 7    1  0.3345055E-009  0.9171764E+02  0.7818608E-02  0.1298745E+00
          1   -1    0    0  501    0  0.00000000000E+00  0.00000000000E+00  0.29630643574E+02  0.29630644003E+02  0.50400000000E-02 0. -1.
         -1   -1    0    0    0  501 -0.00000000000E+00 -0.00000000000E+00 -0.70974881158E+02  0.70974881337E+02  0.50400000000E-02 0.  1.
         23    2    1    2    0    0  0.35527136788E-14 -0.71054273576E-14 -0.41344237584E+02  0.10060552534E+03  0.91717641419E+02 0.  0.
    9000005    2    3    3    0    0 -0.25555131607E+02  0.36372736306E+02 -0.31785790017E+02  0.55136804028E+02  0.73273469652E+01 0.  0.
         22    1    3    3    0    0  0.25555131607E+02 -0.36372736306E+02 -0.95584475665E+01  0.45468721312E+02  0.00000000000E+00 0. -1.
         22    1    4    4    0    0 -0.21101918888E+02  0.27405254752E+02 -0.21210378965E+02  0.40573626220E+02  0.00000000000E+00 0. -1.
         22    1    4    4    0    0 -0.44532127185E+01  0.89674815537E+01 -0.10575411053E+02  0.14563177808E+02  0.00000000000E+00 0. -1.
<mgrwt>
<rscale>  0 0.91717641E+02</rscale>
<asrwt>0</asrwt>
<pdfrwt beam="1">  1        1 0.45585606E-02 0.91717641E+02</pdfrwt>
<pdfrwt beam="2">  1       -1 0.10919212E-01 0.91717641E+02</pdfrwt>
<totfact> 0.85051461E+04</totfact>
</mgrwt>
</event>
<event>
 7    1  0.3345055E-009  0.9045425E+02  0.7818608E-02  0.1301755E+00
         -1   -1    0    0    0  501 -0.00000000000E+00  0.00000000000E+00  0.22849417423E+02  0.22849417979E+02  0.50400000000E-02 0.  1.
          1   -1    0    0  501    0  0.00000000000E+00 -0.00000000000E+00 -0.89520559375E+02  0.89520559517E+02  0.50400000000E-02 0. -1.
         23    2    1    2    0    0  0.00000000000E+00  0.00000000000E+00 -0.66671141952E+02  0.11236997750E+03  0.90454246297E+02 0.  0.
    9000005    2    3    3    0    0  0.26788345261E+02  0.33190092924E+02 -0.48175019011E+02  0.65880147705E+02  0.14147921922E+02 0.  0.
         22    1    3    3    0    0 -0.26788345261E+02 -0.33190092924E+02 -0.18496122941E+02  0.46489829791E+02  0.00000000000E+00 0. -1.
         22    1    4    4    0    0  0.14433506788E+01  0.82493974580E+00  0.87761439679E+00  0.18798919638E+01  0.00000000000E+00 0. -1.
         22    1    4    4    0    0  0.25344994583E+02  0.32365153178E+02 -0.49052633408E+02  0.64000255741E+02  0.00000000000E+00 0. -1.
<mgrwt>
<rscale>  0 0.90454246E+02</rscale>
<asrwt>0</asrwt>
<pdfrwt beam="2">  1        1 0.13772394E-01 0.90454246E+02</pdfrwt>
<pdfrwt beam="1">  1       -1 0.35152951E-02 0.90454246E+02</pdfrwt>
<totfact> 0.10482560E+05</totfact>
</mgrwt>
</event>
<event>
 7    1  0.3345055E-009  0.9103367E+02  0.7818608E-02  0.1300368E+00
         -1   -1    0    0    0  501 -0.00000000000E+00  0.00000000000E+00  0.14968968954E+02  0.14968969802E+02  0.50400000000E-02 0.  1.
          1   -1    0    0  501    0  0.00000000000E+00 -0.00000000000E+00 -0.13840513593E+03  0.13840513602E+03  0.50400000000E-02 0. -1.
         23    2    1    2    0    0  0.17763568394E-14 -0.71054273576E-14 -0.12343616697E+03  0.15337410582E+03  0.91033669702E+02 0.  0.
    9000005    2    3    3    0    0 -0.93031766555E+01  0.32143568049E+02 -0.11315331458E+03  0.11836703345E+03  0.93447281613E+01 0.  0.
         22    1    3    3    0    0  0.93031766555E+01 -0.32143568049E+02 -0.10282852395E+02  0.35007072373E+02  0.00000000000E+00 0.  1.
         22    1    4    4    0    0 -0.87230505776E+01  0.14686623475E+02 -0.62209845546E+02  0.64512428286E+02  0.00000000000E+00 0. -1.
         22    1    4    4    0    0 -0.58012607790E+00  0.17456944573E+02 -0.50943469030E+02  0.53854605160E+02  0.00000000000E+00 0. -1.
<mgrwt>
<rscale>  0 0.91033670E+02</rscale>
<asrwt>0</asrwt>
<pdfrwt beam="2">  1        1 0.21293097E-01 0.91033670E+02</pdfrwt>
<pdfrwt beam="1">  1       -1 0.23029185E-02 0.91033670E+02</pdfrwt>
<totfact> 0.11097160E+05</totfact>
</mgrwt>
</event>
<event>
 7    1  0.3345055E-009  0.9149524E+02  0.7818608E-02  0.1299271E+00
         -1   -1    0    0    0  501 -0.00000000000E+00  0.00000000000E+00  0.18538202824E+03  0.18538202830E+03  0.50400000000E-02 0.  1.
          1   -1    0    0  501    0  0.00000000000E+00 -0.00000000000E+00 -0.11289362029E+02  0.11289363154E+02  0.50400000000E-02 0. -1.
         23    2    1    2    0    0  0.35527136788E-14  0.00000000000E+00  0.17409266621E+03  0.19667139146E+03  0.91495244635E+02 0.  0.
    9000005    2    3    3    0    0 -0.28140474050E+02  0.28053698041E+02  0.13492645133E+03  0.14087812447E+03  0.79121698778E+01 0.  0.
         22    1    3    3    0    0  0.28140474050E+02 -0.28053698041E+02  0.39166214883E+02  0.55793266993E+02  0.00000000000E+00 0. -1.
         22    1    4    4    0    0 -0.99784396065E+01  0.51952558010E+01  0.33917911123E+02  0.35734921782E+02  0.00000000000E+00 0. -1.
         22    1    4    4    0    0 -0.18162034444E+02  0.22858442240E+02  0.10100854020E+03  0.10514320268E+03  0.00000000000E+00 0. -1.
<mgrwt>
<rscale>  0 0.91495245E+02</rscale>
<asrwt>0</asrwt>
<pdfrwt beam="2">  1        1 0.17368251E-02 0.91495245E+02</pdfrwt>
<pdfrwt beam="1">  1       -1 0.28520310E-01 0.91495245E+02</pdfrwt>
<totfact> 0.70265889E+04</totfact>
</mgrwt>
</event>
<event>
 7    1  0.3345055E-009  0.9099268E+02  0.7818608E-02  0.1300465E+00
          1   -1    0    0  501    0  0.00000000000E+00  0.00000000000E+00  0.71975187294E+01  0.71975204940E+01  0.50400000000E-02 0. -1.
         -1   -1    0    0    0  501 -0.00000000000E+00 -0.00000000000E+00 -0.28758753688E+03  0.28758753693E+03  0.50400000000E-02 0.  1.
         23    2    1    2    0    0  0.00000000000E+00  0.00000000000E+00 -0.28039001815E+03  0.29478505742E+03  0.90992679918E+02 0.  0.
    9000005    2    3    3    0    0  0.43699836747E+02  0.43789716112E+01 -0.12269874683E+03  0.13109208819E+03  0.14188093190E+02 0.  0.
         22    1    3    3    0    0 -0.43699836747E+02 -0.43789716112E+01 -0.15769127132E+03  0.16369296923E+03  0.00000000000E+00 0.  1.
         22    1    4    4    0    0  0.51814986540E+01  0.66913944549E+00 -0.51432467969E+01  0.73313480010E+01  0.00000000000E+00 0. -1.
         22    1    4    4    0    0  0.38518338093E+02  0.37098321657E+01 -0.11755550004E+03  0.12376074019E+03  0.00000000000E+00 0. -1.
<mgrwt>
<rscale>  0 0.90992680E+02</rscale>
<asrwt>0</asrwt>
<pdfrwt beam="1">  1        1 0.11073109E-02 0.90992680E+02</pdfrwt>
<pdfrwt beam="2">  1       -1 0.44244228E-01 0.90992680E+02</pdfrwt>
<totfact> 0.61911674E+04</totfact>
</mgrwt>
</event>
<event>
 7    1  0.3345055E-009  0.9219125E+02  0.7818608E-02  0.1297630E+00
         -1   -1    0    0    0  501 -0.00000000000E+00  0.00000000000E+00  0.20203453157E+03  0.20203453163E+03  0.50400000000E-02 0.  1.
          1   -1    0    0  501    0  0.00000000000E+00 -0.00000000000E+00 -0.10517046902E+02  0.10517048110E+02  0.50400000000E-02 0. -1.
         23    2    1    2    0    0  0.00000000000E+00  0.00000000000E+00  0.19151748467E+03  0.21255157974E+03  0.92191252935E+02 0.  0.
    9000005    2    3    3    0    0  0.16327848228E+02  0.30270085869E+01  0.19452229218E+03  0.19567584933E+03  0.13204334475E+02 0.  0.
         22    1    3    3    0    0 -0.16327848228E+02 -0.30270085869E+01 -0.30048075095E+01  0.16875730411E+02  0.00000000000E+00 0. -1.
         22    1    4    4    0    0  0.40966480610E+00 -0.53280891077E+00  0.79490984834E+02  0.79493826053E+02  0.00000000000E+00 0.  1.
         22    1    4    4    0    0  0.15918183422E+02  0.35598174977E+01  0.11503130734E+03  0.11618202328E+03  0.00000000000E+00 0.  1.
<mgrwt>
<rscale>  0 0.92191253E+02</rscale>
<asrwt>0</asrwt>
<pdfrwt beam="2">  1        1 0.16180073E-02 0.92191253E+02</pdfrwt>
<pdfrwt beam="1">  1       -1 0.31082237E-01 0.92191253E+02</pdfrwt>
<totfact> 0.67253613E+04</totfact>
</mgrwt>
</event>
<event>
 7    1  0.3345055E-009  0.9131030E+02  0.7818608E-02  0.1299709E+00
         -1   -1    0    0    0  501 -0.00000000000E+00  0.00000000000E+00  0.17668470817E+03  0.17668470824E+03  0.50400000000E-02 0.  1.
          1   -1    0    0  501    0  0.00000000000E+00 -0.00000000000E+00 -0.11797243101E+02  0.11797244178E+02  0.50400000000E-02 0. -1.
         23    2    1    2    0    0 -0.17763568394E-14  0.00000000000E+00  0.16488746507E+03  0.18848195242E+03  0.91310296522E+02 0.  0.
    9000005    2    3    3    0    0 -0.82102948666E+01 -0.24965759354E+02  0.15877862989E+03  0.16150018174E+03  0.13452037388E+02 0.  0.
         22    1    3    3    0    0  0.82102948666E+01  0.24965759354E+02  0.61088351811E+01  0.26981770683E+02  0.00000000000E+00 0. -1.
         22    1    4    4    0    0  0.15440235000E+00 -0.38488571422E+01  0.60859972455E+02  0.60981749635E+02  0.00000000000E+00 0.  1.
         22    1    4    4    0    0 -0.83646972166E+01 -0.21116902212E+02  0.97918657432E+02  0.10051843210E+03  0.00000000000E+00 0.  1.
<mgrwt>
<rscale>  0 0.91310297E+02</rscale>
<asrwt>0</asrwt>
<pdfrwt beam="2">  1        1 0.18149607E-02 0.91310297E+02</pdfrwt>
<pdfrwt beam="1">  1       -1 0.27182260E-01 0.91310297E+02</pdfrwt>
<totfact> 0.71547436E+04</totfact>
</mgrwt>
</event>
<event>
 7    1  0.3345055E-009  0.9197144E+02  0.7818608E-02  0.1298147E+00
         -1   -1    0    0    0  501 -0.00000000000E+00  0.00000000000E+00  0.14655526966E+02  0.14655527833E+02  0.50400000000E-02 0.  1.
          1   -1    0    0  501    0  0.00000000000E+00 -0.00000000000E+00 -0.14429276115E+03  0.14429276124E+03  0.50400000000E-02 0. -1.
         23    2    1    2    0    0  0.00000000000E+00  0.27755575616E-16 -0.12963723419E+03  0.15894828908E+03  0.91971441828E+02 0.  0.
    9000005    2    3    3    0    0 -0.42709856423E+02 -0.57846736469E-01 -0.90486441142E+02  0.10100935762E+03  0.13818795700E+02 0.  0.
         22    1    3    3    0    0  0.42709856423E+02  0.57846736469E-01 -0.39150793047E+02  0.57938931454E+02  0.00000000000E+00 0.  1.
         22    1    4    4    0    0 -0.43193404621E+02  0.69443885578E+00 -0.90292333784E+02  0.10009424553E+03  0.00000000000E+00 0. -1.
         22    1    4    4    0    0  0.48354819867E+00 -0.75228559225E+00 -0.19410735822E+00  0.91511209109E+00  0.00000000000E+00 0. -1.
<mgrwt>
<rscale>  0 0.91971442E+02</rscale>
<asrwt>0</asrwt>
<pdfrwt beam="2">  1        1 0.22198885E-01 0.91971442E+02</pdfrwt>
<pdfrwt beam="1">  1       -1 0.22546966E-02 0.91971442E+02</pdfrwt>
<totfact> 0.10875739E+05</totfact>
</mgrwt>
</event>
<event>
 7    1  0.3345055E-009  0.9002781E+02  0.7818608E-02  0.1302784E+00
         -1   -1    0    0    0  501 -0.00000000000E+00  0.00000000000E+00  0.74834582879E+01  0.74834599851E+01  0.50400000000E-02 0.  1.
          1   -1    0    0  501    0  0.00000000000E+00 -0.00000000000E+00 -0.27076405544E+03  0.27076405548E+03  0.50400000000E-02 0. -1.
         23    2    1    2    0    0  0.71054273576E-14  0.00000000000E+00 -0.26328059715E+03  0.27824751547E+03  0.90027812533E+02 0.  0.
    9000005    2    3    3    0    0  0.41318824301E+02 -0.15539925472E+02 -0.14449869044E+03  0.15152784105E+03  0.11492630112E+02 0.  0.
         22    1    3    3    0    0 -0.41318824301E+02  0.15539925472E+02 -0.11878190670E+03  0.12671967442E+03  0.00000000000E+00 0.  1.
         22    1    4    4    0    0  0.21297130899E+02 -0.13796854951E+02 -0.86535703210E+02  0.90179537153E+02  0.00000000000E+00 0.  1.
         22    1    4    4    0    0  0.20021693402E+02 -0.17430705209E+01 -0.57962987234E+02  0.61348303893E+02  0.00000000000E+00 0.  1.
<mgrwt>
<rscale>  0 0.90027813E+02</rscale>
<asrwt>0</asrwt>
<pdfrwt beam="2">  1        1 0.41656001E-01 0.90027813E+02</pdfrwt>
<pdfrwt beam="1">  1       -1 0.11513016E-02 0.90027813E+02</pdfrwt>
<totfact> 0.12992981E+05</totfact>
</mgrwt>
</event>
<event>
 7    1  0.3345055E-009  0.9205469E+02  0.7818608E-02  0.1297951E+00
         -1   -1    0    0    0  501 -0.00000000000E+00  0.00000000000E+00  0.67865986999E+03  0.67865987001E+03  0.50400000000E-02 0.  1.
          1   -1    0    0  501    0  0.00000000000E+00 -0.00000000000E+00 -0.31216153751E+01  0.31216194437E+01  0.50400000000E-02 0. -1.
         23    2    1    2    0    0  0.00000000000E+00  0.00000000000E+00  0.67553825462E+03  0.68178148946E+03  0.92054689787E+02 0.  0.
    9000005    2    3    3    0    0  0.27591952659E+02  0.93787845077E+01  0.60120176538E+03  0.60193669575E+03  0.59114751456E+01 0.  0.
         22    1    3    3    0    0 -0.27591952659E+02 -0.93787845077E+01  0.74336489236E+02  0.79844793708E+02  0.00000000000E+00 0. -1.
         22    1    4    4    0    0  0.12366057717E+02  0.35628221451E+01  0.20844058157E+03  0.20883747060E+03  0.00000000000E+00 0.  1.
         22    1    4    4    0    0  0.15225894941E+02  0.58159623627E+01  0.39276118382E+03  0.39309922514E+03  0.00000000000E+00 0.  1.
<mgrwt>
<rscale>  0 0.92054690E+02</rscale>
<asrwt>0</asrwt>
<pdfrwt beam="2">  1        1 0.48024853E-03 0.92054690E+02</pdfrwt>
<pdfrwt beam="1">  1       -1 0.10440928E+00 0.92054690E+02</pdfrwt>
<totfact> 0.36873865E+04</totfact>
</mgrwt>
</event>
<event>
 7    1  0.3345055E-009  0.8932962E+02  0.7818608E-02  0.1304483E+00
         -1   -1    0    0    0  501 -0.00000000000E+00  0.00000000000E+00  0.66866109944E+02  0.66866110134E+02  0.50400000000E-02 0.  1.
          1   -1    0    0  501    0  0.00000000000E+00 -0.00000000000E+00 -0.29834920548E+02  0.29834920973E+02  0.50400000000E-02 0. -1.
         23    2    1    2    0    0  0.00000000000E+00  0.35527136788E-14  0.37031189396E+02  0.96701031108E+02  0.89329616753E+02 0.  0.
    9000005    2    3    3    0    0  0.12445034067E+02 -0.30154027609E+02 -0.11713603395E+02  0.38047820810E+02  0.15693435250E+02 0.  0.
         22    1    3    3    0    0 -0.12445034067E+02  0.30154027609E+02  0.48744792791E+02  0.58653210298E+02  0.00000000000E+00 0.  1.
         22    1    4    4    0    0  0.20510821046E+01 -0.42906453194E+01 -0.88248909472E+01  0.10024733178E+02  0.00000000000E+00 0. -1.
         22    1    4    4    0    0  0.10393951963E+02 -0.25863382289E+02 -0.28887124476E+01  0.28023087632E+02  0.00000000000E+00 0. -1.
<mgrwt>
<rscale>  0 0.89329617E+02</rscale>
<asrwt>0</asrwt>
<pdfrwt beam="2">  1        1 0.45899879E-02 0.89329617E+02</pdfrwt>
<pdfrwt beam="1">  1       -1 0.10287094E-01 0.89329617E+02</pdfrwt>
<totfact> 0.91836046E+04</totfact>
</mgrwt>
</event>
<event>
 7    1  0.3345055E-009  0.9073641E+02  0.7818608E-02  0.1301078E+00
         -1   -1    0    0    0  501 -0.00000000000E+00  0.00000000000E+00  0.84868409940E+03  0.84868409941E+03  0.50400000000E-02 0.  1.
          1   -1    0    0  501    0  0.00000000000E+00 -0.00000000000E+00 -0.24252507753E+01  0.24252560122E+01  0.50400000000E-02 0. -1.
         23    2    1    2    0    0  0.00000000000E+00  0.00000000000E+00  0.84625884862E+03  0.85110935543E+03  0.90736409561E+02 0.  0.
    9000005    2    3    3    0    0  0.43848697095E+01  0.27715420333E+02  0.75602540313E+03  0.75661360795E+03  0.10117803147E+02 0.  0.
         22    1    3    3    0    0 -0.43848697095E+01 -0.27715420333E+02  0.90233445488E+02  0.94495747477E+02  0.00000000000E+00 0. -1.
         22    1    4    4    0    0  0.16773652661E+01  0.26766087252E+02  0.70197568327E+03  0.70248779127E+03  0.00000000000E+00 0. -1.
         22    1    4    4    0    0  0.27075044434E+01  0.94933308098E+00  0.54049719863E+02  0.54125816677E+02  0.00000000000E+00 0. -1.
<mgrwt>
<rscale>  0 0.90736410E+02</rscale>
<asrwt>0</asrwt>
<pdfrwt beam="2">  1        1 0.37311605E-03 0.90736410E+02</pdfrwt>
<pdfrwt beam="1">  1       -1 0.13056674E+00 0.90736410E+02</pdfrwt>
<totfact> 0.31181811E+04</totfact>
</mgrwt>
</event>
<event>
 7    1  0.3345055E-009  0.9032394E+02  0.7818608E-02  0.1302069E+00
          1   -1    0    0  501    0  0.00000000000E+00  0.00000000000E+00  0.40413721801E+02  0.40413722115E+02  0.50400000000E-02 0. -1.
         -1   -1    0    0    0  501 -0.00000000000E+00 -0.00000000000E+00 -0.50468096940E+02  0.50468097192E+02  0.50400000000E-02 0.  1.
         23    2    1    2    0    0  0.00000000000E+00  0.00000000000E+00 -0.10054375140E+02  0.90881819307E+02  0.90323942679E+02 0.  0.
    9000005    2    3    3    0    0 -0.18862933605E+02  0.40585592796E+02 -0.52135581817E+01  0.45865887509E+02  0.85730881991E+01 0.  0.
         22    1    3    3    0    0  0.18862933605E+02 -0.40585592796E+02 -0.48408169578E+01  0.45015931798E+02  0.00000000000E+00 0.  1.
         22    1    4    4    0    0 -0.50859103196E+01  0.21001000800E+02 -0.30715081777E+01  0.21825276192E+02  0.00000000000E+00 0.  1.
         22    1    4    4    0    0 -0.13777023286E+02  0.19584591996E+02 -0.21420500040E+01  0.24040611317E+02  0.00000000000E+00 0.  1.
<mgrwt>
<rscale>  0 0.90323943E+02</rscale>
<asrwt>0</asrwt>
<pdfrwt beam="1">  1        1 0.62174957E-02 0.90323943E+02</pdfrwt>
<pdfrwt beam="2">  1       -1 0.77643226E-02 0.90323943E+02</pdfrwt>
<totfact> 0.93243584E+04</totfact>
</mgrwt>
</event>
<event>
 7    1  0.3345055E-009  0.9053449E+02  0.7818608E-02  0.1301562E+00
         -1   -1    0    0    0  501 -0.00000000000E+00  0.00000000000E+00  0.34704595759E+02  0.34704596125E+02  0.50400000000E-02 0.  1.
          1   -1    0    0  501    0  0.00000000000E+00 -0.00000000000E+00 -0.59044725143E+02  0.59044725358E+02  0.50400000000E-02 0. -1.
         23    2    1    2    0    0  0.00000000000E+00  0.00000000000E+00 -0.24340129384E+02  0.93749321483E+02  0.90534487242E+02 0.  0.
    9000005    2    3    3    0    0  0.20215785129E+02  0.10208075525E+02  0.26686709653E+02  0.37922615720E+02  0.14596627577E+02 0.  0.
         22    1    3    3    0    0 -0.20215785129E+02 -0.10208075525E+02 -0.51026839037E+02  0.55826705763E+02  0.00000000000E+00 0. -1.
         22    1    4    4    0    0  0.33165249261E+01  0.13580437656E+01 -0.15019009977E+01  0.38857852568E+01  0.00000000000E+00 0. -1.
         22    1    4    4    0    0  0.16899260203E+02  0.88500317597E+01  0.28188610650E+02  0.34036830463E+02  0.00000000000E+00 0. -1.
<mgrwt>
<rscale>  0 0.90534487E+02</rscale>
<asrwt>0</asrwt>
<pdfrwt beam="2">  1        1 0.90838039E-02 0.90534487E+02</pdfrwt>
<pdfrwt beam="1">  1       -1 0.53391686E-02 0.90534487E+02</pdfrwt>
<totfact> 0.98040690E+04</totfact>
</mgrwt>
</event>
<event>
 7    1  0.3345055E-009  0.5906352E+02  0.7818608E-02  0.1401804E+00
          1   -1    0    0  501    0  0.00000000000E+00  0.00000000000E+00  0.31861566598E+02  0.31861566996E+02  0.50400000000E-02 0. -1.
         -1   -1    0    0    0  501 -0.00000000000E+00 -0.00000000000E+00 -0.27372311447E+02  0.27372311911E+02  0.50400000000E-02 0.  1.
         23    2    1    2    0    0 -0.35527136788E-14  0.00000000000E+00  0.44892551505E+01  0.59233878908E+02  0.59063516647E+02 0.  0.
    9000005    2    3    3    0    0  0.26972220826E+02 -0.55016724440E+01  0.60995761949E+01  0.31659212457E+02  0.14399021066E+02 0.  0.
         22    1    3    3    0    0 -0.26972220826E+02  0.55016724440E+01 -0.16103210444E+01  0.27574666451E+02  0.00000000000E+00 0. -1.
         22    1    4    4    0    0  0.20358033395E+02 -0.26257162517E+01  0.10656337472E+02  0.23127936308E+02  0.00000000000E+00 0.  1.
         22    1    4    4    0    0  0.66141874318E+01 -0.28759561923E+01 -0.45567612773E+01  0.85312761497E+01  0.00000000000E+00 0.  1.
<mgrwt>
<rscale>  0 0.59063517E+02</rscale>
<asrwt>0</asrwt>
<pdfrwt beam="1">  1        1 0.49017796E-02 0.59063517E+02</pdfrwt>
<pdfrwt beam="2">  1       -1 0.42111249E-02 0.59063517E+02</pdfrwt>
<totfact> 0.28904009E+05</totfact>
</mgrwt>
</event>
<event>
 7    1  0.3345055E-009  0.9159207E+02  0.7818608E-02  0.1299041E+00
          1   -1    0    0  501    0  0.00000000000E+00  0.00000000000E+00  0.23057347239E+03  0.23057347245E+03  0.50400000000E-02 0. -1.
         -1   -1    0    0    0  501 -0.00000000000E+00 -0.00000000000E+00 -0.90959155546E+01  0.90959169509E+01  0.50400000000E-02 0.  1.
         23    2    1    2    0    0 -0.17763568394E-14  0.00000000000E+00  0.22147755684E+03  0.23966938940E+03  0.91592074066E+02 0.  0.
    9000005    2    3    3    0    0  0.12971383158E+02  0.42802120483E+02  0.12295338125E+03  0.13146915154E+03  0.12896726137E+02 0.  0.
         22    1    3    3    0    0 -0.12971383158E+02 -0.42802120483E+02  0.98524175585E+02  0.10820023786E+03  0.00000000000E+00 0.  1.
         22    1    4    4    0    0  0.11026760376E+02  0.15412756885E+02  0.55236399779E+02  0.58396938102E+02  0.00000000000E+00 0. -1.
         22    1    4    4    0    0  0.19446227817E+01  0.27389363598E+02  0.67716981474E+02  0.73072213433E+02  0.00000000000E+00 0. -1.
<mgrwt>
<rscale>  0 0.91592074E+02</rscale>
<asrwt>0</asrwt>
<pdfrwt beam="1">  1        1 0.35472841E-01 0.91592074E+02</pdfrwt>
<pdfrwt beam="2">  1       -1 0.13993718E-02 0.91592074E+02</pdfrwt>
<totfact> 0.12026188E+05</totfact>
</mgrwt>
</event>
<event>
 7    1  0.3345055E-009  0.8545838E+02  0.7818608E-02  0.1314238E+00
         -1   -1    0    0    0  501 -0.00000000000E+00  0.00000000000E+00  0.69597071212E+02  0.69597071394E+02  0.50400000000E-02 0.  1.
          1   -1    0    0  501    0  0.00000000000E+00 -0.00000000000E+00 -0.26233628951E+02  0.26233629435E+02  0.50400000000E-02 0. -1.
         23    2    1    2    0    0  0.00000000000E+00  0.00000000000E+00  0.43363442261E+02  0.95830700829E+02  0.85458382250E+02 0.  0.
    9000005    2    3    3    0    0  0.21202403895E+02 -0.11401375706E+01 -0.19032601845E+02  0.29920852061E+02  0.90650764164E+01 0.  0.
         22    1    3    3    0    0 -0.21202403895E+02  0.11401375706E+01  0.62396044106E+02  0.65909848769E+02  0.00000000000E+00 0.  1.
         22    1    4    4    0    0  0.12371735943E+02  0.22904643121E+01 -0.63585767565E+01  0.14097431517E+02  0.00000000000E+00 0.  1.
         22    1    4    4    0    0  0.88306679521E+01 -0.34306018827E+01 -0.12674025089E+02  0.15823420544E+02  0.00000000000E+00 0.  1.
<mgrwt>
<rscale>  0 0.85458382E+02</rscale>
<asrwt>0</asrwt>
<pdfrwt beam="2">  1        1 0.40359430E-02 0.85458382E+02</pdfrwt>
<pdfrwt beam="1">  1       -1 0.10707242E-01 0.85458382E+02</pdfrwt>
<totfact> 0.10214495E+05</totfact>
</mgrwt>
</event>
<event>
 7    1  0.3345055E-009  0.9154994E+02  0.7818608E-02  0.1299141E+00
          1   -1    0    0  501    0  0.00000000000E+00  0.00000000000E+00  0.13954509295E+02  0.13954510206E+02  0.50400000000E-02 0. -1.
         -1   -1    0    0    0  501 -0.00000000000E+00 -0.00000000000E+00 -0.15015561682E+03  0.15015561690E+03  0.50400000000E-02 0.  1.
         23    2    1    2    0    0  0.71054273576E-14  0.00000000000E+00 -0.13620110752E+03  0.16411012711E+03  0.91549943359E+02 0.  0.
    9000005    2    3    3    0    0 -0.41219164967E+02 -0.65059311046E+01 -0.38867847088E+02  0.58208709332E+02  0.11670372946E+02 0.  0.
         22    1    3    3    0    0  0.41219164967E+02  0.65059311046E+01 -0.97333260434E+02  0.10590141778E+03  0.00000000000E+00 0.  1.
         22    1    4    4    0    0 -0.47651831904E+01 -0.14273136103E-01 -0.34743818514E+00  0.47778538962E+01  0.00000000000E+00 0.  1.
         22    1    4    4    0    0 -0.36453981777E+02 -0.64916579685E+01 -0.38520408903E+02  0.53430855436E+02  0.00000000000E+00 0.  1.
<mgrwt>
<rscale>  0 0.91549943E+02</rscale>
<asrwt>0</asrwt>
<pdfrwt beam="1">  1        1 0.21468478E-02 0.91549943E+02</pdfrwt>
<pdfrwt beam="2">  1       -1 0.23100863E-01 0.91549943E+02</pdfrwt>
<totfact> 0.73981170E+04</totfact>
</mgrwt>
</event>
<event>
 7    1  0.3345055E-009  0.9551732E+02  0.7818608E-02  0.1290015E+00
          1   -1    0    0  501    0  0.00000000000E+00  0.00000000000E+00  0.86923817279E+02  0.86923817425E+02  0.50400000000E-02 0. -1.
         -1   -1    0    0    0  501 -0.00000000000E+00 -0.00000000000E+00 -0.26240101183E+02  0.26240101667E+02  0.50400000000E-02 0.  1.
         23    2    1    2    0    0  0.00000000000E+00  0.00000000000E+00  0.60683716096E+02  0.11316391909E+03  0.95517324006E+02 0.  0.
    9000005    2    3    3    0    0 -0.17068620376E+02 -0.33688927884E+02 -0.36403350683E+01  0.38572597737E+02  0.69506541603E+01 0.  0.
         22    1    3    3    0    0  0.17068620376E+02  0.33688927884E+02  0.64324051164E+02  0.74591321356E+02  0.00000000000E+00 0. -1.
         22    1    4    4    0    0 -0.41098042565E+01 -0.90943589592E+01  0.20704470244E+01  0.10192379839E+02  0.00000000000E+00 0. -1.
         22    1    4    4    0    0 -0.12958816119E+02 -0.24594568925E+02 -0.57107820927E+01  0.28380217897E+02  0.00000000000E+00 0. -1.
<mgrwt>
<rscale>  0 0.95517324E+02</rscale>
<asrwt>0</asrwt>
<pdfrwt beam="1">  1        1 0.13372895E-01 0.95517324E+02</pdfrwt>
<pdfrwt beam="2">  1       -1 0.40369388E-02 0.95517324E+02</pdfrwt>
<totfact> 0.89836393E+04</totfact>
</mgrwt>
</event>
<event>
 7    1  0.3345055E-009  0.9325920E+02  0.7818608E-02  0.1295146E+00
         -1   -1    0    0    0  501 -0.00000000000E+00  0.00000000000E+00  0.12218347265E+03  0.12218347276E+03  0.50400000000E-02 0.  1.
          1   -1    0    0  501    0  0.00000000000E+00 -0.00000000000E+00 -0.17795528343E+02  0.17795529057E+02  0.50400000000E-02 0. -1.
         23    2    1    2    0    0  0.00000000000E+00  0.00000000000E+00  0.10438794431E+03  0.13997900181E+03  0.93259198107E+02 0.  0.
    9000005    2    3    3    0    0 -0.41008862957E+02  0.87118597594E+01  0.82696709137E+02  0.92775897839E+02  0.33163498608E+01 0.  0.
         22    1    3    3    0    0  0.41008862957E+02 -0.87118597594E+01  0.21691235174E+02  0.47203103975E+02  0.00000000000E+00 0. -1.
         22    1    4    4    0    0 -0.16539515287E+02  0.29811160686E+01  0.36582149166E+02  0.40257871983E+02  0.00000000000E+00 0. -1.
         22    1    4    4    0    0 -0.24469347670E+02  0.57307436907E+01  0.46114559970E+02  0.52518025857E+02  0.00000000000E+00 0. -1.
<mgrwt>
<rscale>  0 0.93259198E+02</rscale>
<asrwt>0</asrwt>
<pdfrwt beam="2">  1        1 0.27377737E-02 0.93259198E+02</pdfrwt>
<pdfrwt beam="1">  1       -1 0.18797457E-01 0.93259198E+02</pdfrwt>
<totfact> 0.73795907E+04</totfact>
</mgrwt>
</event>
<event>
 7    1  0.3345055E-009  0.9194232E+02  0.7818608E-02  0.1298215E+00
         -1   -1    0    0    0  501 -0.00000000000E+00  0.00000000000E+00  0.10412635056E+03  0.10412635068E+03  0.50400000000E-02 0.  1.
          1   -1    0    0  501    0  0.00000000000E+00 -0.00000000000E+00 -0.20295991160E+02  0.20295991786E+02  0.50400000000E-02 0. -1.
         23    2    1    2    0    0  0.00000000000E+00  0.00000000000E+00  0.83830359396E+02  0.12442234246E+03  0.91942319679E+02 0.  0.
    9000005    2    3    3    0    0  0.18909074924E+02  0.21153929248E+02 -0.52059018665E+01  0.30974508585E+02  0.11281707794E+02 0.  0.
         22    1    3    3    0    0 -0.18909074924E+02 -0.21153929248E+02  0.89036261263E+02  0.93447833880E+02  0.00000000000E+00 0.  1.
         22    1    4    4    0    0  0.71150002577E+01  0.52166792851E+01 -0.67197057085E+01  0.11090149514E+02  0.00000000000E+00 0.  1.
         22    1    4    4    0    0  0.11794074666E+02  0.15937249963E+02  0.15138038421E+01  0.19884359071E+02  0.00000000000E+00 0.  1.
<mgrwt>
<rscale>  0 0.91942320E+02</rscale>
<asrwt>0</asrwt>
<pdfrwt beam="2">  1        1 0.31224602E-02 0.91942320E+02</pdfrwt>
<pdfrwt beam="1">  1       -1 0.16019439E-01 0.91942320E+02</pdfrwt>
<totfact> 0.79031415E+04</totfact>
</mgrwt>
</event>
<event>
 7    1  0.3345055E-009  0.9036509E+02  0.7818608E-02  0.1301970E+00
         -1   -1    0    0    0  501 -0.00000000000E+00  0.00000000000E+00  0.14230088260E+02  0.14230089152E+02  0.50400000000E-02 0.  1.
          1   -1    0    0  501    0  0.00000000000E+00 -0.00000000000E+00 -0.14346098121E+03  0.14346098130E+03  0.50400000000E-02 0. -1.
         23    2    1    2    0    0  0.00000000000E+00  0.00000000000E+00 -0.12923089295E+03  0.15769107045E+03  0.90365092858E+02 0.  0.
    9000005    2    3    3    0    0  0.18400922661E+02  0.15824926772E+02  0.13584790209E+01  0.24865597239E+02  0.52373847162E+01 0.  0.
         22    1    3    3    0    0 -0.18400922661E+02 -0.15824926772E+02 -0.13058937197E+03  0.13282547321E+03  0.00000000000E+00 0. -1.
         22    1    4    4    0    0  0.10552168138E+02  0.87872358897E+01  0.33562333345E+01  0.14136055645E+02  0.00000000000E+00 0.  1.
         22    1    4    4    0    0  0.78487545233E+01  0.70376908823E+01 -0.19977543136E+01  0.10729541594E+02  0.00000000000E+00 0.  1.
<mgrwt>
<rscale>  0 0.90365093E+02</rscale>
<asrwt>0</asrwt>
<pdfrwt beam="2">  1        1 0.22070919E-01 0.90365093E+02</pdfrwt>
<pdfrwt beam="1">  1       -1 0.21892445E-02 0.90365093E+02</pdfrwt>
<totfact> 0.11393771E+05</totfact>
</mgrwt>
</event>
<event>
 7    1  0.3345055E-009  0.9081855E+02  0.7818608E-02  0.1300881E+00
         -1   -1    0    0    0  501 -0.00000000000E+00  0.00000000000E+00  0.80044648169E+01  0.80044664037E+01  0.50400000000E-02 0.  1.
          1   -1    0    0  501    0  0.00000000000E+00 -0.00000000000E+00 -0.25760649938E+03  0.25760649943E+03  0.50400000000E-02 0. -1.
         23    2    1    2    0    0  0.00000000000E+00  0.00000000000E+00 -0.24960203456E+03  0.26561096583E+03  0.90818552690E+02 0.  0.
    9000005    2    3    3    0    0 -0.87042628564E+01 -0.42740101117E+02 -0.15617151609E+03  0.16250062582E+03  0.10697220140E+02 0.  0.
         22    1    3    3    0    0  0.87042628564E+01  0.42740101117E+02 -0.93430518471E+02  0.10311034001E+03  0.00000000000E+00 0.  1.
         22    1    4    4    0    0 -0.10023831060E+02 -0.34093031413E+02 -0.13487105958E+03  0.13947406459E+03  0.00000000000E+00 0.  1.
         22    1    4    4    0    0  0.13195682031E+01 -0.86470697045E+01 -0.21300456510E+02  0.23026561233E+02  0.00000000000E+00 0.  1.
<mgrwt>
<rscale>  0 0.90818553E+02</rscale>
<asrwt>0</asrwt>
<pdfrwt beam="2">  1        1 0.39631763E-01 0.90818553E+02</pdfrwt>
<pdfrwt beam="1">  1       -1 0.12314564E-02 0.90818553E+02</pdfrwt>
<totfact> 0.12570842E+05</totfact>
</mgrwt>
</event>
<event>
 7    1  0.3345055E-009  0.9098028E+02  0.7818608E-02  0.1300495E+00
         -1   -1    0    0    0  501 -0.00000000000E+00  0.00000000000E+00  0.16874777857E+01  0.16874853122E+01  0.50400000000E-02 0.  1.
          1   -1    0    0  501    0  0.00000000000E+00 -0.00000000000E+00 -0.12262965134E+04  0.12262965134E+04  0.50400000000E-02 0. -1.
         23    2    1    2    0    0  0.00000000000E+00  0.00000000000E+00 -0.12246090356E+04  0.12279839987E+04  0.90980278138E+02 0.  0.
    9000005    2    3    3    0    0  0.22961075762E+02  0.90001643814E+01 -0.11251311402E+04  0.11254946548E+04  0.14488656935E+02 0.  0.
         22    1    3    3    0    0 -0.22961075762E+02 -0.90001643814E+01 -0.99477895337E+02  0.10248934393E+03  0.00000000000E+00 0.  1.
         22    1    4    4    0    0  0.21880561592E+02  0.12282764079E+02 -0.96450887988E+03  0.96483522150E+03  0.00000000000E+00 0. -1.
         22    1    4    4    0    0  0.10805141709E+01 -0.32825996974E+01 -0.16062226037E+03  0.16065943326E+03  0.00000000000E+00 0. -1.
<mgrwt>
<rscale>  0 0.90980278E+02</rscale>
<asrwt>0</asrwt>
<pdfrwt beam="2">  1        1 0.18866029E+00 0.90980278E+02</pdfrwt>
<pdfrwt beam="1">  1       -1 0.25961353E-03 0.90980278E+02</pdfrwt>
<totfact> 0.12669269E+05</totfact>
</mgrwt>
</event>
<event>
 7    1  0.3345055E-009  0.9138613E+02  0.7818608E-02  0.1299529E+00
          1   -1    0    0  501    0  0.00000000000E+00  0.00000000000E+00  0.11606294381E+02  0.11606295475E+02  0.50400000000E-02 0. -1.
         -1   -1    0    0    0  501 -0.00000000000E+00 -0.00000000000E+00 -0.17988999130E+03  0.17988999137E+03  0.50400000000E-02 0.  1.
         23    2    1    2    0    0  0.00000000000E+00  0.00000000000E+00 -0.16828369692E+03  0.19149628684E+03  0.91386132573E+02 0.  0.
    9000005    2    3    3    0    0  0.44408749601E+02 -0.24012710092E+01 -0.73161131227E+02  0.86490545824E+02  0.12253989182E+02 0.  0.
         22    1    3    3    0    0 -0.44408749601E+02  0.24012710092E+01 -0.95122565690E+02  0.10500574102E+03  0.00000000000E+00 0.  1.
         22    1    4    4    0    0  0.15383365077E+02  0.76545428727E+00 -0.15461531748E+02  0.21824133554E+02  0.00000000000E+00 0.  1.
         22    1    4    4    0    0  0.29025384524E+02 -0.31667252964E+01 -0.57699599479E+02  0.64666412270E+02  0.00000000000E+00 0.  1.
<mgrwt>
<rscale>  0 0.91386133E+02</rscale>
<asrwt>0</asrwt>
<pdfrwt beam="1">  1        1 0.17855840E-02 0.91386133E+02</pdfrwt>
<pdfrwt beam="2">  1       -1 0.27675381E-01 0.91386133E+02</pdfrwt>
<totfact> 0.71055342E+04</totfact>
</mgrwt>
</event>
<event>
 7    1  0.3345055E-009  0.8780915E+02  0.7818608E-02  0.1308246E+00
          1   -1    0    0  501    0  0.00000000000E+00  0.00000000000E+00  0.31706826174E+03  0.31706826178E+03  0.50400000000E-02 0. -1.
         -1   -1    0    0    0  501 -0.00000000000E+00 -0.00000000000E+00 -0.60794844193E+01  0.60794865084E+01  0.50400000000E-02 0.  1.
         23    2    1    2    0    0  0.00000000000E+00  0.00000000000E+00  0.31098877732E+03  0.32314774829E+03  0.87809154446E+02 0.  0.
    9000005    2    3    3    0    0  0.38651684650E+02 -0.11876987407E+02  0.97270414603E+02  0.10563785399E+03  0.79250919170E+01 0.  0.
         22    1    3    3    0    0 -0.38651684650E+02  0.11876987407E+02  0.21371836271E+03  0.21750989430E+03  0.00000000000E+00 0. -1.
         22    1    4    4    0    0  0.14881722766E+02 -0.52905091436E+01  0.28589955289E+02  0.32662527503E+02  0.00000000000E+00 0.  1.
         22    1    4    4    0    0  0.23769961884E+02 -0.65864782635E+01  0.68680459314E+02  0.72975326485E+02  0.00000000000E+00 0.  1.
<mgrwt>
<rscale>  0 0.87809154E+02</rscale>
<asrwt>0</asrwt>
<pdfrwt beam="1">  1        1 0.48779731E-01 0.87809154E+02</pdfrwt>
<pdfrwt beam="2">  1       -1 0.93530549E-03 0.87809154E+02</pdfrwt>
<totfact> 0.14307939E+05</totfact>
</mgrwt>
</event>
<event>
 7    1  0.3345055E-009  0.8942311E+02  0.7818608E-02  0.1304255E+00
         -1   -1    0    0    0  501 -0.00000000000E+00  0.00000000000E+00  0.11646506383E+02  0.11646507474E+02  0.50400000000E-02 0. -1.
          1   -1    0    0  501    0  0.00000000000E+00 -0.00000000000E+00 -0.17165003055E+03  0.17165003062E+03  0.50400000000E-02 0.  1.
         23    2    1    2    0    0  0.00000000000E+00  0.00000000000E+00 -0.16000352417E+03  0.18329653810E+03  0.89423112968E+02 0.  0.
    9000005    2    3    3    0    0 -0.20258258101E+02 -0.31774799692E+02 -0.12877211148E+03  0.13435334598E+03  0.69663449997E+01 0.  0.
         22    1    3    3    0    0  0.20258258101E+02  0.31774799692E+02 -0.31231412683E+02  0.48943192121E+02  0.00000000000E+00 0. -1.
         22    1    4    4    0    0 -0.94804292292E+01 -0.19823359678E+02 -0.66559268895E+02  0.70092655843E+02  0.00000000000E+00 0. -1.
         22    1    4    4    0    0 -0.10777828872E+02 -0.11951440013E+02 -0.62212842588E+02  0.64260690134E+02  0.00000000000E+00 0. -1.
<mgrwt>
<rscale>  0 0.89423113E+02</rscale>
<asrwt>0</asrwt>
<pdfrwt beam="2">  1        1 0.26407695E-01 0.89423113E+02</pdfrwt>
<pdfrwt beam="1">  1       -1 0.17917704E-02 0.89423113E+02</pdfrwt>
<totfact> 0.12113966E+05</totfact>
</mgrwt>
</event>
<event>
 7    1  0.3345055E-009  0.9228141E+02  0.7818608E-02  0.1297419E+00
         -1   -1    0    0    0  501 -0.00000000000E+00  0.00000000000E+00  0.79936707708E+01  0.79936723597E+01  0.50400000000E-02 0.  1.
          1   -1    0    0  501    0  0.00000000000E+00 -0.00000000000E+00 -0.26633125988E+03  0.26633125992E+03  0.50400000000E-02 0. -1.
         23    2    1    2    0    0  0.00000000000E+00  0.00000000000E+00 -0.25833758910E+03  0.27432493228E+03  0.92281409436E+02 0.  0.
    9000005    2    3    3    0    0  0.13164082526E+02  0.41138638610E+01 -0.25964881494E+03  0.26047082611E+03  0.15405428021E+02 0.  0.
         22    1    3    3    0    0 -0.13164082526E+02 -0.41138638610E+01  0.13112258322E+01  0.13854106171E+02  0.00000000000E+00 0.  1.
         22    1    4    4    0    0  0.13941837967E+02 -0.23699061566E+01 -0.17492385585E+03  0.17549457725E+03  0.00000000000E+00 0.  1.
         22    1    4    4    0    0 -0.77775544084E+00  0.64837700176E+01 -0.84724959089E+02  0.84976248857E+02  0.00000000000E+00 0.  1.
<mgrwt>
<rscale>  0 0.92281409E+02</rscale>
<asrwt>0</asrwt>
<pdfrwt beam="2">  1        1 0.40974033E-01 0.92281409E+02</pdfrwt>
<pdfrwt beam="1">  1       -1 0.12297958E-02 0.92281409E+02</pdfrwt>
<totfact> 0.12124243E+05</totfact>
</mgrwt>
</event>
<event>
 7    1  0.3345055E-009  0.9023236E+02  0.7818608E-02  0.1302290E+00
         -1   -1    0    0    0  501 -0.00000000000E+00  0.00000000000E+00  0.28518775480E+02  0.28518775926E+02  0.50400000000E-02 0.  1.
          1   -1    0    0  501    0  0.00000000000E+00 -0.00000000000E+00 -0.71372961163E+02  0.71372961341E+02  0.50400000000E-02 0. -1.
         23    2    1    2    0    0  0.00000000000E+00  0.00000000000E+00 -0.42854185683E+02  0.99891737267E+02  0.90232355304E+02 0.  0.
    9000005    2    3    3    0    0 -0.28564142909E+02 -0.21778897692E+02  0.64205236236E+01  0.38914465911E+02  0.13523383036E+02 0.  0.
         22    1    3    3    0    0  0.28564142909E+02  0.21778897692E+02 -0.49274709307E+02  0.60977271356E+02  0.00000000000E+00 0.  1.
         22    1    4    4    0    0 -0.25234493924E+02 -0.19607038917E+02  0.10082720389E+02  0.33509355546E+02  0.00000000000E+00 0. -1.
         22    1    4    4    0    0 -0.33296489851E+01 -0.21718587748E+01 -0.36621967657E+01  0.54051103645E+01  0.00000000000E+00 0. -1.
<mgrwt>
<rscale>  0 0.90232355E+02</rscale>
<asrwt>0</asrwt>
<pdfrwt beam="2">  1        1 0.10980456E-01 0.90232355E+02</pdfrwt>
<pdfrwt beam="1">  1       -1 0.43875040E-02 0.90232355E+02</pdfrwt>
<totfact> 0.10184062E+05</totfact>
</mgrwt>
</event>
<event>
 7    1  0.3345055E-009  0.9443568E+02  0.7818608E-02  0.1292452E+00
         -1   -1    0    0    0  501 -0.00000000000E+00  0.00000000000E+00  0.62410413482E+01  0.62410433833E+01  0.50400000000E-02 0.  1.
          1   -1    0    0  501    0  0.00000000000E+00 -0.00000000000E+00 -0.35723591760E+03  0.35723591763E+03  0.50400000000E-02 0. -1.
         23    2    1    2    0    0  0.71054273576E-14  0.00000000000E+00 -0.35099487625E+03  0.36347696102E+03  0.94435682009E+02 0.  0.
    9000005    2    3    3    0    0 -0.43548804718E+02  0.37671072405E+01 -0.10993429758E+03  0.11848534468E+03  0.65220877770E+01 0.  0.
         22    1    3    3    0    0  0.43548804718E+02 -0.37671072405E+01 -0.24106057867E+03  0.24499161634E+03  0.00000000000E+00 0. -1.
         22    1    4    4    0    0 -0.22601461507E+01 -0.37968150340E+00 -0.10359932491E+02  0.10610401495E+02  0.00000000000E+00 0. -1.
         22    1    4    4    0    0 -0.41288658567E+02  0.41467887439E+01 -0.99574365089E+02  0.10787494318E+03  0.00000000000E+00 0. -1.
<mgrwt>
<rscale>  0 0.94435682E+02</rscale>
<asrwt>0</asrwt>
<pdfrwt beam="2">  1        1 0.54959356E-01 0.94435682E+02</pdfrwt>
<pdfrwt beam="1">  1       -1 0.96016065E-03 0.94435682E+02</pdfrwt>
<totfact> 0.12049267E+05</totfact>
</mgrwt>
</event>
<event>
 7    1  0.3345055E-009  0.9071361E+02  0.7818608E-02  0.1301133E+00
          1   -1    0    0  501    0  0.00000000000E+00  0.00000000000E+00  0.22110286948E+03  0.22110286954E+03  0.50400000000E-02 0. -1.
         -1   -1    0    0    0  501 -0.00000000000E+00 -0.00000000000E+00 -0.93044455696E+01  0.93044469346E+01  0.50400000000E-02 0.  1.
         23    2    1    2    0    0  0.00000000000E+00  0.17763568394E-14  0.21179842391E+03  0.23040731648E+03  0.90713610407E+02 0.  0.
    9000005    2    3    3    0    0  0.14651485616E+02  0.96314010310E+01  0.21165074424E+03  0.21287301507E+03  0.14541426628E+02 0.  0.
         22    1    3    3    0    0 -0.14651485616E+02 -0.96314010310E+01  0.14767966995E+00  0.17534301408E+02  0.00000000000E+00 0.  1.
         22    1    4    4    0    0  0.21526344055E+01  0.68011120923E+01  0.32951411202E+02  0.33714751382E+02  0.00000000000E+00 0. -1.
         22    1    4    4    0    0  0.12498851211E+02  0.28302889388E+01  0.17869933304E+03  0.17915826369E+03  0.00000000000E+00 0. -1.
<mgrwt>
<rscale>  0 0.90713610E+02</rscale>
<asrwt>0</asrwt>
<pdfrwt beam="1">  1        1 0.34015827E-01 0.90713610E+02</pdfrwt>
<pdfrwt beam="2">  1       -1 0.14314533E-02 0.90713610E+02</pdfrwt>
<totfact> 0.12239785E+05</totfact>
</mgrwt>
</event>
<event>
 7    1  0.3345055E-009  0.8959633E+02  0.7818608E-02  0.1303832E+00
          1   -1    0    0  501    0  0.00000000000E+00  0.00000000000E+00  0.48056599454E+03  0.48056599457E+03  0.50400000000E-02 0.  1.
         -1   -1    0    0    0  501 -0.00000000000E+00 -0.00000000000E+00 -0.41760647083E+01  0.41760677497E+01  0.50400000000E-02 0. -1.
         23    2    1    2    0    0  0.00000000000E+00 -0.44408920985E-15  0.47638992983E+03  0.48474206232E+03  0.89596326562E+02 0.  0.
    9000005    2    3    3    0    0 -0.17206725995E+02 -0.37223630490E+01  0.46106259251E+03  0.46139993997E+03  0.11238273222E+01 0.  0.
         22    1    3    3    0    0  0.17206725995E+02  0.37223630490E+01  0.15327337320E+02  0.23342122343E+02  0.00000000000E+00 0. -1.
         22    1    4    4    0    0 -0.83566349537E+01 -0.20149135071E+01  0.21138315424E+03  0.21155786708E+03  0.00000000000E+00 0.  1.
         22    1    4    4    0    0 -0.88500910414E+01 -0.17074495419E+01  0.24967943827E+03  0.24984207290E+03  0.00000000000E+00 0.  1.
<mgrwt>
<rscale>  0 0.89596327E+02</rscale>
<asrwt>0</asrwt>
<pdfrwt beam="1">  1        1 0.73933211E-01 0.89596327E+02</pdfrwt>
<pdfrwt beam="2">  1       -1 0.64247190E-03 0.89596327E+02</pdfrwt>
<totfact> 0.14515419E+05</totfact>
</mgrwt>
</event>
<event>
 7    1  0.3345055E-009  0.9230019E+02  0.7818608E-02  0.1297375E+00
          1   -1    0    0  501    0  0.00000000000E+00  0.00000000000E+00  0.89976095110E+02  0.89976095251E+02  0.50400000000E-02 0. -1.
         -1   -1    0    0    0  501 -0.00000000000E+00 -0.00000000000E+00 -0.23671081217E+02  0.23671081754E+02  0.50400000000E-02 0.  1.
         23    2    1    2    0    0  0.00000000000E+00  0.00000000000E+00  0.66305013893E+02  0.11364717700E+03  0.92300194874E+02 0.  0.
    9000005    2    3    3    0    0  0.16576774538E+02 -0.41453895590E+02  0.21453953582E+02  0.50363430872E+02  0.91097821699E+01 0.  0.
         22    1    3    3    0    0 -0.16576774538E+02  0.41453895590E+02  0.44851060311E+02  0.63283746133E+02  0.00000000000E+00 0.  1.
         22    1    4    4    0    0  0.15519684649E+02 -0.27913255395E+02  0.14009343230E+02  0.34875093349E+02  0.00000000000E+00 0.  1.
         22    1    4    4    0    0  0.10570898890E+01 -0.13540640195E+02  0.74446103520E+01  0.15488337523E+02  0.00000000000E+00 0.  1.
<mgrwt>
<rscale>  0 0.92300195E+02</rscale>
<asrwt>0</asrwt>
<pdfrwt beam="1">  1        1 0.13842476E-01 0.92300195E+02</pdfrwt>
<pdfrwt beam="2">  1       -1 0.36417048E-02 0.92300195E+02</pdfrwt>
<totfact> 0.99269497E+04</totfact>
</mgrwt>
</event>
<event>
 7    1  0.3345055E-009  0.9130607E+02  0.7818608E-02  0.1299719E+00
          1   -1    0    0  501    0  0.00000000000E+00  0.00000000000E+00  0.45152414879E+01  0.45152443008E+01  0.50400000000E-02 0.  1.
         -1   -1    0    0    0  501 -0.00000000000E+00 -0.00000000000E+00 -0.46159193282E+03  0.46159193285E+03  0.50400000000E-02 0. -1.
         23    2    1    2    0    0 -0.35527136788E-14  0.00000000000E+00 -0.45707669133E+03  0.46610717715E+03  0.91306072252E+02 0.  0.
    9000005    2    3    3    0    0 -0.28618266481E+02  0.16951597418E+02 -0.38654312362E+03  0.38812419179E+03  0.10883014411E+02 0.  0.
         22    1    3    3    0    0  0.28618266481E+02 -0.16951597418E+02 -0.70533567716E+02  0.77982985363E+02  0.00000000000E+00 0.  1.
         22    1    4    4    0    0 -0.15454084848E+02  0.15027969247E+02 -0.25533706508E+03  0.25624536172E+03  0.00000000000E+00 0.  1.
         22    1    4    4    0    0 -0.13164181633E+02  0.19236281712E+01 -0.13120605854E+03  0.13187883007E+03  0.00000000000E+00 0.  1.
<mgrwt>
<rscale>  0 0.91306072E+02</rscale>
<asrwt>0</asrwt>
<pdfrwt beam="1">  1        1 0.69465312E-03 0.91306072E+02</pdfrwt>
<pdfrwt beam="2">  1       -1 0.71014106E-01 0.91306072E+02</pdfrwt>
<totfact> 0.49150824E+04</totfact>
</mgrwt>
</event>
<event>
 7    1  0.3345055E-009  0.9103035E+02  0.7818608E-02  0.1300376E+00
          1   -1    0    0  501    0  0.00000000000E+00  0.00000000000E+00  0.11115651295E+02  0.11115652437E+02  0.50400000000E-02 0.  1.
         -1   -1    0    0    0  501 -0.00000000000E+00 -0.00000000000E+00 -0.18637064417E+03  0.18637064423E+03  0.50400000000E-02 0. -1.
         23    2    1    2    0    0  0.00000000000E+00  0.00000000000E+00 -0.17525499287E+03  0.19748629667E+03  0.91030351239E+02 0.  0.
    9000005    2    3    3    0    0  0.42656196601E+02  0.93690970187E+01 -0.66208667574E+02  0.80019568837E+02  0.10593047129E+02 0.  0.
         22    1    3    3    0    0 -0.42656196601E+02 -0.93690970187E+01 -0.10904632530E+03  0.11746672783E+03  0.00000000000E+00 0.  1.
         22    1    4    4    0    0  0.22875541899E+02  0.21710456077E+01 -0.26486801060E+02  0.35065003730E+02  0.00000000000E+00 0.  1.
         22    1    4    4    0    0  0.19780654702E+02  0.71980514110E+01 -0.39721866514E+02  0.44954565107E+02  0.00000000000E+00 0.  1.
<mgrwt>
<rscale>  0 0.91030351E+02</rscale>
<asrwt>0</asrwt>
<pdfrwt beam="1">  1        1 0.17101004E-02 0.91030351E+02</pdfrwt>
<pdfrwt beam="2">  1       -1 0.28672405E-01 0.91030351E+02</pdfrwt>
<totfact> 0.71102006E+04</totfact>
</mgrwt>
</event>
<event>
 7    1  0.3345055E-009  0.9231915E+02  0.7818608E-02  0.1297331E+00
          1   -1    0    0  501    0  0.00000000000E+00  0.00000000000E+00  0.10891054264E+03  0.10891054275E+03  0.50400000000E-02 0. -1.
         -1   -1    0    0    0  501 -0.00000000000E+00 -0.00000000000E+00 -0.19563820615E+02  0.19563821264E+02  0.50400000000E-02 0.  1.
         23    2    1    2    0    0  0.00000000000E+00  0.71054273576E-14  0.89346722020E+02  0.12847436402E+03  0.92319150091E+02 0.  0.
    9000005    2    3    3    0    0  0.16481440421E+02 -0.41185698706E+02  0.55988287496E+02  0.72970446945E+02  0.14902957236E+02 0.  0.
         22    1    3    3    0    0 -0.16481440421E+02  0.41185698706E+02  0.33358434524E+02  0.55503917070E+02  0.00000000000E+00 0.  1.
         22    1    4    4    0    0  0.56143627503E+01 -0.18312072796E+01  0.84089738371E+01  0.10275467395E+02  0.00000000000E+00 0. -1.
         22    1    4    4    0    0  0.10867077671E+02 -0.39354491427E+02  0.47579313659E+02  0.62694979550E+02  0.00000000000E+00 0. -1.
<mgrwt>
<rscale>  0 0.92319150E+02</rscale>
<asrwt>0</asrwt>
<pdfrwt beam="1">  1        1 0.16755468E-01 0.92319150E+02</pdfrwt>
<pdfrwt beam="2">  1       -1 0.30098186E-02 0.92319150E+02</pdfrwt>
<totfact> 0.10242673E+05</totfact>
</mgrwt>
</event>
<event>
 7    1  0.3345055E-009  0.8827664E+02  0.7818608E-02  0.1307080E+00
          1   -1    0    0  501    0  0.00000000000E+00  0.00000000000E+00  0.26909313005E+02  0.26909313477E+02  0.50400000000E-02 0. -1.
         -1   -1    0    0    0  501 -0.00000000000E+00 -0.00000000000E+00 -0.72398395828E+02  0.72398396004E+02  0.50400000000E-02 0.  1.
         23    2    1    2    0    0  0.00000000000E+00  0.00000000000E+00 -0.45489082823E+02  0.99307709481E+02  0.88276636242E+02 0.  0.
    9000005    2    3    3    0    0  0.20901751280E+02  0.34852628666E+02 -0.37436415252E+01  0.41047338724E+02  0.43909262114E+01 0.  0.
         22    1    3    3    0    0 -0.20901751280E+02 -0.34852628666E+02 -0.41745441298E+02  0.58260370756E+02  0.00000000000E+00 0.  1.
         22    1    4    4    0    0  0.94994620144E+01  0.11722292812E+02 -0.14147163752E+01  0.15154317859E+02  0.00000000000E+00 0.  1.
         22    1    4    4    0    0  0.11402289265E+02  0.23130335854E+02 -0.23289251500E+01  0.25893020866E+02  0.00000000000E+00 0.  1.
<mgrwt>
<rscale>  0 0.88276636E+02</rscale>
<asrwt>0</asrwt>
<pdfrwt beam="1">  1        1 0.41398944E-02 0.88276636E+02</pdfrwt>
<pdfrwt beam="2">  1       -1 0.11138215E-01 0.88276636E+02</pdfrwt>
<totfact> 0.93458807E+04</totfact>
</mgrwt>
</event>
<event>
 7    1  0.3345055E-009  0.9128919E+02  0.7818608E-02  0.1299759E+00
          1   -1    0    0  501    0  0.00000000000E+00  0.00000000000E+00  0.10348823078E+02  0.10348824305E+02  0.50400000000E-02 0. -1.
         -1   -1    0    0    0  501 -0.00000000000E+00 -0.00000000000E+00 -0.20132036030E+03  0.20132036037E+03  0.50400000000E-02 0.  1.
         23    2    1    2    0    0  0.00000000000E+00  0.71054273576E-14 -0.19097153723E+03  0.21166918467E+03  0.91289187252E+02 0.  0.
    9000005    2    3    3    0    0 -0.19352326387E+02 -0.36046758304E+02 -0.50802754312E+02  0.65651483606E+02  0.74374816419E+01 0.  0.
         22    1    3    3    0    0  0.19352326387E+02  0.36046758304E+02 -0.14016878292E+03  0.14601770107E+03  0.00000000000E+00 0.  1.
         22    1    4    4    0    0 -0.16161591109E+02 -0.24309863027E+02 -0.32608762809E+02  0.43766401263E+02  0.00000000000E+00 0. -1.
         22    1    4    4    0    0 -0.31907352781E+01 -0.11736895277E+02 -0.18193991503E+02  0.21885082343E+02  0.00000000000E+00 0. -1.
<mgrwt>
<rscale>  0 0.91289187E+02</rscale>
<asrwt>0</asrwt>
<pdfrwt beam="1">  1        1 0.15921269E-02 0.91289187E+02</pdfrwt>
<pdfrwt beam="2">  1       -1 0.30972360E-01 0.91289187E+02</pdfrwt>
<totfact> 0.69071530E+04</totfact>
</mgrwt>
</event>
<event>
 6    1  0.3345055E-009  0.1147416E+04  0.7818608E-02  0.9160171E-01
         -1   -1    0    0    0  501 -0.00000000000E+00  0.00000000000E+00  0.70382454696E+03  0.70382454697E+03  0.50400000000E-02 0.  1.
          1   -1    0    0  501    0  0.00000000000E+00 -0.00000000000E+00 -0.46764617515E+03  0.46764617517E+03  0.50400000000E-02 0. -1.
    9000005    2    1    2    0    0 -0.42392233457E+02  0.51390291077E+03 -0.13859255110E+03  0.53401754911E+03  0.85758023510E+01 0.  0.
         22    1    1    2    0    0  0.42392233457E+02 -0.51390291077E+03  0.37477092291E+03  0.63745317303E+03  0.00000000000E+00 0.  1.
         22    1    3    3    0    0 -0.62801786184E+01  0.67665959299E+02 -0.21194604894E+02  0.71185208912E+02  0.00000000000E+00 0.  1.
         22    1    3    3    0    0 -0.36112054839E+02  0.44623695147E+03 -0.11739794621E+03  0.46283234020E+03  0.00000000000E+00 0.  1.
<mgrwt>
<rscale>  0 0.11474160E+04</rscale>
<asrwt>0</asrwt>
<pdfrwt beam="2">  1        1 0.71945566E-01 0.11474160E+04</pdfrwt>
<pdfrwt beam="1">  1       -1 0.10828070E+00 0.11474160E+04</pdfrwt>
<totfact> 0.38253571E+01</totfact>
</mgrwt>
</event>
<event>
 7    1  0.3345055E-009  0.7790607E+02  0.7818608E-02  0.1335101E+00
         -1   -1    0    0    0  501 -0.00000000000E+00  0.00000000000E+00  0.31989523723E+02  0.31989524120E+02  0.50400000000E-02 0.  1.
          1   -1    0    0  501    0  0.00000000000E+00 -0.00000000000E+00 -0.47432365696E+02  0.47432365963E+02  0.50400000000E-02 0. -1.
         23    2    1    2    0    0  0.00000000000E+00  0.00000000000E+00 -0.15442841972E+02  0.79421890084E+02  0.77906066878E+02 0.  0.
    9000005    2    3    3    0    0  0.16264144576E+02 -0.16349008861E+02  0.23991235182E+02  0.33739738968E+02  0.55658000811E+01 0.  0.
         22    1    3    3    0    0 -0.16264144576E+02  0.16349008861E+02 -0.39434077155E+02  0.45682151116E+02  0.00000000000E+00 0. -1.
         22    1    4    4    0    0  0.18863568875E+01 -0.33461254584E+01  0.68939466201E+01  0.78918564287E+01  0.00000000000E+00 0.  1.
         22    1    4    4    0    0  0.14377787688E+02 -0.13002883403E+02  0.17097288562E+02  0.25847882540E+02  0.00000000000E+00 0.  1.
<mgrwt>
<rscale>  0 0.77906067E+02</rscale>
<asrwt>0</asrwt>
<pdfrwt beam="2">  1        1 0.72972871E-02 0.77906067E+02</pdfrwt>
<pdfrwt beam="1">  1       -1 0.49214652E-02 0.77906067E+02</pdfrwt>
<totfact> 0.14372238E+05</totfact>
</mgrwt>
</event>
<event>
 7    1  0.3345055E-009  0.8965421E+02  0.7818608E-02  0.1303691E+00
          1   -1    0    0  501    0  0.00000000000E+00  0.00000000000E+00  0.12718462233E+02  0.12718463232E+02  0.50400000000E-02 0. -1.
         -1   -1    0    0    0  501 -0.00000000000E+00 -0.00000000000E+00 -0.15799623566E+03  0.15799623574E+03  0.50400000000E-02 0.  1.
         23    2    1    2    0    0  0.35527136788E-14 -0.35527136788E-14 -0.14527777342E+03  0.17071469897E+03  0.89654207894E+02 0.  0.
    9000005    2    3    3    0    0  0.26789927143E+02 -0.20411773187E+02 -0.18684471091E+02  0.39717733827E+02  0.96978471551E+01 0.  0.
         22    1    3    3    0    0 -0.26789927143E+02  0.20411773187E+02 -0.12659330233E+03  0.13099696514E+03  0.00000000000E+00 0.  1.
         22    1    4    4    0    0  0.10954512901E+02 -0.14346886964E+02 -0.86807458193E+01  0.20029724572E+02  0.00000000000E+00 0.  1.
         22    1    4    4    0    0  0.15835414241E+02 -0.60648862230E+01 -0.10003725272E+02  0.19688009255E+02  0.00000000000E+00 0.  1.
<mgrwt>
<rscale>  0 0.89654208E+02</rscale>
<asrwt>0</asrwt>
<pdfrwt beam="1">  1        1 0.19566867E-02 0.89654208E+02</pdfrwt>
<pdfrwt beam="2">  1       -1 0.24307112E-01 0.89654208E+02</pdfrwt>
<totfact> 0.77168210E+04</totfact>
</mgrwt>
</event>
<event>
 7    1  0.3345055E-009  0.9290691E+02  0.7818608E-02  0.1295961E+00
          1   -1    0    0  501    0  0.00000000000E+00  0.00000000000E+00  0.16115881476E+03  0.16115881484E+03  0.50400000000E-02 0. -1.
         -1   -1    0    0    0  501 -0.00000000000E+00 -0.00000000000E+00 -0.13390041249E+02  0.13390042198E+02  0.50400000000E-02 0.  1.
         23    2    1    2    0    0  0.00000000000E+00  0.00000000000E+00  0.14776877351E+03  0.17454885704E+03  0.92906905385E+02 0.  0.
    9000005    2    3    3    0    0  0.25977522596E+02 -0.16943311420E+02  0.13839391683E+03  0.14214831044E+03  0.95581621465E+01 0.  0.
         22    1    3    3    0    0 -0.25977522596E+02  0.16943311420E+02  0.93748566843E+01  0.32400546599E+02  0.00000000000E+00 0.  1.
         22    1    4    4    0    0  0.80740367261E+01 -0.34622507161E+01  0.59051610739E+02  0.59701507350E+02  0.00000000000E+00 0.  1.
         22    1    4    4    0    0  0.17903485869E+02 -0.13481060704E+02  0.79342306090E+02  0.82446803090E+02  0.00000000000E+00 0.  1.
<mgrwt>
<rscale>  0 0.92906905E+02</rscale>
<asrwt>0</asrwt>
<pdfrwt beam="1">  1        1 0.24793661E-01 0.92906905E+02</pdfrwt>
<pdfrwt beam="2">  1       -1 0.20600066E-02 0.92906905E+02</pdfrwt>
<totfact> 0.10801248E+05</totfact>
</mgrwt>
</event>
<event>
 7    1  0.3345055E-009  0.9164472E+02  0.7818608E-02  0.1298917E+00
         -1   -1    0    0    0  501 -0.00000000000E+00  0.00000000000E+00  0.40533016991E+02  0.40533017304E+02  0.50400000000E-02 0.  1.
          1   -1    0    0  501    0  0.00000000000E+00 -0.00000000000E+00 -0.51801938753E+02  0.51801938998E+02  0.50400000000E-02 0. -1.
         23    2    1    2    0    0  0.00000000000E+00  0.00000000000E+00 -0.11268921762E+02  0.92334956302E+02  0.91644724658E+02 0.  0.
    9000005    2    3    3    0    0 -0.35697173770E+02  0.14912717019E+02  0.18101185370E+02  0.43762530616E+02  0.95304160516E+01 0.  0.
         22    1    3    3    0    0  0.35697173770E+02 -0.14912717019E+02 -0.29370107133E+02  0.48572425686E+02  0.00000000000E+00 0. -1.
         22    1    4    4    0    0 -0.32635939356E+02  0.12247578877E+02  0.18859945959E+02  0.39633386022E+02  0.00000000000E+00 0. -1.
         22    1    4    4    0    0 -0.30612344132E+01  0.26651381419E+01 -0.75876058853E+00  0.41291445941E+01  0.00000000000E+00 0. -1.
<mgrwt>
<rscale>  0 0.91644725E+02</rscale>
<asrwt>0</asrwt>
<pdfrwt beam="2">  1        1 0.79695290E-02 0.91644725E+02</pdfrwt>
<pdfrwt beam="1">  1       -1 0.62358488E-02 0.91644725E+02</pdfrwt>
<totfact> 0.92924672E+04</totfact>
</mgrwt>
</event>
<event>
 7    1  0.3345055E-009  0.9300805E+02  0.7818608E-02  0.1295727E+00
         -1   -1    0    0    0  501 -0.00000000000E+00  0.00000000000E+00  0.40661957881E+02  0.40661958193E+02  0.50400000000E-02 0.  1.
          1   -1    0    0  501    0  0.00000000000E+00 -0.00000000000E+00 -0.53185439374E+02  0.53185439613E+02  0.50400000000E-02 0. -1.
         23    2    1    2    0    0  0.00000000000E+00  0.00000000000E+00 -0.12523481493E+02  0.93847397806E+02  0.93008045277E+02 0.  0.
    9000005    2    3    3    0    0 -0.12112040361E+02 -0.38594110944E+02  0.15073197913E+02  0.44880228850E+02  0.12281153248E+02 0.  0.
         22    1    3    3    0    0  0.12112040361E+02  0.38594110944E+02 -0.27596679407E+02  0.48967168955E+02  0.00000000000E+00 0. -1.
         22    1    4    4    0    0 -0.12376921826E+02 -0.20223554835E+02  0.63729612919E+01  0.24551883831E+02  0.00000000000E+00 0.  1.
         22    1    4    4    0    0  0.26488146518E+00 -0.18370556109E+02  0.87002366215E+01  0.20328345019E+02  0.00000000000E+00 0.  1.
<mgrwt>
<rscale>  0 0.93008045E+02</rscale>
<asrwt>0</asrwt>
<pdfrwt beam="2">  1        1 0.81823754E-02 0.93008045E+02</pdfrwt>
<pdfrwt beam="1">  1       -1 0.62556858E-02 0.93008045E+02</pdfrwt>
<totfact> 0.89521547E+04</totfact>
</mgrwt>
</event>
<event>
 7    1  0.3345055E-009  0.9134583E+02  0.7818608E-02  0.1299625E+00
          1   -1    0    0  501    0  0.00000000000E+00  0.00000000000E+00  0.27191838559E+02  0.27191839026E+02  0.50400000000E-02 0. -1.
         -1   -1    0    0    0  501 -0.00000000000E+00 -0.00000000000E+00 -0.76714743614E+02  0.76714743779E+02  0.50400000000E-02 0.  1.
         23    2    1    2    0    0  0.00000000000E+00  0.00000000000E+00 -0.49522905054E+02  0.10390658281E+03  0.91345825440E+02 0.  0.
    9000005    2    3    3    0    0  0.20632121354E+02  0.25134412958E+02  0.10659271861E+02  0.35501045277E+02  0.94488619856E+01 0.  0.
         22    1    3    3    0    0 -0.20632121354E+02 -0.25134412958E+02 -0.60182176915E+02  0.68405537529E+02  0.00000000000E+00 0.  1.
         22    1    4    4    0    0  0.60855059346E+01  0.70436325607E+01  0.77370308402E+01  0.12104040167E+02  0.00000000000E+00 0. -1.
         22    1    4    4    0    0  0.14546615419E+02  0.18090780398E+02  0.29222410209E+01  0.23397005110E+02  0.00000000000E+00 0. -1.
<mgrwt>
<rscale>  0 0.91345825E+02</rscale>
<asrwt>0</asrwt>
<pdfrwt beam="1">  1        1 0.41833599E-02 0.91345825E+02</pdfrwt>
<pdfrwt beam="2">  1       -1 0.11802268E-01 0.91345825E+02</pdfrwt>
<totfact> 0.84845409E+04</totfact>
</mgrwt>
</event>
<event>
 7    1  0.3345055E-009  0.9198384E+02  0.7818608E-02  0.1298117E+00
         -1   -1    0    0    0  501 -0.00000000000E+00  0.00000000000E+00  0.11081475975E+02  0.11081477121E+02  0.50400000000E-02 0.  1.
          1   -1    0    0  501    0  0.00000000000E+00 -0.00000000000E+00 -0.19088219548E+03  0.19088219554E+03  0.50400000000E-02 0. -1.
         23    2    1    2    0    0  0.00000000000E+00  0.00000000000E+00 -0.17980071950E+03  0.20196367266E+03  0.91983837397E+02 0.  0.
    9000005    2    3    3    0    0  0.37694472946E+02 -0.60357260053E+01 -0.38967361820E+02  0.56048156302E+02  0.12870013928E+02 0.  0.
         22    1    3    3    0    0 -0.37694472946E+02  0.60357260053E+01 -0.14083335768E+03  0.14591551636E+03  0.00000000000E+00 0. -1.
         22    1    4    4    0    0  0.10698816755E+02 -0.44158957581E+01 -0.49446295141E+01  0.12586269357E+02  0.00000000000E+00 0.  1.
         22    1    4    4    0    0  0.26995656192E+02 -0.16198302472E+01 -0.34022732305E+02  0.43461886945E+02  0.00000000000E+00 0.  1.
<mgrwt>
<rscale>  0 0.91983837E+02</rscale>
<asrwt>0</asrwt>
<pdfrwt beam="2">  1        1 0.29366489E-01 0.91983837E+02</pdfrwt>
<pdfrwt beam="1">  1       -1 0.17048427E-02 0.91983837E+02</pdfrwt>
<totfact> 0.11459569E+05</totfact>
</mgrwt>
</event>
<event>
 7    1  0.3345055E-009  0.9547072E+02  0.7818608E-02  0.1290119E+00
         -1   -1    0    0    0  501 -0.00000000000E+00  0.00000000000E+00  0.42384680367E+02  0.42384680666E+02  0.50400000000E-02 0.  1.
          1   -1    0    0  501    0  0.00000000000E+00 -0.00000000000E+00 -0.53761519012E+02  0.53761519248E+02  0.50400000000E-02 0. -1.
         23    2    1    2    0    0 -0.35527136788E-14  0.00000000000E+00 -0.11376838645E+02  0.96146199915E+02  0.95470724835E+02 0.  0.
    9000005    2    3    3    0    0 -0.25491818264E+02  0.24449504154E+02  0.25059081384E+02  0.45399896402E+02  0.13622847786E+02 0.  0.
         22    1    3    3    0    0  0.25491818264E+02 -0.24449504154E+02 -0.36435920029E+02  0.50746303512E+02  0.00000000000E+00 0. -1.
         22    1    4    4    0    0 -0.75456784664E+00  0.62791794448E+01  0.10046787551E+01  0.64036588398E+01  0.00000000000E+00 0.  1.
         22    1    4    4    0    0 -0.24737250417E+02  0.18170324709E+02  0.24054402629E+02  0.38996237563E+02  0.00000000000E+00 0.  1.
<mgrwt>
<rscale>  0 0.95470725E+02</rscale>
<asrwt>0</asrwt>
<pdfrwt beam="2">  1        1 0.82710030E-02 0.95470725E+02</pdfrwt>
<pdfrwt beam="1">  1       -1 0.65207201E-02 0.95470725E+02</pdfrwt>
<totfact> 0.83334919E+04</totfact>
</mgrwt>
</event>
<event>
 7    1  0.3345055E-009  0.9045300E+02  0.7818608E-02  0.1301758E+00
          1   -1    0    0  501    0  0.00000000000E+00  0.00000000000E+00  0.37389972396E+03  0.37389972400E+03  0.50400000000E-02 0. -1.
         -1   -1    0    0    0  501 -0.00000000000E+00 -0.00000000000E+00 -0.54705463436E+01  0.54705486652E+01  0.50400000000E-02 0.  1.
         23    2    1    2    0    0  0.71054273576E-14  0.00000000000E+00  0.36842917762E+03  0.37937027266E+03  0.90452998062E+02 0.  0.
    9000005    2    3    3    0    0 -0.44003074836E+02 -0.49276509242E+01  0.18648534390E+03  0.19211613795E+03  0.13087193448E+02 0.  0.
         22    1    3    3    0    0  0.44003074836E+02  0.49276509242E+01  0.18194383371E+03  0.18725413471E+03  0.00000000000E+00 0. -1.
         22    1    4    4    0    0 -0.80744861061E+01  0.14795770354E+01  0.18946225609E+02  0.20648146138E+02  0.00000000000E+00 0.  1.
         22    1    4    4    0    0 -0.35928588730E+02 -0.64072279596E+01  0.16753911830E+03  0.17146799182E+03  0.00000000000E+00 0.  1.
<mgrwt>
<rscale>  0 0.90452998E+02</rscale>
<asrwt>0</asrwt>
<pdfrwt beam="1">  1        1 0.57523048E-01 0.90452998E+02</pdfrwt>
<pdfrwt beam="2">  1       -1 0.84162250E-03 0.90452998E+02</pdfrwt>
<totfact> 0.13621912E+05</totfact>
</mgrwt>
</event>
<event>
 7    1  0.3345055E-009  0.9014650E+02  0.7818608E-02  0.1302497E+00
         -1   -1    0    0    0  501 -0.00000000000E+00  0.00000000000E+00  0.15883029295E+03  0.15883029303E+03  0.50400000000E-02 0.  1.
          1   -1    0    0  501    0  0.00000000000E+00 -0.00000000000E+00 -0.12790996226E+02  0.12790997219E+02  0.50400000000E-02 0. -1.
         23    2    1    2    0    0  0.00000000000E+00  0.00000000000E+00  0.14603929672E+03  0.17162129025E+03  0.90146497875E+02 0.  0.
    9000005    2    3    3    0    0 -0.34856563953E+02  0.12149438551E+02  0.25705418974E+02  0.45752981919E+02  0.83652783630E+01 0.  0.
         22    1    3    3    0    0  0.34856563953E+02 -0.12149438551E+02  0.12033387775E+03  0.12586830833E+03  0.00000000000E+00 0.  1.
         22    1    4    4    0    0 -0.12632644706E+02  0.35369070811E+01  0.45531733288E+01  0.13886137380E+02  0.00000000000E+00 0. -1.
         22    1    4    4    0    0 -0.22223919247E+02  0.86125314695E+01  0.21152245645E+02  0.31866844539E+02  0.00000000000E+00 0. -1.
<mgrwt>
<rscale>  0 0.90146498E+02</rscale>
<asrwt>0</asrwt>
<pdfrwt beam="2">  1        1 0.19678455E-02 0.90146498E+02</pdfrwt>
<pdfrwt beam="1">  1       -1 0.24435432E-01 0.90146498E+02</pdfrwt>
<totfact> 0.75983198E+04</totfact>
</mgrwt>
</event>
<event>
 7    1  0.3345055E-009  0.1103610E+03  0.7818608E-02  0.1259903E+00
         -1   -1    0    0    0  501 -0.00000000000E+00  0.00000000000E+00  0.24667131031E+01  0.24667182519E+01  0.50400000000E-02 0.  1.
          1   -1    0    0  501    0  0.00000000000E+00 -0.00000000000E+00 -0.12343891470E+04  0.12343891470E+04  0.50400000000E-02 0. -1.
         23    2    1    2    0    0  0.00000000000E+00  0.00000000000E+00 -0.12319224339E+04  0.12368558653E+04  0.11036099082E+03 0.  0.
    9000005    2    3    3    0    0 -0.72849687570E+01  0.40034704696E+02 -0.10317447715E+04  0.10325841225E+04  0.87663142219E+01 0.  0.
         22    1    3    3    0    0  0.72849687570E+01 -0.40034704696E+02 -0.20017766239E+03  0.20427174271E+03  0.00000000000E+00 0.  1.
         22    1    4    4    0    0 -0.92765934968E+01  0.34209430666E+02 -0.86606322354E+03  0.86678823682E+03  0.00000000000E+00 0.  1.
         22    1    4    4    0    0  0.19916247397E+01  0.58252740306E+01 -0.16568154796E+03  0.16579588572E+03  0.00000000000E+00 0.  1.
<mgrwt>
<rscale>  0 0.11036099E+03</rscale>
<asrwt>0</asrwt>
<pdfrwt beam="2">  1        1 0.18990553E+00 0.11036099E+03</pdfrwt>
<pdfrwt beam="1">  1       -1 0.37949571E-03 0.11036099E+03</pdfrwt>
<totfact> 0.75425628E+04</totfact>
</mgrwt>
</event>
<event>
 7    1  0.3345055E-009  0.9295430E+02  0.7818608E-02  0.1295851E+00
         -1   -1    0    0    0  501 -0.00000000000E+00  0.00000000000E+00  0.28014269951E+03  0.28014269955E+03  0.50400000000E-02 0.  1.
          1   -1    0    0  501    0  0.00000000000E+00 -0.00000000000E+00 -0.77108029371E+01  0.77108045842E+01  0.50400000000E-02 0. -1.
         23    2    1    2    0    0 -0.71054273576E-14  0.35527136788E-14  0.27243189657E+03  0.28785350414E+03  0.92954298314E+02 0.  0.
    9000005    2    3    3    0    0 -0.29726246236E+02  0.15899202433E+02  0.23319635447E+03  0.23612476824E+03  0.15425047360E+02 0.  0.
         22    1    3    3    0    0  0.29726246236E+02 -0.15899202433E+02  0.39235542099E+02  0.51728735894E+02  0.00000000000E+00 0. -1.
         22    1    4    4    0    0 -0.10738418646E+02  0.50221979802E+00  0.11016397157E+03  0.11068724629E+03  0.00000000000E+00 0.  1.
         22    1    4    4    0    0 -0.18987827590E+02  0.15396982635E+02  0.12303238290E+03  0.12543752195E+03  0.00000000000E+00 0.  1.
<mgrwt>
<rscale>  0 0.92954298E+02</rscale>
<asrwt>0</asrwt>
<pdfrwt beam="2">  1        1 0.11862774E-02 0.92954298E+02</pdfrwt>
<pdfrwt beam="1">  1       -1 0.43098879E-01 0.92954298E+02</pdfrwt>
<totfact> 0.59131211E+04</totfact>
</mgrwt>
</event>
<event>
 7    1  0.3345055E-009  0.8884258E+02  0.7818608E-02  0.1305679E+00
         -1   -1    0    0    0  501 -0.00000000000E+00  0.00000000000E+00  0.20191558900E+02  0.20191559529E+02  0.50400000000E-02 0.  1.
          1   -1    0    0  501    0  0.00000000000E+00 -0.00000000000E+00 -0.97726535164E+02  0.97726535294E+02  0.50400000000E-02 0. -1.
         23    2    1    2    0    0  0.00000000000E+00  0.35527136788E-14 -0.77534976264E+02  0.11791809482E+03  0.88842582934E+02 0.  0.
    9000005    2    3    3    0    0  0.36985535467E+02  0.23075472562E+02 -0.48734815390E+02  0.65670065825E+02  0.60883533531E+01 0.  0.
         22    1    3    3    0    0 -0.36985535467E+02 -0.23075472562E+02 -0.28800160873E+02  0.52248028997E+02  0.00000000000E+00 0. -1.
         22    1    4    4    0    0  0.94468213972E+00  0.10190609771E+01 -0.35213690761E+01  0.37856240952E+01  0.00000000000E+00 0. -1.
         22    1    4    4    0    0  0.36040853328E+02  0.22056411585E+02 -0.45213446314E+02  0.61884441730E+02  0.00000000000E+00 0. -1.
<mgrwt>
<rscale>  0 0.88842583E+02</rscale>
<asrwt>0</asrwt>
<pdfrwt beam="2">  1        1 0.15034851E-01 0.88842583E+02</pdfrwt>
<pdfrwt beam="1">  1       -1 0.31063938E-02 0.88842583E+02</pdfrwt>
<totfact> 0.11166274E+05</totfact>
</mgrwt>
</event>
<event>
 7    1  0.3345055E-009  0.9196511E+02  0.7818608E-02  0.1298161E+00
         -1   -1    0    0    0  501 -0.00000000000E+00  0.00000000000E+00  0.25290676576E+02  0.25290677078E+02  0.50400000000E-02 0.  1.
          1   -1    0    0  501    0  0.00000000000E+00 -0.00000000000E+00 -0.83603738470E+02  0.83603738621E+02  0.50400000000E-02 0. -1.
         23    2    1    2    0    0  0.00000000000E+00  0.22204460493E-15 -0.58313061894E+02  0.10889441570E+03  0.91965105247E+02 0.  0.
    9000005    2    3    3    0    0  0.43635720269E+02 -0.78705484408E+00 -0.13688041606E+02  0.46475764846E+02  0.82424933309E+01 0.  0.
         22    1    3    3    0    0 -0.43635720269E+02  0.78705484408E+00 -0.44625020287E+02  0.62418650853E+02  0.00000000000E+00 0.  1.
         22    1    4    4    0    0  0.24330424484E+02 -0.44831314143E+01 -0.82917852495E+01  0.26092560730E+02  0.00000000000E+00 0.  1.
         22    1    4    4    0    0  0.19305295785E+02  0.36960765702E+01 -0.53962563568E+01  0.20383204116E+02  0.00000000000E+00 0.  1.
<mgrwt>
<rscale>  0 0.91965105E+02</rscale>
<asrwt>0</asrwt>
<pdfrwt beam="2">  1        1 0.12862113E-01 0.91965105E+02</pdfrwt>
<pdfrwt beam="1">  1       -1 0.38908734E-02 0.91965105E+02</pdfrwt>
<totfact> 0.99081220E+04</totfact>
</mgrwt>
</event>
<event>
 7    1  0.3345055E-009  0.9116762E+02  0.7818608E-02  0.1300049E+00
         -1   -1    0    0    0  501 -0.00000000000E+00  0.00000000000E+00  0.14446888918E+02  0.14446889797E+02  0.50400000000E-02 0.  1.
          1   -1    0    0  501    0  0.00000000000E+00 -0.00000000000E+00 -0.14382915049E+03  0.14382915058E+03  0.50400000000E-02 0. -1.
         23    2    1    2    0    0  0.00000000000E+00  0.00000000000E+00 -0.12938226158E+03  0.15827604038E+03  0.91167622256E+02 0.  0.
    9000005    2    3    3    0    0  0.14416915422E+02  0.19198791715E+02 -0.13173223419E+03  0.13415212227E+03  0.81834791368E+01 0.  0.
         22    1    3    3    0    0 -0.14416915422E+02 -0.19198791715E+02  0.23499726174E+01  0.24123918108E+02  0.00000000000E+00 0.  1.
         22    1    4    4    0    0  0.49637435894E+01  0.20031466962E+01 -0.19693220383E+02  0.20407701393E+02  0.00000000000E+00 0. -1.
         22    1    4    4    0    0  0.94531718327E+01  0.17195645018E+02 -0.11203901381E+03  0.11374442088E+03  0.00000000000E+00 0. -1.
<mgrwt>
<rscale>  0 0.91167622E+02</rscale>
<asrwt>0</asrwt>
<pdfrwt beam="2">  1        1 0.22127561E-01 0.91167622E+02</pdfrwt>
<pdfrwt beam="1">  1       -1 0.22225985E-02 0.91167622E+02</pdfrwt>
<totfact> 0.11130435E+05</totfact>
</mgrwt>
</event>
<event>
 7    1  0.3345055E-009  0.9149548E+02  0.7818608E-02  0.1299270E+00
          1   -1    0    0  501    0  0.00000000000E+00  0.00000000000E+00  0.36318206185E+03  0.36318206188E+03  0.50400000000E-02 0. -1.
         -1   -1    0    0    0  501 -0.00000000000E+00 -0.00000000000E+00 -0.57625518052E+01  0.57625540092E+01  0.50400000000E-02 0.  1.
         23    2    1    2    0    0 -0.71054273576E-14 -0.44408920985E-15  0.35741951004E+03  0.36894461589E+03  0.91495483148E+02 0.  0.
    9000005    2    3    3    0    0  0.42182409654E+02  0.22507548700E+01  0.24071531898E+03  0.24483059657E+03  0.14619666253E+02 0.  0.
         22    1    3    3    0    0 -0.42182409654E+02 -0.22507548700E+01  0.11670419106E+03  0.12411401932E+03  0.00000000000E+00 0.  1.
         22    1    4    4    0    0  0.75381270509E+01 -0.29814268451E+01  0.24807275763E+02  0.26098145456E+02  0.00000000000E+00 0. -1.
         22    1    4    4    0    0  0.34644282603E+02  0.52321817151E+01  0.21590804322E+03  0.21873245111E+03  0.00000000000E+00 0. -1.
<mgrwt>
<rscale>  0 0.91495483E+02</rscale>
<asrwt>0</asrwt>
<pdfrwt beam="1">  1        1 0.55874178E-01 0.91495483E+02</pdfrwt>
<pdfrwt beam="2">  1       -1 0.88654637E-03 0.91495483E+02</pdfrwt>
<totfact> 0.13147052E+05</totfact>
</mgrwt>
</event>
<event>
 7    1  0.3345055E-009  0.9155178E+02  0.7818608E-02  0.1299137E+00
          1   -1    0    0  501    0  0.00000000000E+00  0.00000000000E+00  0.80967371298E+02  0.80967371454E+02  0.50400000000E-02 0. -1.
         -1   -1    0    0    0  501 -0.00000000000E+00 -0.00000000000E+00 -0.25879956487E+02  0.25879956978E+02  0.50400000000E-02 0.  1.
         23    2    1    2    0    0  0.88817841970E-15  0.00000000000E+00  0.55087414810E+02  0.10684732843E+03  0.91551779462E+02 0.  0.
    9000005    2    3    3    0    0 -0.55594052860E+01  0.35335107839E+02  0.60866685907E+02  0.70613686503E+02  0.14361180815E+01 0.  0.
         22    1    3    3    0    0  0.55594052860E+01 -0.35335107839E+02 -0.57792710966E+01  0.36233641930E+02  0.00000000000E+00 0.  1.
         22    1    4    4    0    0 -0.53220645357E+00  0.16936257670E+01  0.27015851455E+01  0.32326729260E+01  0.00000000000E+00 0. -1.
         22    1    4    4    0    0 -0.50271988324E+01  0.33641482072E+02  0.58165100761E+02  0.67381013577E+02  0.00000000000E+00 0. -1.
<mgrwt>
<rscale>  0 0.91551779E+02</rscale>
<asrwt>0</asrwt>
<pdfrwt beam="1">  1        1 0.12456519E-01 0.91551779E+02</pdfrwt>
<pdfrwt beam="2">  1       -1 0.39815318E-02 0.91551779E+02</pdfrwt>
<totfact> 0.99804173E+04</totfact>
</mgrwt>
</event>
<event>
 7    1  0.3345055E-009  0.9113124E+02  0.7818608E-02  0.1300135E+00
          1   -1    0    0  501    0  0.00000000000E+00  0.00000000000E+00  0.14920166621E+02  0.14920167472E+02  0.50400000000E-02 0.  1.
         -1   -1    0    0    0  501 -0.00000000000E+00 -0.00000000000E+00 -0.13915567585E+03  0.13915567594E+03  0.50400000000E-02 0. -1.
         23    2    1    2    0    0  0.00000000000E+00  0.00000000000E+00 -0.12423550923E+03  0.15407584341E+03  0.91131244752E+02 0.  0.
    9000005    2    3    3    0    0  0.25094868917E+02 -0.90889860519E+01 -0.12407944869E+03  0.12738527451E+03  0.10905799468E+02 0.  0.
         22    1    3    3    0    0 -0.25094868917E+02  0.90889860519E+01 -0.15606054037E+00  0.26690568902E+02  0.00000000000E+00 0.  1.
         22    1    4    4    0    0  0.56423854823E+01  0.21479783926E+01 -0.34993529106E+02  0.35510525262E+02  0.00000000000E+00 0.  1.
         22    1    4    4    0    0  0.19452483434E+02 -0.11236964445E+02 -0.89085919582E+02  0.91874749249E+02  0.00000000000E+00 0.  1.
<mgrwt>
<rscale>  0 0.91131245E+02</rscale>
<asrwt>0</asrwt>
<pdfrwt beam="1">  1        1 0.22954104E-02 0.91131245E+02</pdfrwt>
<pdfrwt beam="2">  1       -1 0.21408565E-01 0.91131245E+02</pdfrwt>
<totfact> 0.76181839E+04</totfact>
</mgrwt>
</event>
<event>
 7    1  0.3345055E-009  0.1218120E+03  0.7818608E-02  0.1240137E+00
          1   -1    0    0  501    0  0.00000000000E+00  0.00000000000E+00  0.25769330599E+03  0.25769330604E+03  0.50400000000E-02 0. -1.
         -1   -1    0    0    0  501 -0.00000000000E+00 -0.00000000000E+00 -0.14395173181E+02  0.14395174064E+02  0.50400000000E-02 0.  1.
         23    2    1    2    0    0  0.00000000000E+00  0.00000000000E+00  0.24329813281E+03  0.27208848010E+03  0.12181198454E+03 0.  0.
    9000005    2    3    3    0    0  0.35785510640E+02 -0.52998500529E+01  0.23107915226E+03  0.23390478374E+03  0.22764152604E+01 0.  0.
         22    1    3    3    0    0 -0.35785510640E+02  0.52998500529E+01  0.12218980555E+02  0.38183696366E+02  0.00000000000E+00 0.  1.
         22    1    4    4    0    0  0.19859764865E+02 -0.34279610339E+01  0.12204198577E+03  0.12369481585E+03  0.00000000000E+00 0. -1.
         22    1    4    4    0    0  0.15925745775E+02 -0.18718890190E+01  0.10903716649E+03  0.11020996789E+03  0.00000000000E+00 0. -1.
<mgrwt>
<rscale>  0 0.12181198E+03</rscale>
<asrwt>0</asrwt>
<pdfrwt beam="1">  1        1 0.39645120E-01 0.12181198E+03</pdfrwt>
<pdfrwt beam="2">  1       -1 0.22146423E-02 0.12181198E+03</pdfrwt>
<totfact> 0.56682427E+04</totfact>
</mgrwt>
</event>
<event>
 7    1  0.3345055E-009  0.8949079E+02  0.7818608E-02  0.1304090E+00
         -1   -1    0    0    0  501 -0.00000000000E+00  0.00000000000E+00  0.45977595672E+02  0.45977595949E+02  0.50400000000E-02 0.  1.
          1   -1    0    0  501    0  0.00000000000E+00 -0.00000000000E+00 -0.43546212339E+02  0.43546212630E+02  0.50400000000E-02 0. -1.
         23    2    1    2    0    0  0.00000000000E+00  0.00000000000E+00  0.24313833335E+01  0.89523808579E+02  0.89490785434E+02 0.  0.
    9000005    2    3    3    0    0 -0.11056224670E+02  0.24104349669E+02 -0.33009741223E+02  0.45259453995E+02  0.15984848558E+02 0.  0.
         22    1    3    3    0    0  0.11056224670E+02 -0.24104349669E+02  0.35441124556E+02  0.44264354584E+02  0.00000000000E+00 0.  1.
         22    1    4    4    0    0 -0.15175342574E+02  0.20263735136E+02 -0.26429125307E+02  0.36597932297E+02  0.00000000000E+00 0.  1.
         22    1    4    4    0    0  0.41191179043E+01  0.38406145329E+01 -0.65806159157E+01  0.86615216983E+01  0.00000000000E+00 0.  1.
<mgrwt>
<rscale>  0 0.89490785E+02</rscale>
<asrwt>0</asrwt>
<pdfrwt beam="2">  1        1 0.66994174E-02 0.89490785E+02</pdfrwt>
<pdfrwt beam="1">  1       -1 0.70734763E-02 0.89490785E+02</pdfrwt>
<totfact> 0.96775130E+04</totfact>
</mgrwt>
</event>
<event>
 7    1  0.3345055E-009  0.9260853E+02  0.7818608E-02  0.1296655E+00
          1   -1    0    0  501    0  0.00000000000E+00  0.00000000000E+00  0.10801625331E+03  0.10801625343E+03  0.50400000000E-02 0. -1.
         -1   -1    0    0    0  501 -0.00000000000E+00 -0.00000000000E+00 -0.19849651921E+02  0.19849652561E+02  0.50400000000E-02 0.  1.
         23    2    1    2    0    0  0.00000000000E+00  0.00000000000E+00  0.88166601393E+02  0.12786590599E+03  0.92608532620E+02 0.  0.
    9000005    2    3    3    0    0  0.44809139612E+02 -0.57835385278E+01  0.40747552549E+02  0.62368772437E+02  0.13718324456E+02 0.  0.
         22    1    3    3    0    0 -0.44809139612E+02  0.57835385278E+01  0.47419048844E+02  0.65497133555E+02  0.00000000000E+00 0. -1.
         22    1    4    4    0    0  0.44784862809E+02 -0.36372036722E+01  0.39791663046E+02  0.60019077261E+02  0.00000000000E+00 0. -1.
         22    1    4    4    0    0  0.24276803230E-01 -0.21463348556E+01  0.95588950322E+00  0.23496951756E+01  0.00000000000E+00 0. -1.
<mgrwt>
<rscale>  0 0.92608533E+02</rscale>
<asrwt>0</asrwt>
<pdfrwt beam="1">  1        1 0.16617885E-01 0.92608533E+02</pdfrwt>
<pdfrwt beam="2">  1       -1 0.30537926E-02 0.92608533E+02</pdfrwt>
<totfact> 0.10141345E+05</totfact>
</mgrwt>
</event>
<event>
 7    1  0.3345055E-009  0.9014062E+02  0.7818608E-02  0.1302512E+00
          1   -1    0    0  501    0  0.00000000000E+00  0.00000000000E+00  0.68181353634E+03  0.68181353636E+03  0.50400000000E-02 0. -1.
         -1   -1    0    0    0  501 -0.00000000000E+00 -0.00000000000E+00 -0.29793064223E+01  0.29793106853E+01  0.50400000000E-02 0.  1.
         23    2    1    2    0    0  0.00000000000E+00  0.00000000000E+00  0.67883422992E+03  0.68479284704E+03  0.90140621556E+02 0.  0.
    9000005    2    3    3    0    0  0.52260926511E+01 -0.36487360534E+02  0.53435389080E+03  0.53568480597E+03  0.80926636079E+01 0.  0.
         22    1    3    3    0    0 -0.52260926511E+01  0.36487360534E+02  0.14448033911E+03  0.14910804107E+03  0.00000000000E+00 0.  1.
         22    1    4    4    0    0  0.39369561482E+01 -0.10696217914E+02  0.20725485461E+03  0.20756802128E+03  0.00000000000E+00 0. -1.
         22    1    4    4    0    0  0.12891365030E+01 -0.25791142620E+02  0.32709903619E+03  0.32811678468E+03  0.00000000000E+00 0. -1.
<mgrwt>
<rscale>  0 0.90140622E+02</rscale>
<asrwt>0</asrwt>
<pdfrwt beam="1">  1        1 0.10489430E+00 0.90140622E+02</pdfrwt>
<pdfrwt beam="2">  1       -1 0.45835556E-03 0.90140622E+02</pdfrwt>
<totfact> 0.14654621E+05</totfact>
</mgrwt>
</event>
<event>
 7    1  0.3345055E-009  0.9177664E+02  0.7818608E-02  0.1298605E+00
          1   -1    0    0  501    0  0.00000000000E+00  0.00000000000E+00  0.58522348009E+02  0.58522348226E+02  0.50400000000E-02 0. -1.
         -1   -1    0    0    0  501 -0.00000000000E+00 -0.00000000000E+00 -0.35981774674E+02  0.35981775027E+02  0.50400000000E-02 0.  1.
         23    2    1    2    0    0 -0.44408920985E-15  0.00000000000E+00  0.22540573335E+02  0.94504123253E+02  0.91776641176E+02 0.  0.
    9000005    2    3    3    0    0  0.23986906911E+01 -0.22632100661E+02 -0.28393133406E+02  0.38716954659E+02  0.13223723233E+02 0.  0.
         22    1    3    3    0    0 -0.23986906911E+01  0.22632100661E+02  0.50933706741E+02  0.55787168594E+02  0.00000000000E+00 0. -1.
         22    1    4    4    0    0 -0.42822387504E+01 -0.27206169052E+01 -0.77871282714E+01  0.92940137602E+01  0.00000000000E+00 0. -1.
         22    1    4    4    0    0  0.66809294416E+01 -0.19911483755E+02 -0.20606005134E+02  0.29422940899E+02  0.00000000000E+00 0. -1.
<mgrwt>
<rscale>  0 0.91776641E+02</rscale>
<asrwt>0</asrwt>
<pdfrwt beam="1">  1        1 0.90034381E-02 0.91776641E+02</pdfrwt>
<pdfrwt beam="2">  1       -1 0.55356578E-02 0.91776641E+02</pdfrwt>
<totfact> 0.94274048E+04</totfact>
</mgrwt>
</event>
<event>
 7    1  0.3345055E-009  0.9717609E+02  0.7818608E-02  0.1286349E+00
          1   -1    0    0  501    0  0.00000000000E+00  0.00000000000E+00  0.83067625839E+02  0.83067625992E+02  0.50400000000E-02 0. -1.
         -1   -1    0    0    0  501 -0.00000000000E+00 -0.00000000000E+00 -0.28420197212E+02  0.28420197659E+02  0.50400000000E-02 0.  1.
         23    2    1    2    0    0  0.00000000000E+00  0.00000000000E+00  0.54647428627E+02  0.11148782365E+03  0.97176094626E+02 0.  0.
    9000005    2    3    3    0    0  0.23315684082E+02  0.31422031815E+01 -0.20670080877E+02  0.32581411979E+02  0.89889709113E+01 0.  0.
         22    1    3    3    0    0 -0.23315684082E+02 -0.31422031815E+01  0.75317509504E+02  0.78906411672E+02  0.00000000000E+00 0. -1.
         22    1    4    4    0    0  0.16276253959E+02  0.62828144210E+01 -0.13590912621E+02  0.22115675569E+02  0.00000000000E+00 0.  1.
         22    1    4    4    0    0  0.70394301225E+01 -0.31406112396E+01 -0.70791682564E+01  0.10465736410E+02  0.00000000000E+00 0.  1.
<mgrwt>
<rscale>  0 0.97176095E+02</rscale>
<asrwt>0</asrwt>
<pdfrwt beam="1">  1        1 0.12779634E-01 0.97176095E+02</pdfrwt>
<pdfrwt beam="2">  1       -1 0.43723382E-02 0.97176095E+02</pdfrwt>
<totfact> 0.85024760E+04</totfact>
</mgrwt>
</event>
<event>
 7    1  0.3345055E-009  0.9815812E+02  0.7818608E-02  0.1284218E+00
          1   -1    0    0  501    0  0.00000000000E+00  0.00000000000E+00  0.49500367179E+02  0.49500367435E+02  0.50400000000E-02 0. -1.
         -1   -1    0    0    0  501 -0.00000000000E+00 -0.00000000000E+00 -0.48661334853E+02  0.48661335114E+02  0.50400000000E-02 0.  1.
         23    2    1    2    0    0  0.00000000000E+00  0.35527136788E-14  0.83903232540E+00  0.98161702549E+02  0.98158116690E+02 0.  0.
    9000005    2    3    3    0    0 -0.45447436172E+02  0.15880425064E+02 -0.14330324019E+01  0.49966063400E+02  0.13300246426E+02 0.  0.
         22    1    3    3    0    0  0.45447436172E+02 -0.15880425064E+02  0.22720647274E+01  0.48195639149E+02  0.00000000000E+00 0.  1.
         22    1    4    4    0    0 -0.45899342118E+02  0.16831917598E+02 -0.14923042032E+01  0.48911041992E+02  0.00000000000E+00 0.  1.
         22    1    4    4    0    0  0.45190594528E+00 -0.95149253426E+00  0.59271801220E-01  0.10550214086E+01  0.00000000000E+00 0.  1.
<mgrwt>
<rscale>  0 0.98158117E+02</rscale>
<asrwt>0</asrwt>
<pdfrwt beam="1">  1        1 0.76154411E-02 0.98158117E+02</pdfrwt>
<pdfrwt beam="2">  1       -1 0.74863593E-02 0.98158117E+02</pdfrwt>
<totfact> 0.76062940E+04</totfact>
</mgrwt>
</event>
<event>
 7    1  0.3345055E-009  0.9209723E+02  0.7818608E-02  0.1297851E+00
         -1   -1    0    0    0  501 -0.00000000000E+00  0.00000000000E+00  0.67835329933E+02  0.67835330120E+02  0.50400000000E-02 0.  1.
          1   -1    0    0  501    0  0.00000000000E+00 -0.00000000000E+00 -0.31259152129E+02  0.31259152535E+02  0.50400000000E-02 0. -1.
         23    2    1    2    0    0  0.00000000000E+00  0.00000000000E+00  0.36576177804E+02  0.99094482655E+02  0.92097229654E+02 0.  0.
    9000005    2    3    3    0    0  0.11392593150E+02 -0.27784166292E+02 -0.18583419416E+02  0.36290563664E+02  0.83612474310E+01 0.  0.
         22    1    3    3    0    0 -0.11392593150E+02  0.27784166292E+02  0.55159597220E+02  0.62803918992E+02  0.00000000000E+00 0.  1.
         22    1    4    4    0    0  0.89163144867E+01 -0.11197693202E+02 -0.99139404026E+01  0.17411927274E+02  0.00000000000E+00 0. -1.
         22    1    4    4    0    0  0.24762786631E+01 -0.16586473090E+02 -0.86694790135E+01  0.18878636390E+02  0.00000000000E+00 0. -1.
<mgrwt>
<rscale>  0 0.92097230E+02</rscale>
<asrwt>0</asrwt>
<pdfrwt beam="2">  1        1 0.48091004E-02 0.92097230E+02</pdfrwt>
<pdfrwt beam="1">  1       -1 0.10436205E-01 0.92097230E+02</pdfrwt>
<totfact> 0.84779182E+04</totfact>
</mgrwt>
</event>
<event>
 7    1  0.3345055E-009  0.9108065E+02  0.7818608E-02  0.1300256E+00
          1   -1    0    0  501    0  0.00000000000E+00  0.00000000000E+00  0.99544174763E+03  0.99544174764E+03  0.50400000000E-02 0. -1.
         -1   -1    0    0    0  501 -0.00000000000E+00 -0.00000000000E+00 -0.20834146957E+01  0.20834207918E+01  0.50400000000E-02 0.  1.
         23    2    1    2    0    0 -0.17763568394E-14  0.35527136788E-14  0.99335833293E+03  0.99752516844E+03  0.91080645860E+02 0.  0.
    9000005    2    3    3    0    0 -0.15055077012E+02  0.20099869518E+02  0.91172108391E+03  0.91211263700E+03  0.91360616917E+01 0.  0.
         22    1    3    3    0    0  0.15055077012E+02 -0.20099869518E+02  0.81637249023E+02  0.85412531438E+02  0.00000000000E+00 0.  1.
         22    1    4    4    0    0 -0.43566776388E+01  0.11622190352E+02  0.33455622998E+03  0.33478639006E+03  0.00000000000E+00 0.  1.
         22    1    4    4    0    0 -0.10698399373E+02  0.84776791664E+01  0.57716485393E+03  0.57732624694E+03  0.00000000000E+00 0.  1.
<mgrwt>
<rscale>  0 0.91080646E+02</rscale>
<asrwt>0</asrwt>
<pdfrwt beam="1">  1        1 0.15314486E+00 0.91080646E+02</pdfrwt>
<pdfrwt beam="2">  1       -1 0.32052586E-03 0.91080646E+02</pdfrwt>
<totfact> 0.13655950E+05</totfact>
</mgrwt>
</event>
<event>
 7    1  0.3345055E-009  0.8949326E+02  0.7818608E-02  0.1304083E+00
          1   -1    0    0  501    0  0.00000000000E+00  0.00000000000E+00  0.51788887321E+02  0.51788887566E+02  0.50400000000E-02 0. -1.
         -1   -1    0    0    0  501 -0.00000000000E+00 -0.00000000000E+00 -0.38661979661E+02  0.38661979989E+02  0.50400000000E-02 0.  1.
         23    2    1    2    0    0  0.00000000000E+00  0.00000000000E+00  0.13126907660E+02  0.90450867555E+02  0.89493260846E+02 0.  0.
    9000005    2    3    3    0    0 -0.12767399902E+02  0.13550207321E+02 -0.34183262823E+02  0.39609281724E+02  0.73338341155E+01 0.  0.
         22    1    3    3    0    0  0.12767399902E+02 -0.13550207321E+02  0.47310170483E+02  0.50841585831E+02  0.00000000000E+00 0. -1.
         22    1    4    4    0    0  0.10342519277E-01  0.22522831592E+01 -0.13929535400E+01  0.26482458273E+01  0.00000000000E+00 0. -1.
         22    1    4    4    0    0 -0.12777742422E+02  0.11297924161E+02 -0.32790309282E+02  0.36961035897E+02  0.00000000000E+00 0. -1.
<mgrwt>
<rscale>  0 0.89493261E+02</rscale>
<asrwt>0</asrwt>
<pdfrwt beam="1">  1        1 0.79675211E-02 0.89493261E+02</pdfrwt>
<pdfrwt beam="2">  1       -1 0.59479970E-02 0.89493261E+02</pdfrwt>
<totfact> 0.99280431E+04</totfact>
</mgrwt>
</event>
<event>
 7    1  0.3345055E-009  0.9131988E+02  0.7818608E-02  0.1299687E+00
          1   -1    0    0  501    0  0.00000000000E+00  0.00000000000E+00  0.11163348306E+03  0.11163348318E+03  0.50400000000E-02 0. -1.
         -1   -1    0    0    0  501 -0.00000000000E+00 -0.00000000000E+00 -0.18675670311E+02  0.18675670991E+02  0.50400000000E-02 0.  1.
         23    2    1    2    0    0  0.00000000000E+00  0.00000000000E+00  0.92957812750E+02  0.13030915417E+03  0.91319881233E+02 0.  0.
    9000005    2    3    3    0    0 -0.39569772991E+02  0.15800586914E+02  0.28035390263E+02  0.52653848984E+02  0.13077431869E+02 0.  0.
         22    1    3    3    0    0  0.39569772991E+02 -0.15800586914E+02  0.64922422488E+02  0.77655305183E+02  0.00000000000E+00 0. -1.
         22    1    4    4    0    0 -0.22172716249E+02  0.29731396504E+01  0.18498141446E+02  0.29028436785E+02  0.00000000000E+00 0. -1.
         22    1    4    4    0    0 -0.17397056742E+02  0.12827447263E+02  0.95372488171E+01  0.23625412199E+02  0.00000000000E+00 0. -1.
<mgrwt>
<rscale>  0 0.91319881E+02</rscale>
<asrwt>0</asrwt>
<pdfrwt beam="1">  1        1 0.17174383E-01 0.91319881E+02</pdfrwt>
<pdfrwt beam="2">  1       -1 0.28731800E-02 0.91319881E+02</pdfrwt>
<totfact> 0.10595378E+05</totfact>
</mgrwt>
</event>
<event>
 7    1  0.3345055E-009  0.9081448E+02  0.7818608E-02  0.1300891E+00
         -1   -1    0    0    0  501 -0.00000000000E+00  0.00000000000E+00  0.62371811653E+02  0.62371811856E+02  0.50400000000E-02 0.  1.
          1   -1    0    0  501    0  0.00000000000E+00 -0.00000000000E+00 -0.33056879986E+02  0.33056880371E+02  0.50400000000E-02 0. -1.
         23    2    1    2    0    0  0.00000000000E+00  0.00000000000E+00  0.29314931666E+02  0.95428692227E+02  0.90814481673E+02 0.  0.
    9000005    2    3    3    0    0 -0.18696292152E+02  0.34013768595E+02 -0.94054418943E+01  0.40603924804E+02  0.73299780329E+01 0.  0.
         22    1    3    3    0    0  0.18696292152E+02 -0.34013768595E+02  0.38720373561E+02  0.54824767423E+02  0.00000000000E+00 0.  1.
         22    1    4    4    0    0 -0.73695466567E+01  0.88611267283E+01 -0.21257412829E+00  0.11527140694E+02  0.00000000000E+00 0. -1.
         22    1    4    4    0    0 -0.11326745495E+02  0.25152641867E+02 -0.91928677660E+01  0.29076784110E+02  0.00000000000E+00 0. -1.
<mgrwt>
<rscale>  0 0.90814482E+02</rscale>
<asrwt>0</asrwt>
<pdfrwt beam="2">  1        1 0.50856739E-02 0.90814482E+02</pdfrwt>
<pdfrwt beam="1">  1       -1 0.95956633E-02 0.90814482E+02</pdfrwt>
<totfact> 0.89040031E+04</totfact>
</mgrwt>
</event>
<event>
 7    1  0.3345055E-009  0.9061550E+02  0.7818608E-02  0.1301368E+00
         -1   -1    0    0    0  501 -0.00000000000E+00  0.00000000000E+00  0.18302071754E+01  0.18302141149E+01  0.50400000000E-02 0.  1.
          1   -1    0    0  501    0  0.00000000000E+00 -0.00000000000E+00 -0.11216152285E+04  0.11216152285E+04  0.50400000000E-02 0. -1.
         23    2    1    2    0    0  0.00000000000E+00  0.88817841970E-15 -0.11197850213E+04  0.11234454426E+04  0.90615498536E+02 0.  0.
    9000005    2    3    3    0    0 -0.27095722418E+02 -0.69813166169E+01 -0.99845447875E+03  0.99893031296E+03  0.12942451648E+02 0.  0.
         22    1    3    3    0    0  0.27095722418E+02  0.69813166169E+01 -0.12133054259E+03  0.12451512969E+03  0.00000000000E+00 0.  1.
         22    1    4    4    0    0 -0.20935112131E+02 -0.92339063119E+01 -0.87735275694E+03  0.87765107193E+03  0.00000000000E+00 0. -1.
         22    1    4    4    0    0 -0.61606102866E+01  0.22525896950E+01 -0.12110172181E+03  0.12127924103E+03  0.00000000000E+00 0. -1.
<mgrwt>
<rscale>  0 0.90615499E+02</rscale>
<asrwt>0</asrwt>
<pdfrwt beam="2">  1        1 0.17255564E+00 0.90615499E+02</pdfrwt>
<pdfrwt beam="1">  1       -1 0.28157177E-03 0.90615499E+02</pdfrwt>
<totfact> 0.13319465E+05</totfact>
</mgrwt>
</event>
<event>
 7    1  0.3345055E-009  0.9025493E+02  0.7818608E-02  0.1302236E+00
         -1   -1    0    0    0  501 -0.00000000000E+00  0.00000000000E+00  0.31940348246E+01  0.31940388011E+01  0.50400000000E-02 0.  1.
          1   -1    0    0  501    0  0.00000000000E+00 -0.00000000000E+00 -0.63759073781E+03  0.63759073783E+03  0.50400000000E-02 0. -1.
         23    2    1    2    0    0  0.00000000000E+00  0.00000000000E+00 -0.63439670298E+03  0.64078477663E+03  0.90254934509E+02 0.  0.
    9000005    2    3    3    0    0  0.43716462768E+01 -0.37946836368E+02 -0.48749895334E+03  0.48900196293E+03  0.29353992304E+01 0.  0.
         22    1    3    3    0    0 -0.43716462768E+01  0.37946836368E+02 -0.14689774965E+03  0.15178281369E+03  0.00000000000E+00 0.  1.
         22    1    4    4    0    0  0.10558079611E+01 -0.41067291053E+01 -0.63894696680E+02  0.64035242002E+02  0.00000000000E+00 0.  1.
         22    1    4    4    0    0  0.33158383157E+01 -0.33840107263E+02 -0.42360425665E+03  0.42496672093E+03  0.00000000000E+00 0.  1.
<mgrwt>
<rscale>  0 0.90254935E+02</rscale>
<asrwt>0</asrwt>
<pdfrwt beam="2">  1        1 0.98090782E-01 0.90254935E+02</pdfrwt>
<pdfrwt beam="1">  1       -1 0.49139079E-03 0.90254935E+02</pdfrwt>
<totfact> 0.14586529E+05</totfact>
</mgrwt>
</event>
<event>
 7    1  0.3345055E-009  0.9088755E+02  0.7818608E-02  0.1300716E+00
         -1   -1    0    0    0  501 -0.00000000000E+00  0.00000000000E+00  0.66160751491E+01  0.66160770688E+01  0.50400000000E-02 0.  1.
          1   -1    0    0  501    0  0.00000000000E+00 -0.00000000000E+00 -0.31213919058E+03  0.31213919062E+03  0.50400000000E-02 0. -1.
         23    2    1    2    0    0 -0.44408920985E-15 -0.35527136788E-14 -0.30552311543E+03  0.31875526769E+03  0.90887549298E+02 0.  0.
    9000005    2    3    3    0    0  0.39763204683E+01 -0.27542834044E+02 -0.27851050038E+03  0.27997253695E+03  0.64887436183E+01 0.  0.
         22    1    3    3    0    0 -0.39763204683E+01  0.27542834044E+02 -0.27012615054E+02  0.38782730741E+02  0.00000000000E+00 0.  1.
         22    1    4    4    0    0  0.41155783898E+01 -0.10456136475E+02 -0.92885626447E+02  0.93562857887E+02  0.00000000000E+00 0. -1.
         22    1    4    4    0    0 -0.13925792152E+00 -0.17086697569E+02 -0.18562487393E+03  0.18640967907E+03  0.00000000000E+00 0. -1.
<mgrwt>
<rscale>  0 0.90887549E+02</rscale>
<asrwt>0</asrwt>
<pdfrwt beam="2">  1        1 0.48021403E-01 0.90887549E+02</pdfrwt>
<pdfrwt beam="1">  1       -1 0.10178581E-02 0.90887549E+02</pdfrwt>
<totfact> 0.13018536E+05</totfact>
</mgrwt>
</event>
<event>
 7    1  0.3345055E-009  0.9309874E+02  0.7818608E-02  0.1295517E+00
          1   -1    0    0  501    0  0.00000000000E+00  0.00000000000E+00  0.14953430985E+04  0.14953430985E+04  0.50400000000E-02 0. -1.
         -1   -1    0    0    0  501 -0.00000000000E+00 -0.00000000000E+00 -0.14490569125E+01  0.14490656773E+01  0.50400000000E-02 0.  1.
         23    2    1    2    0    0 -0.17763568394E-14  0.00000000000E+00  0.14938940416E+04  0.14967921642E+04  0.93098739397E+02 0.  0.
    9000005    2    3    3    0    0  0.11480900938E+02 -0.18712237169E+02  0.14054769160E+04  0.14056903145E+04  0.10860025908E+02 0.  0.
         22    1    3    3    0    0 -0.11480900938E+02  0.18712237169E+02  0.88417125603E+02  0.91101849630E+02  0.00000000000E+00 0.  1.
         22    1    4    4    0    0  0.58071419934E+01 -0.10256801478E+01  0.31414610722E+03  0.31420145066E+03  0.00000000000E+00 0. -1.
         22    1    4    4    0    0  0.56737589444E+01 -0.17686557022E+02  0.10913308087E+04  0.10914888639E+04  0.00000000000E+00 0. -1.
<mgrwt>
<rscale>  0 0.93098739E+02</rscale>
<asrwt>0</asrwt>
<pdfrwt beam="1">  1        1 0.23005390E+00 0.93098739E+02</pdfrwt>
<pdfrwt beam="2">  1       -1 0.22293142E-03 0.93098739E+02</pdfrwt>
<totfact> 0.10483340E+05</totfact>
</mgrwt>
</event>
<event>
 7    1  0.3345055E-009  0.9176076E+02  0.7818608E-02  0.1298643E+00
         -1   -1    0    0    0  501 -0.00000000000E+00  0.00000000000E+00  0.78815420906E+02  0.78815421067E+02  0.50400000000E-02 0.  1.
          1   -1    0    0  501    0  0.00000000000E+00 -0.00000000000E+00 -0.26708088955E+02  0.26708089431E+02  0.50400000000E-02 0. -1.
         23    2    1    2    0    0  0.00000000000E+00  0.00000000000E+00  0.52107331950E+02  0.10552351050E+03  0.91760760812E+02 0.  0.
    9000005    2    3    3    0    0  0.27501774591E+02  0.35833097016E+02  0.30141187713E+02  0.55295331753E+02  0.10427083458E+02 0.  0.
         22    1    3    3    0    0 -0.27501774591E+02 -0.35833097016E+02  0.21966144237E+02  0.50228178745E+02  0.00000000000E+00 0.  1.
         22    1    4    4    0    0  0.60661447531E-02 -0.62518720735E+00  0.94016961359E-01  0.63224602124E+00  0.00000000000E+00 0.  1.
         22    1    4    4    0    0  0.27495708446E+02  0.36458284224E+02  0.30047170752E+02  0.54663085731E+02  0.00000000000E+00 0.  1.
<mgrwt>
<rscale>  0 0.91760761E+02</rscale>
<asrwt>0</asrwt>
<pdfrwt beam="2">  1        1 0.41089369E-02 0.91760761E+02</pdfrwt>
<pdfrwt beam="1">  1       -1 0.12125449E-01 0.91760761E+02</pdfrwt>
<totfact> 0.83487369E+04</totfact>
</mgrwt>
</event>
<event>
 7    1  0.3345055E-009  0.9344342E+02  0.7818608E-02  0.1294721E+00
          1   -1    0    0  501    0  0.00000000000E+00  0.00000000000E+00  0.43280000601E+02  0.43280000894E+02  0.50400000000E-02 0. -1.
         -1   -1    0    0    0  501 -0.00000000000E+00 -0.00000000000E+00 -0.50437108240E+02  0.50437108492E+02  0.50400000000E-02 0.  1.
         23    2    1    2    0    0  0.00000000000E+00  0.17763568394E-14 -0.71571076394E+01  0.93717109386E+02  0.93443418184E+02 0.  0.
    9000005    2    3    3    0    0 -0.31721503777E+02  0.97775272612E+01  0.28561427691E+02  0.44955776269E+02  0.10169209756E+02 0.  0.
         22    1    3    3    0    0  0.31721503777E+02 -0.97775272612E+01 -0.35718535330E+02  0.48761333117E+02  0.00000000000E+00 0.  1.
         22    1    4    4    0    0 -0.58501161309E+01  0.89296052263E+00  0.10877203113E+02  0.12382842356E+02  0.00000000000E+00 0.  1.
         22    1    4    4    0    0 -0.25871387646E+02  0.88845667385E+01  0.17684224577E+02  0.32572933914E+02  0.00000000000E+00 0.  1.
<mgrwt>
<rscale>  0 0.93443418E+02</rscale>
<asrwt>0</asrwt>
<pdfrwt beam="1">  1        1 0.66584617E-02 0.93443418E+02</pdfrwt>
<pdfrwt beam="2">  1       -1 0.77595552E-02 0.93443418E+02</pdfrwt>
<totfact> 0.85608459E+04</totfact>
</mgrwt>
</event>
<event>
 7    1  0.3345055E-009  0.9685609E+02  0.7818608E-02  0.1287050E+00
          1   -1    0    0  501    0  0.00000000000E+00  0.00000000000E+00  0.50709982357E+03  0.50709982359E+03  0.50400000000E-02 0. -1.
         -1   -1    0    0    0  501 -0.00000000000E+00 -0.00000000000E+00 -0.46248776444E+01  0.46248803906E+01  0.50400000000E-02 0.  1.
         23    2    1    2    0    0 -0.22204460493E-15  0.00000000000E+00  0.50247494592E+03  0.51172470398E+03  0.96856085953E+02 0.  0.
    9000005    2    3    3    0    0  0.16493745358E+01 -0.46336079561E+02  0.31390452749E+03  0.31753779553E+03  0.12018590094E+02 0.  0.
         22    1    3    3    0    0 -0.16493745358E+01  0.46336079561E+02  0.18857041844E+03  0.19418690845E+03  0.00000000000E+00 0. -1.
         22    1    4    4    0    0 -0.25135882223E+01 -0.34654561761E+01  0.17282765560E+02  0.17805097519E+02  0.00000000000E+00 0. -1.
         22    1    4    4    0    0  0.41629627582E+01 -0.42870623384E+02  0.29662176193E+03  0.29973269801E+03  0.00000000000E+00 0. -1.
<mgrwt>
<rscale>  0 0.96856086E+02</rscale>
<asrwt>0</asrwt>
<pdfrwt beam="1">  1        1 0.78015326E-01 0.96856086E+02</pdfrwt>
<pdfrwt beam="2">  1       -1 0.71152014E-03 0.96856086E+02</pdfrwt>
<totfact> 0.11879327E+05</totfact>
</mgrwt>
</event>
<event>
 7    1  0.3345055E-009  0.9085528E+02  0.7818608E-02  0.1300794E+00
         -1   -1    0    0    0  501 -0.00000000000E+00  0.00000000000E+00  0.31619582277E+02  0.31619582678E+02  0.50400000000E-02 0.  1.
          1   -1    0    0  501    0  0.00000000000E+00 -0.00000000000E+00 -0.65265587920E+02  0.65265588115E+02  0.50400000000E-02 0. -1.
         23    2    1    2    0    0  0.00000000000E+00  0.88817841970E-15 -0.33646005643E+02  0.96885170793E+02  0.90855283962E+02 0.  0.
    9000005    2    3    3    0    0  0.40750814128E+02  0.76702895634E+01 -0.33632490894E+02  0.55418770217E+02  0.14853735375E+02 0.  0.
         22    1    3    3    0    0 -0.40750814128E+02 -0.76702895634E+01 -0.13514749352E-01  0.41466400576E+02  0.00000000000E+00 0. -1.
         22    1    4    4    0    0  0.39188917107E+02  0.10577049491E+02 -0.29765203209E+02  0.50335002951E+02  0.00000000000E+00 0.  1.
         22    1    4    4    0    0  0.15618970205E+01 -0.29067599277E+01 -0.38672876849E+01  0.50837672663E+01  0.00000000000E+00 0.  1.
<mgrwt>
<rscale>  0 0.90855284E+02</rscale>
<asrwt>0</asrwt>
<pdfrwt beam="2">  1        1 0.10040860E-01 0.90855284E+02</pdfrwt>
<pdfrwt beam="1">  1       -1 0.48645512E-02 0.90855284E+02</pdfrwt>
<totfact> 0.98569517E+04</totfact>
</mgrwt>
</event>
<event>
 7    1  0.3345055E-009  0.9203140E+02  0.7818608E-02  0.1298006E+00
          1   -1    0    0  501    0  0.00000000000E+00  0.00000000000E+00  0.27282322613E+03  0.27282322618E+03  0.50400000000E-02 0. -1.
         -1   -1    0    0    0  501 -0.00000000000E+00 -0.00000000000E+00 -0.77612320906E+01  0.77612337271E+01  0.50400000000E-02 0.  1.
         23    2    1    2    0    0  0.00000000000E+00  0.00000000000E+00  0.26506199404E+03  0.28058445991E+03  0.92031399291E+02 0.  0.
    9000005    2    3    3    0    0 -0.14483211738E+02  0.38121765406E+02  0.79574419761E+02  0.90666918240E+02  0.15012307048E+02 0.  0.
         22    1    3    3    0    0  0.14483211738E+02 -0.38121765406E+02  0.18548757428E+03  0.18991754167E+03  0.00000000000E+00 0. -1.
         22    1    4    4    0    0 -0.13565071744E+01  0.23473262840E+02  0.48344786775E+02  0.53759209335E+02  0.00000000000E+00 0.  1.
         22    1    4    4    0    0 -0.13126704564E+02  0.14648502566E+02  0.31229632986E+02  0.36907708904E+02  0.00000000000E+00 0.  1.
<mgrwt>
<rscale>  0 0.92031399E+02</rscale>
<asrwt>0</asrwt>
<pdfrwt beam="1">  1        1 0.41972810E-01 0.92031399E+02</pdfrwt>
<pdfrwt beam="2">  1       -1 0.11940357E-02 0.92031399E+02</pdfrwt>
<totfact> 0.12270106E+05</totfact>
</mgrwt>
</event>
<event>
 7    1  0.3345055E-009  0.9580673E+02  0.7818608E-02  0.1289369E+00
         -1   -1    0    0    0  501 -0.00000000000E+00  0.00000000000E+00  0.27464146722E+03  0.27464146727E+03  0.50400000000E-02 0.  1.
          1   -1    0    0  501    0  0.00000000000E+00 -0.00000000000E+00 -0.83553736061E+01  0.83553751262E+01  0.50400000000E-02 0. -1.
         23    2    1    2    0    0  0.22204460493E-15  0.00000000000E+00  0.26628609362E+03  0.28299684240E+03  0.95806728115E+02 0.  0.
    9000005    2    3    3    0    0 -0.11583709422E+01  0.44922152131E+02  0.93087004734E+02  0.10406315086E+03  0.12025279288E+02 0.  0.
         22    1    3    3    0    0  0.11583709422E+01 -0.44922152131E+02  0.17319908888E+03  0.17893369153E+03  0.00000000000E+00 0.  1.
         22    1    4    4    0    0 -0.43067674958E+01  0.98027650445E+01  0.15486705380E+02  0.18827652331E+02  0.00000000000E+00 0.  1.
         22    1    4    4    0    0  0.31483965537E+01  0.35119387087E+02  0.77600299354E+02  0.85235498532E+02  0.00000000000E+00 0.  1.
<mgrwt>
<rscale>  0 0.95806728E+02</rscale>
<asrwt>0</asrwt>
<pdfrwt beam="2">  1        1 0.12854423E-02 0.95806728E+02</pdfrwt>
<pdfrwt beam="1">  1       -1 0.42252531E-01 0.95806728E+02</pdfrwt>
<totfact> 0.55030263E+04</totfact>
</mgrwt>
</event>
<event>
 7    1  0.3345055E-009  0.9154922E+02  0.7818608E-02  0.1299143E+00
         -1   -1    0    0    0  501 -0.00000000000E+00  0.00000000000E+00  0.12277701082E+03  0.12277701092E+03  0.50400000000E-02 0.  1.
          1   -1    0    0  501    0  0.00000000000E+00 -0.00000000000E+00 -0.17066019851E+02  0.17066020595E+02  0.50400000000E-02 0. -1.
         23    2    1    2    0    0  0.35527136788E-14  0.35527136788E-14  0.10571099097E+03  0.13984303152E+03  0.91549220926E+02 0.  0.
    9000005    2    3    3    0    0 -0.21556870678E+02 -0.28080031589E+02  0.96443024986E+02  0.10324956159E+03  0.10296992448E+02 0.  0.
         22    1    3    3    0    0  0.21556870678E+02  0.28080031589E+02  0.92679659800E+01  0.36593469921E+02  0.00000000000E+00 0. -1.
         22    1    4    4    0    0 -0.30154811916E+01 -0.61377541285E+01  0.96609244739E+01  0.11836326045E+02  0.00000000000E+00 0.  1.
         22    1    4    4    0    0 -0.18541389486E+02 -0.21942277460E+02  0.86782100513E+02  0.91413235549E+02  0.00000000000E+00 0.  1.
<mgrwt>
<rscale>  0 0.91549221E+02</rscale>
<asrwt>0</asrwt>
<pdfrwt beam="2">  1        1 0.26255415E-02 0.91549221E+02</pdfrwt>
<pdfrwt beam="1">  1       -1 0.18888772E-01 0.91549221E+02</pdfrwt>
<totfact> 0.77341092E+04</totfact>
</mgrwt>
</event>
<event>
 7    1  0.3345055E-009  0.8966497E+02  0.7818608E-02  0.1303665E+00
          1   -1    0    0  501    0  0.00000000000E+00  0.00000000000E+00  0.64232825806E+02  0.64232826004E+02  0.50400000000E-02 0. -1.
         -1   -1    0    0    0  501 -0.00000000000E+00 -0.00000000000E+00 -0.31291656294E+02  0.31291656700E+02  0.50400000000E-02 0.  1.
         23    2    1    2    0    0  0.00000000000E+00  0.00000000000E+00  0.32941169512E+02  0.95524482704E+02  0.89664966107E+02 0.  0.
    9000005    2    3    3    0    0 -0.14677998137E+02  0.78200397240E+01  0.59829654817E+02  0.63908232252E+02  0.15102248291E+02 0.  0.
         22    1    3    3    0    0  0.14677998137E+02 -0.78200397240E+01 -0.26888485305E+02  0.31616250451E+02  0.00000000000E+00 0.  1.
         22    1    4    4    0    0 -0.48602482594E+00  0.79810183384E+01  0.26566254759E+02  0.27743445456E+02  0.00000000000E+00 0. -1.
         22    1    4    4    0    0 -0.14191973311E+02 -0.16097861447E+00  0.33263400058E+02  0.36164786796E+02  0.00000000000E+00 0. -1.
<mgrwt>
<rscale>  0 0.89664966E+02</rscale>
<asrwt>0</asrwt>
<pdfrwt beam="1">  1        1 0.98819731E-02 0.89664966E+02</pdfrwt>
<pdfrwt beam="2">  1       -1 0.48141011E-02 0.89664966E+02</pdfrwt>
<totfact> 0.10197502E+05</totfact>
</mgrwt>
</event>
<event>
 7    1  0.3345055E-009  0.8113614E+02  0.7818608E-02  0.1325858E+00
         -1   -1    0    0    0  501 -0.00000000000E+00  0.00000000000E+00  0.11788472646E+01  0.11788580385E+01  0.50400000000E-02 0.  1.
          1   -1    0    0  501    0  0.00000000000E+00 -0.00000000000E+00 -0.13960764023E+04  0.13960764024E+04  0.50400000000E-02 0. -1.
         23    2    1    2    0    0 -0.35527136788E-14 -0.69388939039E-17 -0.13948975551E+04  0.13972552604E+04  0.81136141920E+02 0.  0.
    9000005    2    3    3    0    0 -0.18510464571E+02 -0.43904335788E-01 -0.13169092327E+04  0.13171003001E+04  0.12674155522E+02 0.  0.
         22    1    3    3    0    0  0.18510464571E+02  0.43904335788E-01 -0.77988322374E+02  0.80154960252E+02  0.00000000000E+00 0.  1.
         22    1    4    4    0    0 -0.25817033593E+01  0.29473784280E+01 -0.57829683801E+03  0.57831011152E+03  0.00000000000E+00 0.  1.
         22    1    4    4    0    0 -0.15928761211E+02 -0.29912827638E+01 -0.73861239470E+03  0.73879018862E+03  0.00000000000E+00 0.  1.
<mgrwt>
<rscale>  0 0.81136142E+02</rscale>
<asrwt>0</asrwt>
<pdfrwt beam="2">  1        1 0.21477966E+00 0.81136142E+02</pdfrwt>
<pdfrwt beam="1">  1       -1 0.18136306E-03 0.81136142E+02</pdfrwt>
<totfact> 0.15860180E+05</totfact>
</mgrwt>
</event>
<event>
 7    1  0.3345055E-009  0.8430524E+02  0.7818608E-02  0.1317259E+00
          1   -1    0    0  501    0  0.00000000000E+00  0.00000000000E+00  0.47014922030E+03  0.47014922032E+03  0.50400000000E-02 0. -1.
         -1   -1    0    0    0  501 -0.00000000000E+00 -0.00000000000E+00 -0.37793165762E+01  0.37793199368E+01  0.50400000000E-02 0.  1.
         23    2    1    2    0    0  0.00000000000E+00  0.00000000000E+00  0.46636990372E+03  0.47392854026E+03  0.84305244068E+02 0.  0.
    9000005    2    3    3    0    0  0.15622793623E+02  0.37403124227E+02  0.28970462713E+03  0.29267268426E+03  0.92446604902E+01 0.  0.
         22    1    3    3    0    0 -0.15622793623E+02 -0.37403124227E+02  0.17666527659E+03  0.18125585600E+03  0.00000000000E+00 0. -1.
         22    1    4    4    0    0  0.50221219107E+01  0.14861723697E+02  0.82700274532E+02  0.84174984095E+02  0.00000000000E+00 0. -1.
         22    1    4    4    0    0  0.10600671713E+02  0.22541400529E+02  0.20700435260E+03  0.20849770017E+03  0.00000000000E+00 0. -1.
<mgrwt>
<rscale>  0 0.84305244E+02</rscale>
<asrwt>0</asrwt>
<pdfrwt beam="1">  1        1 0.72330646E-01 0.84305244E+02</pdfrwt>
<pdfrwt beam="2">  1       -1 0.58143360E-03 0.84305244E+02</pdfrwt>
<totfact> 0.16995184E+05</totfact>
</mgrwt>
</event>
<event>
 7    1  0.3345055E-009  0.9117635E+02  0.7818608E-02  0.1300028E+00
         -1   -1    0    0    0  501 -0.00000000000E+00  0.00000000000E+00  0.91692506077E+01  0.91692519928E+01  0.50400000000E-02 0.  1.
          1   -1    0    0  501    0  0.00000000000E+00 -0.00000000000E+00 -0.22665772633E+03  0.22665772639E+03  0.50400000000E-02 0. -1.
         23    2    1    2    0    0  0.00000000000E+00  0.71054273576E-14 -0.21748847572E+03  0.23582697838E+03  0.91176349232E+02 0.  0.
    9000005    2    3    3    0    0  0.26349306141E+02 -0.35517545477E+02 -0.94932064201E+02  0.10553555128E+03  0.13033564340E+02 0.  0.
         22    1    3    3    0    0 -0.26349306141E+02  0.35517545477E+02 -0.12255641152E+03  0.13029142710E+03  0.00000000000E+00 0. -1.
         22    1    4    4    0    0  0.20586050805E+02 -0.21961829980E+02 -0.51243816821E+02  0.59430936609E+02  0.00000000000E+00 0.  1.
         22    1    4    4    0    0  0.57632553356E+01 -0.13555715497E+02 -0.43688247380E+02  0.46104614670E+02  0.00000000000E+00 0.  1.
<mgrwt>
<rscale>  0 0.91176349E+02</rscale>
<asrwt>0</asrwt>
<pdfrwt beam="2">  1        1 0.34870415E-01 0.91176349E+02</pdfrwt>
<pdfrwt beam="1">  1       -1 0.14106542E-02 0.91176349E+02</pdfrwt>
<totfact> 0.12132928E+05</totfact>
</mgrwt>
</event>
<event>
 7    1  0.3345055E-009  0.9150944E+02  0.7818608E-02  0.1299237E+00
          1   -1    0    0  501    0  0.00000000000E+00  0.00000000000E+00  0.47564735301E+02  0.47564735568E+02  0.50400000000E-02 0. -1.
         -1   -1    0    0    0  501 -0.00000000000E+00 -0.00000000000E+00 -0.44013584464E+02  0.44013584753E+02  0.50400000000E-02 0.  1.
         23    2    1    2    0    0  0.00000000000E+00  0.00000000000E+00  0.35511508370E+01  0.91578320321E+02  0.91509442576E+02 0.  0.
    9000005    2    3    3    0    0 -0.46995661867E+01 -0.34694781135E+02 -0.27549289831E+02  0.44748296084E+02  0.41991513368E+01 0.  0.
         22    1    3    3    0    0  0.46995661867E+01  0.34694781135E+02  0.31100440668E+02  0.46830024237E+02  0.00000000000E+00 0. -1.
         22    1    4    4    0    0 -0.90692841404E+00 -0.61442447658E+01 -0.70563823541E+01  0.94003614195E+01  0.00000000000E+00 0. -1.
         22    1    4    4    0    0 -0.37926377727E+01 -0.28550536369E+02 -0.20492907477E+02  0.35347934665E+02  0.00000000000E+00 0. -1.
<mgrwt>
<rscale>  0 0.91509443E+02</rscale>
<asrwt>0</asrwt>
<pdfrwt beam="1">  1        1 0.73176516E-02 0.91509443E+02</pdfrwt>
<pdfrwt beam="2">  1       -1 0.67713208E-02 0.91509443E+02</pdfrwt>
<totfact> 0.92118051E+04</totfact>
</mgrwt>
</event>
<event>
 7    1  0.3345055E-009  0.9615255E+02  0.7818608E-02  0.1288601E+00
         -1   -1    0    0    0  501 -0.00000000000E+00  0.00000000000E+00  0.19131943839E+03  0.19131943846E+03  0.50400000000E-02 0.  1.
          1   -1    0    0  501    0  0.00000000000E+00 -0.00000000000E+00 -0.12080990592E+02  0.12080991643E+02  0.50400000000E-02 0. -1.
         23    2    1    2    0    0 -0.71054273576E-14  0.00000000000E+00  0.17923844780E+03  0.20340043010E+03  0.96152554804E+02 0.  0.
    9000005    2    3    3    0    0 -0.36823268516E+02 -0.22698823244E+02  0.13216072743E+03  0.13946685961E+03  0.10646941938E+02 0.  0.
         22    1    3    3    0    0  0.36823268516E+02  0.22698823244E+02  0.47077720364E+02  0.63933570490E+02  0.00000000000E+00 0. -1.
         22    1    4    4    0    0 -0.96781161649E+00 -0.78300040800E+00  0.14014792011E+02  0.14069973137E+02  0.00000000000E+00 0. -1.
         22    1    4    4    0    0 -0.35855456899E+02 -0.21915822836E+02  0.11814593542E+03  0.12539688647E+03  0.00000000000E+00 0. -1.
<mgrwt>
<rscale>  0 0.96152555E+02</rscale>
<asrwt>0</asrwt>
<pdfrwt beam="2">  1        1 0.18586141E-02 0.96152555E+02</pdfrwt>
<pdfrwt beam="1">  1       -1 0.29433758E-01 0.96152555E+02</pdfrwt>
<totfact> 0.61194958E+04</totfact>
</mgrwt>
</event>
<event>
 7    1  0.3345055E-009  0.9680025E+02  0.7818608E-02  0.1287172E+00
          1   -1    0    0  501    0  0.00000000000E+00  0.00000000000E+00  0.12233762583E+03  0.12233762593E+03  0.50400000000E-02 0. -1.
         -1   -1    0    0    0  501 -0.00000000000E+00 -0.00000000000E+00 -0.19148419538E+02  0.19148420201E+02  0.50400000000E-02 0.  1.
         23    2    1    2    0    0  0.17763568394E-14  0.00000000000E+00  0.10318920629E+03  0.14148604613E+03  0.96800252869E+02 0.  0.
    9000005    2    3    3    0    0  0.66277651025E+01 -0.42998627269E+02  0.23780387900E+02  0.50940092853E+02  0.11686616019E+02 0.  0.
         22    1    3    3    0    0 -0.66277651025E+01  0.42998627269E+02  0.79408818387E+02  0.90545953277E+02  0.00000000000E+00 0. -1.
         22    1    4    4    0    0 -0.16022944360E+01 -0.10715726586E+02  0.10461019973E+02  0.15060779614E+02  0.00000000000E+00 0.  1.
         22    1    4    4    0    0  0.82300595386E+01 -0.32282900683E+02  0.13319367927E+02  0.35879313239E+02  0.00000000000E+00 0.  1.
<mgrwt>
<rscale>  0 0.96800253E+02</rscale>
<asrwt>0</asrwt>
<pdfrwt beam="1">  1        1 0.18821174E-01 0.96800253E+02</pdfrwt>
<pdfrwt beam="2">  1       -1 0.29459107E-02 0.96800253E+02</pdfrwt>
<totfact> 0.91845751E+04</totfact>
</mgrwt>
</event>
<event>
 7    1  0.3345055E-009  0.9076366E+02  0.7818608E-02  0.1301013E+00
          1   -1    0    0  501    0  0.00000000000E+00  0.00000000000E+00  0.37067426447E+03  0.37067426450E+03  0.50400000000E-02 0. -1.
         -1   -1    0    0    0  501 -0.00000000000E+00 -0.00000000000E+00 -0.55561182638E+01  0.55561205497E+01  0.50400000000E-02 0.  1.
         23    2    1    2    0    0 -0.17763568394E-14  0.00000000000E+00  0.36511814620E+03  0.37623038505E+03  0.90763659847E+02 0.  0.
    9000005    2    3    3    0    0 -0.13557052034E+02 -0.24521015872E+02  0.33043507268E+03  0.33164350953E+03  0.38737940717E+01 0.  0.
         22    1    3    3    0    0  0.13557052034E+02  0.24521015872E+02  0.34683073523E+02  0.44586875516E+02  0.00000000000E+00 0.  1.
         22    1    4    4    0    0 -0.10312861809E+02 -0.21473313712E+02  0.27463024162E+03  0.27566143715E+03  0.00000000000E+00 0. -1.
         22    1    4    4    0    0 -0.32441902255E+01 -0.30477021597E+01  0.55804831061E+02  0.55982072384E+02  0.00000000000E+00 0. -1.
<mgrwt>
<rscale>  0 0.90763660E+02</rscale>
<asrwt>0</asrwt>
<pdfrwt beam="1">  1        1 0.57026837E-01 0.90763660E+02</pdfrwt>
<pdfrwt beam="2">  1       -1 0.85478720E-03 0.90763660E+02</pdfrwt>
<totfact> 0.13478343E+05</totfact>
</mgrwt>
</event>
<event>
 7    1  0.3345055E-009  0.9090700E+02  0.7818608E-02  0.1300670E+00
          1   -1    0    0  501    0  0.00000000000E+00  0.00000000000E+00  0.50091756232E+01  0.50091781587E+01  0.50400000000E-02 0. -1.
         -1   -1    0    0    0  501 -0.00000000000E+00 -0.00000000000E+00 -0.41244717469E+03  0.41244717472E+03  0.50400000000E-02 0.  1.
         23    2    1    2    0    0  0.00000000000E+00  0.00000000000E+00 -0.40743799907E+03  0.41745635288E+03  0.90907004548E+02 0.  0.
    9000005    2    3    3    0    0  0.29975913268E+02  0.33017688740E+02 -0.23904416425E+03  0.24325759643E+03  0.65895834829E+01 0.  0.
         22    1    3    3    0    0 -0.29975913268E+02 -0.33017688740E+02 -0.16839383482E+03  0.17419875645E+03  0.00000000000E+00 0.  1.
         22    1    4    4    0    0  0.21580613940E+02  0.19561487726E+02 -0.14719738315E+03  0.15005147219E+03  0.00000000000E+00 0.  1.
         22    1    4    4    0    0  0.83952993285E+01  0.13456201014E+02 -0.91846781098E+02  0.93206124233E+02  0.00000000000E+00 0.  1.
<mgrwt>
<rscale>  0 0.90907005E+02</rscale>
<asrwt>0</asrwt>
<pdfrwt beam="1">  1        1 0.77064293E-03 0.90907005E+02</pdfrwt>
<pdfrwt beam="2">  1       -1 0.63453385E-01 0.90907005E+02</pdfrwt>
<totfact> 0.52869189E+04</totfact>
</mgrwt>
</event>
<event>
 7    1  0.3345055E-009  0.9049955E+02  0.7818608E-02  0.1301646E+00
         -1   -1    0    0    0  501 -0.00000000000E+00  0.00000000000E+00  0.12439074306E+02  0.12439075327E+02  0.50400000000E-02 0.  1.
          1   -1    0    0  501    0  0.00000000000E+00 -0.00000000000E+00 -0.16460564887E+03  0.16460564895E+03  0.50400000000E-02 0. -1.
         23    2    1    2    0    0  0.00000000000E+00  0.00000000000E+00 -0.15216657456E+03  0.17704472427E+03  0.90499546844E+02 0.  0.
    9000005    2    3    3    0    0 -0.15713735917E+02  0.39598971309E+02 -0.46479267335E+02  0.63093827242E+02  0.23470660265E+01 0.  0.
         22    1    3    3    0    0  0.15713735917E+02 -0.39598971309E+02 -0.10568730723E+03  0.11395089703E+03  0.00000000000E+00 0. -1.
         22    1    4    4    0    0 -0.13404169978E+02  0.33317194265E+02 -0.40370691089E+02  0.54032396814E+02  0.00000000000E+00 0. -1.
         22    1    4    4    0    0 -0.23095659397E+01  0.62817770434E+01 -0.61085762462E+01  0.90614304284E+01  0.00000000000E+00 0. -1.
<mgrwt>
<rscale>  0 0.90499547E+02</rscale>
<asrwt>0</asrwt>
<pdfrwt beam="2">  1        1 0.25323945E-01 0.90499547E+02</pdfrwt>
<pdfrwt beam="1">  1       -1 0.19137039E-02 0.90499547E+02</pdfrwt>
<totfact> 0.11639364E+05</totfact>
</mgrwt>
</event>
<event>
 7    1  0.3345055E-009  0.9109613E+02  0.7818608E-02  0.1300219E+00
          1   -1    0    0  501    0  0.00000000000E+00  0.00000000000E+00  0.28062020376E+02  0.28062020828E+02  0.50400000000E-02 0. -1.
         -1   -1    0    0    0  501 -0.00000000000E+00 -0.00000000000E+00 -0.73930040555E+02  0.73930040727E+02  0.50400000000E-02 0.  1.
         23    2    1    2    0    0  0.00000000000E+00  0.00000000000E+00 -0.45868020180E+02  0.10199206156E+03  0.91096132438E+02 0.  0.
    9000005    2    3    3    0    0  0.32652445480E+02 -0.29261429106E+02 -0.10239386644E+02  0.45495929327E+02  0.65284850719E+01 0.  0.
         22    1    3    3    0    0 -0.32652445480E+02  0.29261429106E+02 -0.35628633536E+02  0.56496132229E+02  0.00000000000E+00 0.  1.
         22    1    4    4    0    0  0.13179041489E+02 -0.13570213361E+02 -0.74559574945E+01  0.20332956681E+02  0.00000000000E+00 0. -1.
         22    1    4    4    0    0  0.19473403991E+02 -0.15691215745E+02 -0.27834291493E+01  0.25162972646E+02  0.00000000000E+00 0. -1.
<mgrwt>
<rscale>  0 0.91096132E+02</rscale>
<asrwt>0</asrwt>
<pdfrwt beam="1">  1        1 0.43172340E-02 0.91096132E+02</pdfrwt>
<pdfrwt beam="2">  1       -1 0.11373852E-01 0.91096132E+02</pdfrwt>
<totfact> 0.85966193E+04</totfact>
</mgrwt>
</event>
<event>
 7    1  0.3345055E-009  0.9347713E+02  0.7818608E-02  0.1294643E+00
         -1   -1    0    0    0  501 -0.00000000000E+00  0.00000000000E+00  0.34549371783E+03  0.34549371787E+03  0.50400000000E-02 0.  1.
          1   -1    0    0  501    0  0.00000000000E+00 -0.00000000000E+00 -0.63228153524E+01  0.63228173612E+01  0.50400000000E-02 0. -1.
         23    2    1    2    0    0  0.00000000000E+00  0.00000000000E+00  0.33917090248E+03  0.35181653523E+03  0.93477127536E+02 0.  0.
    9000005    2    3    3    0    0 -0.49342287827E+01  0.46090603576E+02  0.16376781773E+03  0.17039180569E+03  0.80485382519E+01 0.  0.
         22    1    3    3    0    0  0.49342287827E+01 -0.46090603576E+02  0.17540308475E+03  0.18142472955E+03  0.00000000000E+00 0.  1.
         22    1    4    4    0    0  0.19115968439E+01  0.65491316788E+01  0.20201824629E+02  0.21322735438E+02  0.00000000000E+00 0. -1.
         22    1    4    4    0    0 -0.68458256266E+01  0.39541471898E+02  0.14356599310E+03  0.14906907025E+03  0.00000000000E+00 0. -1.
<mgrwt>
<rscale>  0 0.93477128E+02</rscale>
<asrwt>0</asrwt>
<pdfrwt beam="2">  1        1 0.97274075E-03 0.93477128E+02</pdfrwt>
<pdfrwt beam="1">  1       -1 0.53152892E-01 0.93477128E+02</pdfrwt>
<totfact> 0.53504505E+04</totfact>
</mgrwt>
</event>
<event>
 7    1  0.3345055E-009  0.9166882E+02  0.7818608E-02  0.1298860E+00
          1   -1    0    0  501    0  0.00000000000E+00  0.00000000000E+00  0.10153503560E+02  0.10153504811E+02  0.50400000000E-02 0. -1.
         -1   -1    0    0    0  501 -0.00000000000E+00 -0.00000000000E+00 -0.20690324496E+03  0.20690324502E+03  0.50400000000E-02 0.  1.
         23    2    1    2    0    0  0.00000000000E+00  0.00000000000E+00 -0.19674974140E+03  0.21705674984E+03  0.91668816437E+02 0.  0.
    9000005    2    3    3    0    0 -0.23642046263E+02 -0.37654643534E+02 -0.90075956025E+02  0.10148809051E+03  0.14468452942E+02 0.  0.
         22    1    3    3    0    0  0.23642046263E+02  0.37654643534E+02 -0.10667378538E+03  0.11556865932E+03  0.00000000000E+00 0.  1.
         22    1    4    4    0    0 -0.14024873680E+02 -0.33422227299E+02 -0.70343048471E+02  0.79132084691E+02  0.00000000000E+00 0. -1.
         22    1    4    4    0    0 -0.96171725830E+01 -0.42324162351E+01 -0.19732907554E+02  0.22356005820E+02  0.00000000000E+00 0. -1.
<mgrwt>
<rscale>  0 0.91668816E+02</rscale>
<asrwt>0</asrwt>
<pdfrwt beam="1">  1        1 0.15620777E-02 0.91668816E+02</pdfrwt>
<pdfrwt beam="2">  1       -1 0.31831265E-01 0.91668816E+02</pdfrwt>
<totfact> 0.67787113E+04</totfact>
</mgrwt>
</event>
<event>
 7    1  0.3345055E-009  0.8486831E+02  0.7818608E-02  0.1315777E+00
         -1   -1    0    0    0  501 -0.00000000000E+00  0.00000000000E+00  0.32238634170E+01  0.32238673566E+01  0.50400000000E-02 0.  1.
          1   -1    0    0  501    0  0.00000000000E+00 -0.00000000000E+00 -0.55853989811E+03  0.55853989814E+03  0.50400000000E-02 0. -1.
         23    2    1    2    0    0  0.00000000000E+00  0.35527136788E-14 -0.55531603470E+03  0.56176376549E+03  0.84868308747E+02 0.  0.
    9000005    2    3    3    0    0  0.18419435321E+02 -0.21512052007E+02 -0.48335484280E+03  0.48443035022E+03  0.15453678328E+02 0.  0.
         22    1    3    3    0    0 -0.18419435321E+02  0.21512052007E+02 -0.71961191896E+02  0.77333415276E+02  0.00000000000E+00 0.  1.
         22    1    4    4    0    0 -0.20631504964E+01 -0.60103556079E+00 -0.73581913564E+02  0.73613285740E+02  0.00000000000E+00 0. -1.
         22    1    4    4    0    0  0.20482585817E+02 -0.20911016446E+02 -0.40977292924E+03  0.41081706448E+03  0.00000000000E+00 0. -1.
<mgrwt>
<rscale>  0 0.84868309E+02</rscale>
<asrwt>0</asrwt>
<pdfrwt beam="2">  1        1 0.85929138E-01 0.84868309E+02</pdfrwt>
<pdfrwt beam="1">  1       -1 0.49597974E-03 0.84868309E+02</pdfrwt>
<totfact> 0.17017837E+05</totfact>
</mgrwt>
</event>
<event>
 7    1  0.3345055E-009  0.8765163E+02  0.7818608E-02  0.1308640E+00
          1   -1    0    0  501    0  0.00000000000E+00  0.00000000000E+00  0.12848912432E+03  0.12848912442E+03  0.50400000000E-02 0. -1.
         -1   -1    0    0    0  501 -0.00000000000E+00 -0.00000000000E+00 -0.14948361785E+02  0.14948362634E+02  0.50400000000E-02 0.  1.
         23    2    1    2    0    0  0.00000000000E+00  0.00000000000E+00  0.11354076254E+03  0.14343748706E+03  0.87651628252E+02 0.  0.
    9000005    2    3    3    0    0 -0.38025905957E+02 -0.18098160307E+02  0.72633953259E+02  0.84727351851E+02  0.11380687827E+02 0.  0.
         22    1    3    3    0    0  0.38025905957E+02  0.18098160307E+02  0.40906809279E+02  0.58710135204E+02  0.00000000000E+00 0. -1.
         22    1    4    4    0    0 -0.13827881453E+02 -0.72595863282E+01  0.38190454692E+02  0.41260425697E+02  0.00000000000E+00 0.  1.
         22    1    4    4    0    0 -0.24198024503E+02 -0.10838573979E+02  0.34443498567E+02  0.43466926154E+02  0.00000000000E+00 0.  1.
<mgrwt>
<rscale>  0 0.87651628E+02</rscale>
<asrwt>0</asrwt>
<pdfrwt beam="1">  1        1 0.19767556E-01 0.87651628E+02</pdfrwt>
<pdfrwt beam="2">  1       -1 0.22997482E-02 0.87651628E+02</pdfrwt>
<totfact> 0.12128507E+05</totfact>
</mgrwt>
</event>
<event>
 7    1  0.3345055E-009  0.9379104E+02  0.7818608E-02  0.1293922E+00
          1   -1    0    0  501    0  0.00000000000E+00  0.00000000000E+00  0.16805377064E+02  0.16805377820E+02  0.50400000000E-02 0. -1.
         -1   -1    0    0    0  501 -0.00000000000E+00 -0.00000000000E+00 -0.13086227191E+03  0.13086227200E+03  0.50400000000E-02 0.  1.
         23    2    1    2    0    0  0.00000000000E+00  0.00000000000E+00 -0.11405689484E+03  0.14766764982E+03  0.93791041914E+02 0.  0.
    9000005    2    3    3    0    0 -0.94302143594E+01  0.74512618166E+01 -0.12835198963E+03  0.12899146230E+03  0.44848475592E+01 0.  0.
         22    1    3    3    0    0  0.94302143594E+01 -0.74512618166E+01  0.14295094789E+02  0.18676187527E+02  0.00000000000E+00 0. -1.
         22    1    4    4    0    0 -0.61445498141E+01  0.70896846862E+01 -0.10263600318E+03  0.10306390382E+03  0.00000000000E+00 0. -1.
         22    1    4    4    0    0 -0.32856645453E+01  0.36157713043E+00 -0.25715986447E+02  0.25927558475E+02  0.00000000000E+00 0. -1.
<mgrwt>
<rscale>  0 0.93791042E+02</rscale>
<asrwt>0</asrwt>
<pdfrwt beam="1">  1        1 0.25854428E-02 0.93791042E+02</pdfrwt>
<pdfrwt beam="2">  1       -1 0.20132657E-01 0.93791042E+02</pdfrwt>
<totfact> 0.71664127E+04</totfact>
</mgrwt>
</event>
<event>
 7    1  0.3345055E-009  0.8775236E+02  0.7818608E-02  0.1308388E+00
         -1   -1    0    0    0  501 -0.00000000000E+00  0.00000000000E+00  0.19204435503E+02  0.19204436164E+02  0.50400000000E-02 0.  1.
          1   -1    0    0  501    0  0.00000000000E+00 -0.00000000000E+00 -0.10024345804E+03  0.10024345817E+03  0.50400000000E-02 0. -1.
         23    2    1    2    0    0  0.00000000000E+00  0.00000000000E+00 -0.81039022541E+02  0.11944789433E+03  0.87752357727E+02 0.  0.
    9000005    2    3    3    0    0  0.21607371755E+02  0.26105268054E+02 -0.60453728372E+01  0.37153234543E+02  0.13980442409E+02 0.  0.
         22    1    3    3    0    0 -0.21607371755E+02 -0.26105268054E+02 -0.74993649704E+02  0.82294659791E+02  0.00000000000E+00 0. -1.
         22    1    4    4    0    0  0.15332149108E+02  0.10518114462E+02  0.16613968342E+01  0.18667237812E+02  0.00000000000E+00 0. -1.
         22    1    4    4    0    0  0.62752226470E+01  0.15587153592E+02 -0.77067696715E+01  0.18485996731E+02  0.00000000000E+00 0. -1.
<mgrwt>
<rscale>  0 0.87752358E+02</rscale>
<asrwt>0</asrwt>
<pdfrwt beam="2">  1        1 0.15422070E-01 0.87752358E+02</pdfrwt>
<pdfrwt beam="1">  1       -1 0.29545286E-02 0.87752358E+02</pdfrwt>
<totfact> 0.11594788E+05</totfact>
</mgrwt>
</event>
<event>
 7    1  0.3345055E-009  0.9293791E+02  0.7818608E-02  0.1295889E+00
          1   -1    0    0  501    0  0.00000000000E+00  0.00000000000E+00  0.55167047036E+02  0.55167047266E+02  0.50400000000E-02 0. -1.
         -1   -1    0    0    0  501 -0.00000000000E+00 -0.00000000000E+00 -0.39142277479E+02  0.39142277803E+02  0.50400000000E-02 0.  1.
         23    2    1    2    0    0  0.35527136788E-14  0.00000000000E+00  0.16024769557E+02  0.94309325070E+02  0.92937912370E+02 0.  0.
    9000005    2    3    3    0    0  0.20855148129E+02  0.39989728221E+02  0.10995605050E+02  0.48928623640E+02  0.15459343913E+02 0.  0.
         22    1    3    3    0    0 -0.20855148129E+02 -0.39989728221E+02  0.50291645075E+01  0.45380701430E+02  0.00000000000E+00 0. -1.
         22    1    4    4    0    0  0.36910538816E+01  0.21931370881E+02  0.15839767842E+01  0.22296140696E+02  0.00000000000E+00 0. -1.
         22    1    4    4    0    0  0.17164094247E+02  0.18058357339E+02  0.94116282654E+01  0.26632482943E+02  0.00000000000E+00 0. -1.
<mgrwt>
<rscale>  0 0.92937912E+02</rscale>
<asrwt>0</asrwt>
<pdfrwt beam="1">  1        1 0.84872380E-02 0.92937912E+02</pdfrwt>
<pdfrwt beam="2">  1       -1 0.60218889E-02 0.92937912E+02</pdfrwt>
<totfact> 0.90212784E+04</totfact>
</mgrwt>
</event>
<event>
 7    1  0.3345055E-009  0.9216123E+02  0.7818608E-02  0.1297701E+00
          1   -1    0    0  501    0  0.00000000000E+00  0.00000000000E+00  0.60650672567E+02  0.60650672777E+02  0.50400000000E-02 0. -1.
         -1   -1    0    0    0  501 -0.00000000000E+00 -0.00000000000E+00 -0.35010709862E+02  0.35010710224E+02  0.50400000000E-02 0.  1.
         23    2    1    2    0    0  0.00000000000E+00  0.00000000000E+00  0.25639962706E+02  0.95661383001E+02  0.92161231058E+02 0.  0.
    9000005    2    3    3    0    0  0.40246606459E+02  0.21425766564E+02  0.15067333493E+02  0.48857181344E+02  0.90081533014E+01 0.  0.
         22    1    3    3    0    0 -0.40246606459E+02 -0.21425766564E+02  0.10572629212E+02  0.46804201658E+02  0.00000000000E+00 0.  1.
         22    1    4    4    0    0  0.16426544297E+02  0.78917295894E+01  0.10647790461E+02  0.21106543894E+02  0.00000000000E+00 0.  1.
         22    1    4    4    0    0  0.23820062162E+02  0.13534036975E+02  0.44195430326E+01  0.27750637450E+02  0.00000000000E+00 0.  1.
<mgrwt>
<rscale>  0 0.92161231E+02</rscale>
<asrwt>0</asrwt>
<pdfrwt beam="1">  1        1 0.93308727E-02 0.92161231E+02</pdfrwt>
<pdfrwt beam="2">  1       -1 0.53862631E-02 0.92161231E+02</pdfrwt>
<totfact> 0.93692109E+04</totfact>
</mgrwt>
</event>
<event>
 7    1  0.3345055E-009  0.9134256E+02  0.7818608E-02  0.1299633E+00
          1   -1    0    0  501    0  0.00000000000E+00  0.00000000000E+00  0.84481043649E+02  0.84481043799E+02  0.50400000000E-02 0. -1.
         -1   -1    0    0    0  501 -0.00000000000E+00 -0.00000000000E+00 -0.24690338566E+02  0.24690339081E+02  0.50400000000E-02 0.  1.
         23    2    1    2    0    0  0.00000000000E+00  0.00000000000E+00  0.59790705083E+02  0.10917138288E+03  0.91342555393E+02 0.  0.
    9000005    2    3    3    0    0  0.41804733910E+02  0.21017319127E+01  0.12614111351E+02  0.46102499503E+02  0.14638019024E+02 0.  0.
         22    1    3    3    0    0 -0.41804733910E+02 -0.21017319127E+01  0.47176593732E+02  0.63068883377E+02  0.00000000000E+00 0. -1.
         22    1    4    4    0    0  0.88016718917E+01 -0.56170297617E+01  0.25935802394E+01  0.10758583080E+02  0.00000000000E+00 0.  1.
         22    1    4    4    0    0  0.33003062018E+02  0.77187616744E+01  0.10020531111E+02  0.35343916423E+02  0.00000000000E+00 0.  1.
<mgrwt>
<rscale>  0 0.91342555E+02</rscale>
<asrwt>0</asrwt>
<pdfrwt beam="1">  1        1 0.12997084E-01 0.91342555E+02</pdfrwt>
<pdfrwt beam="2">  1       -1 0.37985137E-02 0.91342555E+02</pdfrwt>
<totfact> 0.10111474E+05</totfact>
</mgrwt>
</event>
<event>
 7    1  0.3345055E-009  0.9305391E+02  0.7818608E-02  0.1295620E+00
         -1   -1    0    0    0  501 -0.00000000000E+00  0.00000000000E+00  0.77257395347E+02  0.77257395511E+02  0.50400000000E-02 0.  1.
          1   -1    0    0  501    0  0.00000000000E+00 -0.00000000000E+00 -0.28020071039E+02  0.28020071492E+02  0.50400000000E-02 0. -1.
         23    2    1    2    0    0 -0.44408920985E-15  0.00000000000E+00  0.49237324308E+02  0.10527746700E+03  0.93053914230E+02 0.  0.
    9000005    2    3    3    0    0 -0.39727144954E+01 -0.36473894372E+02 -0.75518580416E+01  0.37667270560E+02  0.39579389145E+01 0.  0.
         22    1    3    3    0    0  0.39727144954E+01  0.36473894372E+02  0.56789182350E+02  0.67610196443E+02  0.00000000000E+00 0.  1.
         22    1    4    4    0    0 -0.21798195299E+00 -0.26203779689E+01 -0.16343380645E+01  0.30959582912E+01  0.00000000000E+00 0. -1.
         22    1    4    4    0    0 -0.37547325424E+01 -0.33853516403E+02 -0.59175199771E+01  0.34571312269E+02  0.00000000000E+00 0. -1.
<mgrwt>
<rscale>  0 0.93053914E+02</rscale>
<asrwt>0</asrwt>
<pdfrwt beam="2">  1        1 0.43107803E-02 0.93053914E+02</pdfrwt>
<pdfrwt beam="1">  1       -1 0.11885753E-01 0.93053914E+02</pdfrwt>
<totfact> 0.80819639E+04</totfact>
</mgrwt>
</event>
<event>
 7    1  0.3345055E-009  0.9099665E+02  0.7818608E-02  0.1300456E+00
         -1   -1    0    0    0  501 -0.00000000000E+00  0.00000000000E+00  0.38942094494E+02  0.38942094820E+02  0.50400000000E-02 0.  1.
          1   -1    0    0  501    0  0.00000000000E+00 -0.00000000000E+00 -0.53158356740E+02  0.53158356979E+02  0.50400000000E-02 0. -1.
         23    2    1    2    0    0  0.00000000000E+00 -0.35527136788E-14 -0.14216262246E+02  0.92100451800E+02  0.90996654386E+02 0.  0.
    9000005    2    3    3    0    0  0.36181178571E+02  0.18881213765E+02  0.10573461524E+02  0.44349972004E+02  0.13767498397E+02 0.  0.
         22    1    3    3    0    0 -0.36181178571E+02 -0.18881213765E+02 -0.24789723770E+02  0.47750479795E+02  0.00000000000E+00 0. -1.
         22    1    4    4    0    0  0.13269768451E+02  0.11708343324E+01 -0.53996195387E+00  0.13332260374E+02  0.00000000000E+00 0. -1.
         22    1    4    4    0    0  0.22911410120E+02  0.17710379433E+02  0.11113423478E+02  0.31017711630E+02  0.00000000000E+00 0. -1.
<mgrwt>
<rscale>  0 0.90996654E+02</rscale>
<asrwt>0</asrwt>
<pdfrwt beam="2">  1        1 0.81782088E-02 0.90996654E+02</pdfrwt>
<pdfrwt beam="1">  1       -1 0.59910915E-02 0.90996654E+02</pdfrwt>
<totfact> 0.95153386E+04</totfact>
</mgrwt>
</event>
<event>
 7    1  0.5109838E-009  0.9105254E+02  0.7818608E-02  0.1300323E+00
         -1   -1    0    0    0  501 -0.00000000000E+00  0.00000000000E+00  0.35180491225E+01  0.35180527327E+01  0.50400000000E-02 0.  1.
          1   -1    0    0  501    0  0.00000000000E+00 -0.00000000000E+00 -0.58914472975E+03  0.58914472977E+03  0.50400000000E-02 0. -1.
         23    2    1    2    0    0  0.88817841970E-15  0.00000000000E+00 -0.58562668063E+03  0.59266278251E+03  0.91052538147E+02 0.  0.
    9000005    2    3    3    0    0  0.79516261225E+01  0.17004491892E+02 -0.56176305554E+03  0.56230073868E+03  0.15874793133E+02 0.  0.
         22    1    3    3    0    0 -0.79516261225E+01 -0.17004491892E+02 -0.23863625095E+02  0.30362043824E+02  0.00000000000E+00 0.  1.
         22    1    4    4    0    0  0.77974770582E+01  0.15779058602E+02 -0.55896716483E+03  0.55924419594E+03  0.00000000000E+00 0.  1.
         22    1    4    4    0    0  0.15414906429E+00  0.12254332900E+01 -0.27958907053E+01  0.30565427395E+01  0.00000000000E+00 0.  1.
<mgrwt>
<rscale>  0 0.91052538E+02</rscale>
<asrwt>0</asrwt>
<pdfrwt beam="2">  1        1 0.90637573E-01 0.91052538E+02</pdfrwt>
<pdfrwt beam="1">  1       -1 0.54123907E-03 0.91052538E+02</pdfrwt>
<totfact> 0.14193576E+05</totfact>
</mgrwt>
</event>
<event>
 7    1  0.3345055E-009  0.7872181E+02  0.7818608E-02  0.1332718E+00
         -1   -1    0    0    0  501 -0.00000000000E+00  0.00000000000E+00  0.36001903650E+03  0.36001903653E+03  0.50400000000E-02 0.  1.
          1   -1    0    0  501    0  0.00000000000E+00 -0.00000000000E+00 -0.43033287987E+01  0.43033317501E+01  0.50400000000E-02 0. -1.
         23    2    1    2    0    0  0.00000000000E+00  0.88817841970E-15  0.35571570770E+03  0.36432236828E+03  0.78721809733E+02 0.  0.
    9000005    2    3    3    0    0  0.33729365531E+02 -0.70233093556E+01  0.26177198216E+03  0.26426028485E+03  0.11042215811E+02 0.  0.
         22    1    3    3    0    0 -0.33729365531E+02  0.70233093556E+01  0.93943725534E+02  0.10006208343E+03  0.00000000000E+00 0. -1.
         22    1    4    4    0    0  0.18786701221E+02  0.17208042142E+01  0.13730873415E+03  0.13859866443E+03  0.00000000000E+00 0.  1.
         22    1    4    4    0    0  0.14942664309E+02 -0.87441135698E+01  0.12446324802E+03  0.12566162042E+03  0.00000000000E+00 0.  1.
<mgrwt>
<rscale>  0 0.78721810E+02</rscale>
<asrwt>0</asrwt>
<pdfrwt beam="2">  1        1 0.66205061E-03 0.78721810E+02</pdfrwt>
<pdfrwt beam="1">  1       -1 0.55387562E-01 0.78721810E+02</pdfrwt>
<totfact> 0.82178581E+04</totfact>
</mgrwt>
</event>
<event>
 7    1  0.3345055E-009  0.1046590E+03  0.7818608E-02  0.1270793E+00
          1   -1    0    0  501    0  0.00000000000E+00  0.00000000000E+00  0.67233282274E+02  0.67233282463E+02  0.50400000000E-02 0. -1.
         -1   -1    0    0    0  501 -0.00000000000E+00 -0.00000000000E+00 -0.40729465109E+02  0.40729465421E+02  0.50400000000E-02 0.  1.
         23    2    1    2    0    0  0.71054273576E-14 -0.35527136788E-14  0.26503817165E+02  0.10796274788E+03  0.10465898244E+03 0.  0.
    9000005    2    3    3    0    0  0.36952898479E+02 -0.25764756495E+02 -0.13856556158E+02  0.47478873024E+02  0.57358392496E+01 0.  0.
         22    1    3    3    0    0 -0.36952898479E+02  0.25764756495E+02  0.40360373323E+02  0.60483874859E+02  0.00000000000E+00 0.  1.
         22    1    4    4    0    0  0.16692242028E+01  0.38464053932E-01 -0.19132424257E+00  0.16805933144E+01  0.00000000000E+00 0. -1.
         22    1    4    4    0    0  0.35283674276E+02 -0.25803220549E+02 -0.13665231915E+02  0.45798279710E+02  0.00000000000E+00 0. -1.
<mgrwt>
<rscale>  0 0.10465898E+03</rscale>
<asrwt>0</asrwt>
<pdfrwt beam="1">  1        1 0.10343582E-01 0.10465898E+03</pdfrwt>
<pdfrwt beam="2">  1       -1 0.62660716E-02 0.10465898E+03</pdfrwt>
<totfact> 0.66723252E+04</totfact>
</mgrwt>
</event>
<event>
 7    1  0.3345055E-009  0.9178444E+02  0.7818608E-02  0.1298587E+00
          1   -1    0    0  501    0  0.00000000000E+00  0.00000000000E+00  0.26526463971E+03  0.26526463976E+03  0.50400000000E-02 0. -1.
         -1   -1    0    0    0  501 -0.00000000000E+00 -0.00000000000E+00 -0.79396026061E+01  0.79396042057E+01  0.50400000000E-02 0.  1.
         23    2    1    2    0    0  0.00000000000E+00  0.00000000000E+00  0.25732503710E+03  0.27320424396E+03  0.91784444211E+02 0.  0.
    9000005    2    3    3    0    0  0.14003830385E+02 -0.51824695940E+00  0.25853434230E+03  0.25913874488E+03  0.10793845672E+02 0.  0.
         22    1    3    3    0    0 -0.14003830385E+02  0.51824695940E+00 -0.12093051968E+01  0.14065499082E+02  0.00000000000E+00 0.  1.
         22    1    4    4    0    0  0.14392426990E+02  0.16128956031E+01  0.18256905963E+03  0.18314258085E+03  0.00000000000E+00 0. -1.
         22    1    4    4    0    0 -0.38859660468E+00 -0.21311425625E+01  0.75965282674E+02  0.75996164033E+02  0.00000000000E+00 0. -1.
<mgrwt>
<rscale>  0 0.91784444E+02</rscale>
<asrwt>0</asrwt>
<pdfrwt beam="1">  1        1 0.40809942E-01 0.91784444E+02</pdfrwt>
<pdfrwt beam="2">  1       -1 0.12214775E-02 0.91784444E+02</pdfrwt>
<totfact> 0.12290880E+05</totfact>
</mgrwt>
</event>
<event>
 7    1  0.3345055E-009  0.9131434E+02  0.7818608E-02  0.1299700E+00
          1   -1    0    0  501    0  0.00000000000E+00  0.00000000000E+00  0.48068697853E+03  0.48068697855E+03  0.50400000000E-02 0. -1.
         -1   -1    0    0    0  501 -0.00000000000E+00 -0.00000000000E+00 -0.43366609055E+01  0.43366638342E+01  0.50400000000E-02 0.  1.
         23    2    1    2    0    0  0.00000000000E+00  0.00000000000E+00  0.47635031762E+03  0.48502364239E+03  0.91314339382E+02 0.  0.
    9000005    2    3    3    0    0  0.79728699130E+01 -0.89296851150E+01  0.47213085520E+03  0.47233073909E+03  0.67436438326E+01 0.  0.
         22    1    3    3    0    0 -0.79728699130E+01  0.89296851150E+01  0.42194624249E+01  0.12692903295E+02  0.00000000000E+00 0.  1.
         22    1    4    4    0    0  0.59046324650E+01 -0.93208022965E+01  0.43527765271E+03  0.43541747438E+03  0.00000000000E+00 0. -1.
         22    1    4    4    0    0  0.20682374480E+01  0.39111718151E+00  0.36853202483E+02  0.36913264717E+02  0.00000000000E+00 0. -1.
<mgrwt>
<rscale>  0 0.91314339E+02</rscale>
<asrwt>0</asrwt>
<pdfrwt beam="1">  1        1 0.73951785E-01 0.91314339E+02</pdfrwt>
<pdfrwt beam="2">  1       -1 0.66717935E-03 0.91314339E+02</pdfrwt>
<totfact> 0.13803874E+05</totfact>
</mgrwt>
</event>
<event>
 7    1  0.3345055E-009  0.9183549E+02  0.7818608E-02  0.1298467E+00
         -1   -1    0    0    0  501 -0.00000000000E+00  0.00000000000E+00  0.16693765851E+03  0.16693765858E+03  0.50400000000E-02 0.  1.
          1   -1    0    0  501    0  0.00000000000E+00 -0.00000000000E+00 -0.12630099775E+02  0.12630100780E+02  0.50400000000E-02 0. -1.
         23    2    1    2    0    0  0.00000000000E+00  0.00000000000E+00  0.15430755873E+03  0.17956775936E+03  0.91835491618E+02 0.  0.
    9000005    2    3    3    0    0  0.27590124375E+02  0.10097474096E+02  0.11790102337E+02  0.34053501218E+02  0.12548326023E+02 0.  0.
         22    1    3    3    0    0 -0.27590124375E+02 -0.10097474096E+02  0.14251745640E+03  0.14551425815E+03  0.00000000000E+00 0.  1.
         22    1    4    4    0    0  0.18964035320E+02  0.67382191127E+00  0.88786832648E+01  0.20950410213E+02  0.00000000000E+00 0.  1.
         22    1    4    4    0    0  0.86260890545E+01  0.94236521843E+01  0.29114190726E+01  0.13103091005E+02  0.00000000000E+00 0.  1.
<mgrwt>
<rscale>  0 0.91835492E+02</rscale>
<asrwt>0</asrwt>
<pdfrwt beam="2">  1        1 0.19430924E-02 0.91835492E+02</pdfrwt>
<pdfrwt beam="1">  1       -1 0.25682716E-01 0.91835492E+02</pdfrwt>
<totfact> 0.71520396E+04</totfact>
</mgrwt>
</event>
<event>
 7    1  0.3345055E-009  0.9007994E+02  0.7818608E-02  0.1302658E+00
         -1   -1    0    0    0  501 -0.00000000000E+00  0.00000000000E+00  0.84742295763E+01  0.84742310750E+01  0.50400000000E-02 0.  1.
          1   -1    0    0  501    0  0.00000000000E+00 -0.00000000000E+00 -0.23938441925E+03  0.23938441930E+03  0.50400000000E-02 0. -1.
         23    2    1    2    0    0 -0.44408920985E-15  0.00000000000E+00 -0.23091018968E+03  0.24785865038E+03  0.90079936013E+02 0.  0.
    9000005    2    3    3    0    0  0.36385317860E+01  0.44488572702E+02 -0.12513619014E+03  0.13305180828E+03  0.71586025076E+01 0.  0.
         22    1    3    3    0    0 -0.36385317860E+01 -0.44488572702E+02 -0.10577399954E+03  0.11480684210E+03  0.00000000000E+00 0. -1.
         22    1    4    4    0    0  0.57139947764E+01  0.27462373946E+02 -0.76714622979E+02  0.81682097781E+02  0.00000000000E+00 0.  1.
         22    1    4    4    0    0 -0.20754629904E+01  0.17026198756E+02 -0.48421567159E+02  0.51369710500E+02  0.00000000000E+00 0.  1.
<mgrwt>
<rscale>  0 0.90079936E+02</rscale>
<asrwt>0</asrwt>
<pdfrwt beam="2">  1        1 0.36828367E-01 0.90079936E+02</pdfrwt>
<pdfrwt beam="1">  1       -1 0.13037279E-02 0.90079936E+02</pdfrwt>
<totfact> 0.12665624E+05</totfact>
</mgrwt>
</event>
<event>
 7    1  0.3345055E-009  0.8992260E+02  0.7818608E-02  0.1303039E+00
         -1   -1    0    0    0  501 -0.00000000000E+00  0.00000000000E+00  0.15818086005E+02  0.15818086808E+02  0.50400000000E-02 0. -1.
          1   -1    0    0  501    0  0.00000000000E+00 -0.00000000000E+00 -0.12779792123E+03  0.12779792133E+03  0.50400000000E-02 0.  1.
         23    2    1    2    0    0  0.00000000000E+00  0.00000000000E+00 -0.11197983522E+03  0.14361600813E+03  0.89922601699E+02 0.  0.
    9000005    2    3    3    0    0  0.38613875625E+02  0.82613276369E+01 -0.89535001490E+02  0.98195181564E+02  0.81545242394E+01 0.  0.
         22    1    3    3    0    0 -0.38613875625E+02 -0.82613276369E+01 -0.22444833732E+02  0.45420826570E+02  0.00000000000E+00 0. -1.
         22    1    4    4    0    0  0.15781788379E+02  0.42128340934E+01 -0.27728588632E+02  0.32182098177E+02  0.00000000000E+00 0.  1.
         22    1    4    4    0    0  0.22832087246E+02  0.40484935436E+01 -0.61806412858E+02  0.66013083388E+02  0.00000000000E+00 0.  1.
<mgrwt>
<rscale>  0 0.89922602E+02</rscale>
<asrwt>0</asrwt>
<pdfrwt beam="2">  1        1 0.19661218E-01 0.89922602E+02</pdfrwt>
<pdfrwt beam="1">  1       -1 0.24335519E-02 0.89922602E+02</pdfrwt>
<totfact> 0.11309342E+05</totfact>
</mgrwt>
</event>
<event>
 7    1  0.3345055E-009  0.9095662E+02  0.7818608E-02  0.1300551E+00
         -1   -1    0    0    0  501 -0.00000000000E+00  0.00000000000E+00  0.17014129541E+02  0.17014130288E+02  0.50400000000E-02 0.  1.
          1   -1    0    0  501    0  0.00000000000E+00 -0.00000000000E+00 -0.12156230342E+03  0.12156230352E+03  0.50400000000E-02 0. -1.
         23    2    1    2    0    0  0.00000000000E+00  0.00000000000E+00 -0.10454817387E+03  0.13857643381E+03  0.90956623433E+02 0.  0.
    9000005    2    3    3    0    0  0.18163800874E+02 -0.89046199828E+01  0.75015173840E+01  0.24715337597E+02  0.12056501575E+02 0.  0.
         22    1    3    3    0    0 -0.18163800874E+02  0.89046199828E+01 -0.11204969126E+03  0.11386109621E+03  0.00000000000E+00 0. -1.
         22    1    4    4    0    0  0.12990529902E+02 -0.13232530222E+01  0.32044368500E+00  0.13061682504E+02  0.00000000000E+00 0.  1.
         22    1    4    4    0    0  0.51732709725E+01 -0.75813669606E+01  0.71810736990E+01  0.11653655093E+02  0.00000000000E+00 0.  1.
<mgrwt>
<rscale>  0 0.90956623E+02</rscale>
<asrwt>0</asrwt>
<pdfrwt beam="2">  1        1 0.18701892E-01 0.90956623E+02</pdfrwt>
<pdfrwt beam="1">  1       -1 0.26175585E-02 0.90956623E+02</pdfrwt>
<totfact> 0.10869196E+05</totfact>
</mgrwt>
</event>
<event>
 7    1  0.3345055E-009  0.9699032E+02  0.7818608E-02  0.1286755E+00
          1   -1    0    0  501    0  0.00000000000E+00  0.00000000000E+00  0.80079200644E+02  0.80079200803E+02  0.50400000000E-02 0. -1.
         -1   -1    0    0    0  501 -0.00000000000E+00 -0.00000000000E+00 -0.29368182585E+02  0.29368183017E+02  0.50400000000E-02 0.  1.
         23    2    1    2    0    0  0.00000000000E+00  0.00000000000E+00  0.50711018059E+02  0.10944738382E+03  0.96990321540E+02 0.  0.
    9000005    2    3    3    0    0  0.37873503201E+02  0.28386494645E+02  0.15228188974E+02  0.50293123763E+02  0.75700221608E+01 0.  0.
         22    1    3    3    0    0 -0.37873503201E+02 -0.28386494645E+02  0.35482829085E+02  0.59154260056E+02  0.00000000000E+00 0. -1.
         22    1    4    4    0    0  0.33775379141E+02  0.25827668043E+02  0.11113871888E+02  0.43947273191E+02  0.00000000000E+00 0.  1.
         22    1    4    4    0    0  0.40981240604E+01  0.25588266022E+01  0.41143170869E+01  0.63458505723E+01  0.00000000000E+00 0.  1.
<mgrwt>
<rscale>  0 0.96990322E+02</rscale>
<asrwt>0</asrwt>
<pdfrwt beam="1">  1        1 0.12319877E-01 0.96990322E+02</pdfrwt>
<pdfrwt beam="2">  1       -1 0.45181821E-02 0.96990322E+02</pdfrwt>
<totfact> 0.84962620E+04</totfact>
</mgrwt>
</event>
<event>
 7    1  0.3345055E-009  0.9126534E+02  0.7818608E-02  0.1299816E+00
         -1   -1    0    0    0  501 -0.00000000000E+00  0.00000000000E+00  0.11199160281E+03  0.11199160292E+03  0.50400000000E-02 0.  1.
          1   -1    0    0  501    0  0.00000000000E+00 -0.00000000000E+00 -0.18593721661E+02  0.18593722344E+02  0.50400000000E-02 0. -1.
         23    2    1    2    0    0  0.00000000000E+00  0.00000000000E+00  0.93397881145E+02  0.13058532526E+03  0.91265343762E+02 0.  0.
    9000005    2    3    3    0    0  0.39423474229E+02  0.11535252207E+02  0.71886324500E+02  0.84217023235E+02  0.15413986787E+02 0.  0.
         22    1    3    3    0    0 -0.39423474229E+02 -0.11535252207E+02  0.21511556645E+02  0.46368302029E+02  0.00000000000E+00 0. -1.
         22    1    4    4    0    0  0.22763220267E+02 -0.13235919808E+01  0.35930629786E+02  0.42554979138E+02  0.00000000000E+00 0.  1.
         22    1    4    4    0    0  0.16660253962E+02  0.12858844188E+02  0.35955694714E+02  0.41662044096E+02  0.00000000000E+00 0.  1.
<mgrwt>
<rscale>  0 0.91265344E+02</rscale>
<asrwt>0</asrwt>
<pdfrwt beam="2">  1        1 0.28605726E-02 0.91265344E+02</pdfrwt>
<pdfrwt beam="1">  1       -1 0.17229477E-01 0.91265344E+02</pdfrwt>
<totfact> 0.79427366E+04</totfact>
</mgrwt>
</event>
<event>
 7    1  0.3345055E-009  0.9201143E+02  0.7818608E-02  0.1298053E+00
         -1   -1    0    0    0  501 -0.00000000000E+00  0.00000000000E+00  0.45090734183E+02  0.45090734465E+02  0.50400000000E-02 0.  1.
          1   -1    0    0  501    0  0.00000000000E+00 -0.00000000000E+00 -0.46939257421E+02  0.46939257691E+02  0.50400000000E-02 0. -1.
         23    2    1    2    0    0  0.00000000000E+00 -0.17763568394E-14 -0.18485232376E+01  0.92029992156E+02  0.92011425476E+02 0.  0.
    9000005    2    3    3    0    0  0.23201809263E+02  0.11468839673E+02 -0.38814835944E+02  0.46903874313E+02  0.48501236782E+01 0.  0.
         22    1    3    3    0    0 -0.23201809263E+02 -0.11468839673E+02  0.36966312706E+02  0.45126117843E+02  0.00000000000E+00 0.  1.
         22    1    4    4    0    0  0.45865824494E+01  0.32409942688E+00 -0.58686802629E+01  0.74554132703E+01  0.00000000000E+00 0.  1.
         22    1    4    4    0    0  0.18615226813E+02  0.11144740246E+02 -0.32946155681E+02  0.39448461042E+02  0.00000000000E+00 0.  1.
<mgrwt>
<rscale>  0 0.92011425E+02</rscale>
<asrwt>0</asrwt>
<pdfrwt beam="2">  1        1 0.72214243E-02 0.92011425E+02</pdfrwt>
<pdfrwt beam="1">  1       -1 0.69370361E-02 0.92011425E+02</pdfrwt>
<totfact> 0.90532696E+04</totfact>
</mgrwt>
</event>
<event>
 7    1  0.3345055E-009  0.9256811E+02  0.7818608E-02  0.1296749E+00
          1   -1    0    0  501    0  0.00000000000E+00  0.00000000000E+00  0.15279726368E+03  0.15279726376E+03  0.50400000000E-02 0. -1.
         -1   -1    0    0    0  501 -0.00000000000E+00 -0.00000000000E+00 -0.14019973024E+02  0.14019973929E+02  0.50400000000E-02 0.  1.
         23    2    1    2    0    0  0.00000000000E+00 -0.17763568394E-14  0.13877729065E+03  0.16681723769E+03  0.92568106761E+02 0.  0.
    9000005    2    3    3    0    0  0.36567021968E+02 -0.15593703010E+02  0.10979694117E+03  0.11762200087E+03  0.14115811356E+02 0.  0.
         22    1    3    3    0    0 -0.36567021968E+02  0.15593703010E+02  0.28980349485E+02  0.49195236816E+02  0.00000000000E+00 0.  1.
         22    1    4    4    0    0  0.17598537102E+02 -0.15131185005E+02  0.59882391328E+02  0.64222753436E+02  0.00000000000E+00 0.  1.
         22    1    4    4    0    0  0.18968484866E+02 -0.46251800471E+00  0.49914549840E+02  0.53399247436E+02  0.00000000000E+00 0.  1.
<mgrwt>
<rscale>  0 0.92568107E+02</rscale>
<asrwt>0</asrwt>
<pdfrwt beam="1">  1        1 0.23507272E-01 0.92568107E+02</pdfrwt>
<pdfrwt beam="2">  1       -1 0.21569190E-02 0.92568107E+02</pdfrwt>
<totfact> 0.10800510E+05</totfact>
</mgrwt>
</event>
<event>
 7    1  0.3345055E-009  0.9046896E+02  0.7818608E-02  0.1301720E+00
          1   -1    0    0  501    0  0.00000000000E+00  0.00000000000E+00  0.30744339987E+02  0.30744340400E+02  0.50400000000E-02 0. -1.
         -1   -1    0    0    0  501 -0.00000000000E+00 -0.00000000000E+00 -0.66553972592E+02  0.66553972783E+02  0.50400000000E-02 0.  1.
         23    2    1    2    0    0  0.17763568394E-14  0.00000000000E+00 -0.35809632605E+02  0.97298313184E+02  0.90468955786E+02 0.  0.
    9000005    2    3    3    0    0  0.13139797743E+02  0.30463967736E+02  0.12977762972E+02  0.38299011644E+02  0.14060026536E+02 0.  0.
         22    1    3    3    0    0 -0.13139797743E+02 -0.30463967736E+02 -0.48787395578E+02  0.58999301540E+02  0.00000000000E+00 0.  1.
         22    1    4    4    0    0  0.43458974803E+01  0.25332430263E+02  0.77018979761E+01  0.26831661902E+02  0.00000000000E+00 0. -1.
         22    1    4    4    0    0  0.87939002623E+01  0.51315374723E+01  0.52758649963E+01  0.11467349742E+02  0.00000000000E+00 0. -1.
<mgrwt>
<rscale>  0 0.90468956E+02</rscale>
<asrwt>0</asrwt>
<pdfrwt beam="1">  1        1 0.47298985E-02 0.90468956E+02</pdfrwt>
<pdfrwt beam="2">  1       -1 0.10239073E-01 0.90468956E+02</pdfrwt>
<totfact> 0.88990427E+04</totfact>
</mgrwt>
</event>
<event>
 7    1  0.3345055E-009  0.9221257E+02  0.7818608E-02  0.1297580E+00
          1   -1    0    0  501    0  0.00000000000E+00  0.00000000000E+00  0.35272570332E+02  0.35272570692E+02  0.50400000000E-02 0. -1.
         -1   -1    0    0    0  501 -0.00000000000E+00 -0.00000000000E+00 -0.60267497888E+02  0.60267498099E+02  0.50400000000E-02 0.  1.
         23    2    1    2    0    0  0.00000000000E+00  0.00000000000E+00 -0.24994927557E+02  0.95540068791E+02  0.92212571491E+02 0.  0.
    9000005    2    3    3    0    0  0.22224387684E+02  0.30067264150E+02  0.15430020578E+02  0.40475196021E+02  0.14806000513E+01 0.  0.
         22    1    3    3    0    0 -0.22224387684E+02 -0.30067264150E+02 -0.40424948135E+02  0.55064872769E+02  0.00000000000E+00 0.  1.
         22    1    4    4    0    0  0.10133725058E+02  0.14954574655E+02  0.74492807025E+01  0.19540303724E+02  0.00000000000E+00 0. -1.
         22    1    4    4    0    0  0.12090662626E+02  0.15112689496E+02  0.79807398758E+01  0.20934892297E+02  0.00000000000E+00 0. -1.
<mgrwt>
<rscale>  0 0.92212571E+02</rscale>
<asrwt>0</asrwt>
<pdfrwt beam="1">  1        1 0.54265493E-02 0.92212571E+02</pdfrwt>
<pdfrwt beam="2">  1       -1 0.92719228E-02 0.92212571E+02</pdfrwt>
<totfact> 0.86114071E+04</totfact>
</mgrwt>
</event>
<event>
 7    1  0.3345055E-009  0.9011152E+02  0.7818608E-02  0.1302582E+00
          1   -1    0    0  501    0  0.00000000000E+00  0.00000000000E+00  0.20354565834E+03  0.20354565840E+03  0.50400000000E-02 0. -1.
         -1   -1    0    0    0  501 -0.00000000000E+00 -0.00000000000E+00 -0.99732974455E+01  0.99732987190E+01  0.50400000000E-02 0.  1.
         23    2    1    2    0    0 -0.38857805862E-15  0.00000000000E+00  0.19357236089E+03  0.21351895712E+03  0.90111520616E+02 0.  0.
    9000005    2    3    3    0    0  0.44144736631E+00  0.41016311543E+02  0.13639404847E+03  0.14314927544E+03  0.14347331190E+02 0.  0.
         22    1    3    3    0    0 -0.44144736631E+00 -0.41016311543E+02  0.57178312424E+02  0.70369681682E+02  0.00000000000E+00 0. -1.
         22    1    4    4    0    0 -0.29961426619E+01  0.83693203112E+00  0.87404005415E+01  0.92774957667E+01  0.00000000000E+00 0.  1.
         22    1    4    4    0    0  0.34375900282E+01  0.40179379512E+02  0.12765364793E+03  0.13387177967E+03  0.00000000000E+00 0.  1.
<mgrwt>
<rscale>  0 0.90111521E+02</rscale>
<asrwt>0</asrwt>
<pdfrwt beam="1">  1        1 0.31314713E-01 0.90111521E+02</pdfrwt>
<pdfrwt beam="2">  1       -1 0.15343537E-02 0.90111521E+02</pdfrwt>
<totfact> 0.12260916E+05</totfact>
</mgrwt>
</event>
<event>
 7    1  0.3345055E-009  0.9145779E+02  0.7818608E-02  0.1299359E+00
         -1   -1    0    0    0  501 -0.00000000000E+00  0.00000000000E+00  0.30619699424E+02  0.30619699839E+02  0.50400000000E-02 0.  1.
          1   -1    0    0  501    0  0.00000000000E+00 -0.00000000000E+00 -0.68293674508E+02  0.68293674694E+02  0.50400000000E-02 0. -1.
         23    2    1    2    0    0 -0.17763568394E-14  0.35527136788E-14 -0.37673975084E+02  0.98913374533E+02  0.91457789515E+02 0.  0.
    9000005    2    3    3    0    0 -0.14089710632E+02  0.30288555813E+02  0.12118094729E+02  0.38953664934E+02  0.15956918030E+02 0.  0.
         22    1    3    3    0    0  0.14089710632E+02 -0.30288555813E+02 -0.49792069813E+02  0.59959709599E+02  0.00000000000E+00 0. -1.
         22    1    4    4    0    0 -0.75563425589E+01  0.60979217678E+01 -0.23893588004E+01  0.99995999035E+01  0.00000000000E+00 0.  1.
         22    1    4    4    0    0 -0.65333680733E+01  0.24190634045E+02  0.14507453530E+02  0.28954065031E+02  0.00000000000E+00 0.  1.
<mgrwt>
<rscale>  0 0.91457790E+02</rscale>
<asrwt>0</asrwt>
<pdfrwt beam="2">  1        1 0.10506719E-01 0.91457790E+02</pdfrwt>
<pdfrwt beam="1">  1       -1 0.47107230E-02 0.91457790E+02</pdfrwt>
<totfact> 0.97460341E+04</totfact>
</mgrwt>
</event>
<event>
 7    1  0.3345055E-009  0.9175825E+02  0.7818608E-02  0.1298649E+00
         -1   -1    0    0    0  501 -0.00000000000E+00  0.00000000000E+00  0.82930786398E+01  0.82930801713E+01  0.50400000000E-02 0.  1.
          1   -1    0    0  501    0  0.00000000000E+00 -0.00000000000E+00 -0.25381332493E+03  0.25381332498E+03  0.50400000000E-02 0. -1.
         23    2    1    2    0    0  0.00000000000E+00  0.00000000000E+00 -0.24552024630E+03  0.26210640516E+03  0.91758249129E+02 0.  0.
    9000005    2    3    3    0    0  0.41889332009E+02 -0.10941439398E+02 -0.88485124146E+02  0.99212388014E+02  0.11791925544E+02 0.  0.
         22    1    3    3    0    0 -0.41889332009E+02  0.10941439398E+02 -0.15703512215E+03  0.16289401714E+03  0.00000000000E+00 0. -1.
         22    1    4    4    0    0  0.33902976756E+02 -0.12827341481E+02 -0.76904045739E+02  0.85018731898E+02  0.00000000000E+00 0.  1.
         22    1    4    4    0    0  0.79863552534E+01  0.18859020824E+01 -0.11581078407E+02  0.14193656117E+02  0.00000000000E+00 0.  1.
<mgrwt>
<rscale>  0 0.91758249E+02</rscale>
<asrwt>0</asrwt>
<pdfrwt beam="2">  1        1 0.39048198E-01 0.91758249E+02</pdfrwt>
<pdfrwt beam="1">  1       -1 0.12758586E-02 0.91758249E+02</pdfrwt>
<totfact> 0.12194473E+05</totfact>
</mgrwt>
</event>
<event>
 7    1  0.3345055E-009  0.9037996E+02  0.7818608E-02  0.1301934E+00
          1   -1    0    0  501    0  0.00000000000E+00  0.00000000000E+00  0.22280900974E+02  0.22280901544E+02  0.50400000000E-02 0. -1.
         -1   -1    0    0    0  501 -0.00000000000E+00 -0.00000000000E+00 -0.91654031305E+02  0.91654031444E+02  0.50400000000E-02 0.  1.
         23    2    1    2    0    0  0.00000000000E+00  0.17763568394E-14 -0.69373130331E+02  0.11393493299E+03  0.90379963173E+02 0.  0.
    9000005    2    3    3    0    0  0.16353975968E+02  0.67614732523E+01  0.15011980411E+02  0.27714187426E+02  0.15150794643E+02 0.  0.
         22    1    3    3    0    0 -0.16353975968E+02 -0.67614732523E+01 -0.84385110742E+02  0.86220745563E+02  0.00000000000E+00 0. -1.
         22    1    4    4    0    0  0.14364848266E+02  0.10876842635E+02  0.14474098063E+02  0.23111773756E+02  0.00000000000E+00 0. -1.
         22    1    4    4    0    0  0.19891277013E+01 -0.41153693824E+01  0.53788234773E+00  0.46024136695E+01  0.00000000000E+00 0. -1.
<mgrwt>
<rscale>  0 0.90379963E+02</rscale>
<asrwt>0</asrwt>
<pdfrwt beam="1">  1        1 0.34278310E-02 0.90379963E+02</pdfrwt>
<pdfrwt beam="2">  1       -1 0.14100620E-01 0.90379963E+02</pdfrwt>
<totfact> 0.84558025E+04</totfact>
</mgrwt>
</event>
<event>
 7    1  0.3345055E-009  0.9022263E+02  0.7818608E-02  0.1302313E+00
          1   -1    0    0  501    0  0.00000000000E+00  0.00000000000E+00  0.70347870673E+02  0.70347870854E+02  0.50400000000E-02 0. -1.
         -1   -1    0    0    0  501 -0.00000000000E+00 -0.00000000000E+00 -0.28928109536E+02  0.28928109975E+02  0.50400000000E-02 0.  1.
         23    2    1    2    0    0  0.17763568394E-14 -0.71054273576E-14  0.41419761137E+02  0.99275980829E+02  0.90222634393E+02 0.  0.
    9000005    2    3    3    0    0  0.13627112123E+02 -0.41980659160E+02  0.20341024923E+02  0.50363947046E+02  0.13217259129E+02 0.  0.
         22    1    3    3    0    0 -0.13627112123E+02  0.41980659160E+02  0.21078736214E+02  0.48912033782E+02  0.00000000000E+00 0. -1.
         22    1    4    4    0    0  0.46357288835E+01 -0.35831878595E+01 -0.27224166248E+00  0.58654354519E+01  0.00000000000E+00 0.  1.
         22    1    4    4    0    0  0.89913832391E+01 -0.38397471300E+02  0.20613266585E+02  0.44498511595E+02  0.00000000000E+00 0.  1.
<mgrwt>
<rscale>  0 0.90222634E+02</rscale>
<asrwt>0</asrwt>
<pdfrwt beam="1">  1        1 0.10822749E-01 0.90222634E+02</pdfrwt>
<pdfrwt beam="2">  1       -1 0.44504785E-02 0.90222634E+02</pdfrwt>
<totfact> 0.10164464E+05</totfact>
</mgrwt>
</event>
<event>
 7    1  0.3345055E-009  0.9150212E+02  0.7818608E-02  0.1299254E+00
          1   -1    0    0  501    0  0.00000000000E+00  0.00000000000E+00  0.19687982245E+04  0.19687982245E+04  0.50400000000E-02 0. -1.
         -1   -1    0    0    0  501 -0.00000000000E+00 -0.00000000000E+00 -0.10631600658E+01  0.10631720120E+01  0.50400000000E-02 0.  1.
         23    2    1    2    0    0  0.00000000000E+00  0.00000000000E+00  0.19677350645E+04  0.19698613966E+04  0.91502118500E+02 0.  0.
    9000005    2    3    3    0    0  0.95364716042E+01  0.14548612922E+02  0.18925741575E+04  0.18927136917E+04  0.15019010058E+02 0.  0.
         22    1    3    3    0    0 -0.95364716042E+01 -0.14548612922E+02  0.75160906988E+02  0.77147704878E+02  0.00000000000E+00 0.  1.
         22    1    4    4    0    0  0.43007852815E+01 -0.22076841621E+01  0.61383152877E+03  0.61385056515E+03  0.00000000000E+00 0.  1.
         22    1    4    4    0    0  0.52356863227E+01  0.16756297084E+02  0.12787426287E+04  0.12788631265E+04  0.00000000000E+00 0.  1.
<mgrwt>
<rscale>  0 0.91502119E+02</rscale>
<asrwt>0</asrwt>
<pdfrwt beam="1">  1        1 0.30289486E+00 0.91502119E+02</pdfrwt>
<pdfrwt beam="2">  1       -1 0.16356248E-03 0.91502119E+02</pdfrwt>
<totfact> 0.80846536E+04</totfact>
</mgrwt>
</event>
<event>
 7    1  0.3345055E-009  0.9066936E+02  0.7818608E-02  0.1301239E+00
         -1   -1    0    0    0  501 -0.00000000000E+00  0.00000000000E+00  0.13850001219E+03  0.13850001228E+03  0.50400000000E-02 0.  1.
          1   -1    0    0  501    0  0.00000000000E+00 -0.00000000000E+00 -0.14839228136E+02  0.14839228991E+02  0.50400000000E-02 0. -1.
         23    2    1    2    0    0 -0.17763568394E-14  0.00000000000E+00  0.12366078406E+03  0.15333924128E+03  0.90669363081E+02 0.  0.
    9000005    2    3    3    0    0  0.11402714187E+02  0.24272004645E+02  0.36533603681E+01  0.30372034913E+02  0.13782647149E+02 0.  0.
         22    1    3    3    0    0 -0.11402714187E+02 -0.24272004645E+02  0.12000742369E+03  0.12296720636E+03  0.00000000000E+00 0.  1.
         22    1    4    4    0    0 -0.20892868874E+01  0.78217461789E+01  0.41356356050E+01  0.90911118596E+01  0.00000000000E+00 0. -1.
         22    1    4    4    0    0  0.13492001075E+02  0.16450258466E+02 -0.48227523695E+00  0.21280923053E+02  0.00000000000E+00 0. -1.
<mgrwt>
<rscale>  0 0.90669363E+02</rscale>
<asrwt>0</asrwt>
<pdfrwt beam="2">  1        1 0.22829582E-02 0.90669363E+02</pdfrwt>
<pdfrwt beam="1">  1       -1 0.21307695E-01 0.90669363E+02</pdfrwt>
<totfact> 0.77272503E+04</totfact>
</mgrwt>
</event>
<event>
 7    1  0.3345055E-009  0.9065149E+02  0.7818608E-02  0.1301282E+00
          1   -1    0    0  501    0  0.00000000000E+00  0.00000000000E+00  0.10416384034E+02  0.10416385253E+02  0.50400000000E-02 0. -1.
         -1   -1    0    0    0  501 -0.00000000000E+00 -0.00000000000E+00 -0.19722996960E+03  0.19722996967E+03  0.50400000000E-02 0.  1.
         23    2    1    2    0    0  0.00000000000E+00  0.88817841970E-15 -0.18681358557E+03  0.20764635492E+03  0.90651491760E+02 0.  0.
    9000005    2    3    3    0    0  0.33401322416E+02  0.70424579661E+01 -0.16052403010E+03  0.16456056515E+03  0.12123151801E+02 0.  0.
         22    1    3    3    0    0 -0.33401322416E+02 -0.70424579661E+01 -0.26289555469E+02  0.43085789770E+02  0.00000000000E+00 0. -1.
         22    1    4    4    0    0  0.15051034192E+02  0.93259797387E+01 -0.81671122240E+02  0.83568413509E+02  0.00000000000E+00 0.  1.
         22    1    4    4    0    0  0.18350288224E+02 -0.22835217726E+01 -0.78852907859E+02  0.80992151641E+02  0.00000000000E+00 0.  1.
<mgrwt>
<rscale>  0 0.90651492E+02</rscale>
<asrwt>0</asrwt>
<pdfrwt beam="1">  1        1 0.16025209E-02 0.90651492E+02</pdfrwt>
<pdfrwt beam="2">  1       -1 0.30343070E-01 0.90651492E+02</pdfrwt>
<totfact> 0.70757276E+04</totfact>
</mgrwt>
</event>
<event>
 7    1  0.3345055E-009  0.9200940E+02  0.7818608E-02  0.1298057E+00
         -1   -1    0    0    0  501 -0.00000000000E+00  0.00000000000E+00  0.42883144142E+02  0.42883144438E+02  0.50400000000E-02 0.  1.
          1   -1    0    0  501    0  0.00000000000E+00 -0.00000000000E+00 -0.49353477647E+02  0.49353477904E+02  0.50400000000E-02 0. -1.
         23    2    1    2    0    0  0.00000000000E+00  0.00000000000E+00 -0.64703335046E+01  0.92236622343E+02  0.92009397811E+02 0.  0.
    9000005    2    3    3    0    0  0.37916176396E+02  0.18130891543E+02  0.13445912351E+02  0.45728316529E+02  0.11996695917E+02 0.  0.
         22    1    3    3    0    0 -0.37916176396E+02 -0.18130891543E+02 -0.19916245856E+02  0.46508305814E+02  0.00000000000E+00 0. -1.
         22    1    4    4    0    0  0.38348652416E+02  0.16855469933E+02  0.11642026704E+02  0.43477152558E+02  0.00000000000E+00 0. -1.
         22    1    4    4    0    0 -0.43247601997E+00  0.12754216106E+01  0.18038856476E+01  0.22511639705E+01  0.00000000000E+00 0. -1.
<mgrwt>
<rscale>  0 0.92009398E+02</rscale>
<asrwt>0</asrwt>
<pdfrwt beam="2">  1        1 0.75928428E-02 0.92009398E+02</pdfrwt>
<pdfrwt beam="1">  1       -1 0.65974068E-02 0.92009398E+02</pdfrwt>
<totfact> 0.91227850E+04</totfact>
</mgrwt>
</event>
<event>
 7    1  0.3345055E-009  0.9364344E+02  0.7818608E-02  0.1294261E+00
         -1   -1    0    0    0  501 -0.00000000000E+00  0.00000000000E+00  0.20645887039E+03  0.20645887045E+03  0.50400000000E-02 0.  1.
          1   -1    0    0  501    0  0.00000000000E+00 -0.00000000000E+00 -0.10618450254E+02  0.10618451450E+02  0.50400000000E-02 0. -1.
         23    2    1    2    0    0  0.00000000000E+00 -0.71054273576E-14  0.19584042014E+03  0.21707732191E+03  0.93643438238E+02 0.  0.
    9000005    2    3    3    0    0 -0.10833481808E+02 -0.38627822493E+02  0.15221625526E+03  0.15781063008E+03  0.11177370075E+02 0.  0.
         22    1    3    3    0    0  0.10833481808E+02  0.38627822493E+02  0.43624164881E+02  0.59266691828E+02  0.00000000000E+00 0. -1.
         22    1    4    4    0    0  0.16932777728E+01 -0.10822238710E+02  0.33821420842E+02  0.35551041448E+02  0.00000000000E+00 0. -1.
         22    1    4    4    0    0 -0.12526759581E+02 -0.27805583784E+02  0.11839483442E+03  0.12225958863E+03  0.00000000000E+00 0. -1.
<mgrwt>
<rscale>  0 0.93643438E+02</rscale>
<asrwt>0</asrwt>
<pdfrwt beam="2">  1        1 0.16336078E-02 0.93643438E+02</pdfrwt>
<pdfrwt beam="1">  1       -1 0.31762904E-01 0.93643438E+02</pdfrwt>
<totfact> 0.64158751E+04</totfact>
</mgrwt>
</event>
<event>
 7    1  0.3345055E-009  0.1060339E+03  0.7818608E-02  0.1268096E+00
          1   -1    0    0  501    0  0.00000000000E+00  0.00000000000E+00  0.12971960804E+02  0.12971961783E+02  0.50400000000E-02 0. -1.
         -1   -1    0    0    0  501 -0.00000000000E+00 -0.00000000000E+00 -0.21668233298E+03  0.21668233304E+03  0.50400000000E-02 0.  1.
         23    2    1    2    0    0  0.00000000000E+00  0.00000000000E+00 -0.20371037218E+03  0.22965429483E+03  0.10603385968E+03 0.  0.
    9000005    2    3    3    0    0  0.34424483418E+02 -0.15296582505E+02 -0.23289806363E+02  0.45343114848E+02  0.97238104048E+01 0.  0.
         22    1    3    3    0    0 -0.34424483418E+02  0.15296582505E+02 -0.18042056582E+03  0.18431117998E+03  0.00000000000E+00 0.  1.
         22    1    4    4    0    0  0.15440944769E+02 -0.84751355106E+01 -0.55147350782E+01  0.18457058278E+02  0.00000000000E+00 0.  1.
         22    1    4    4    0    0  0.18983538649E+02 -0.68214469940E+01 -0.17775071285E+02  0.26886056570E+02  0.00000000000E+00 0.  1.
<mgrwt>
<rscale>  0 0.10603386E+03</rscale>
<asrwt>0</asrwt>
<pdfrwt beam="1">  1        1 0.19956865E-02 0.10603386E+03</pdfrwt>
<pdfrwt beam="2">  1       -1 0.33335741E-01 0.10603386E+03</pdfrwt>
<totfact> 0.45656866E+04</totfact>
</mgrwt>
</event>
<event>
 7    1  0.3345055E-009  0.8991263E+02  0.7818608E-02  0.1303063E+00
          1   -1    0    0  501    0  0.00000000000E+00  0.00000000000E+00  0.57266605527E+01  0.57266627705E+01  0.50400000000E-02 0. -1.
         -1   -1    0    0    0  501 -0.00000000000E+00 -0.00000000000E+00 -0.35292292412E+03  0.35292292416E+03  0.50400000000E-02 0.  1.
         23    2    1    2    0    0  0.00000000000E+00  0.35527136788E-14 -0.34719626357E+03  0.35864958693E+03  0.89912628520E+02 0.  0.
    9000005    2    3    3    0    0 -0.27319403908E+02  0.21376281418E+02 -0.28742317598E+03  0.28954012855E+03  0.42554335168E+01 0.  0.
         22    1    3    3    0    0  0.27319403908E+02 -0.21376281418E+02 -0.59773087593E+02  0.69109458380E+02  0.00000000000E+00 0. -1.
         22    1    4    4    0    0 -0.27363599033E+01  0.81134804867E+00 -0.27788541980E+02  0.27934727788E+02  0.00000000000E+00 0.  1.
         22    1    4    4    0    0 -0.24583044005E+02  0.20564933369E+02 -0.25963463399E+03  0.26160540076E+03  0.00000000000E+00 0.  1.
<mgrwt>
<rscale>  0 0.89912629E+02</rscale>
<asrwt>0</asrwt>
<pdfrwt beam="1">  1        1 0.88102515E-03 0.89912629E+02</pdfrwt>
<pdfrwt beam="2">  1       -1 0.54295818E-01 0.89912629E+02</pdfrwt>
<totfact> 0.58679271E+04</totfact>
</mgrwt>
</event>
<event>
 7    1  0.3345055E-009  0.8425418E+02  0.7818608E-02  0.1317395E+00
          1   -1    0    0  501    0  0.00000000000E+00  0.00000000000E+00  0.22938092220E+02  0.22938092773E+02  0.50400000000E-02 0. -1.
         -1   -1    0    0    0  501 -0.00000000000E+00 -0.00000000000E+00 -0.77368747913E+02  0.77368748077E+02  0.50400000000E-02 0.  1.
         23    2    1    2    0    0 -0.35527136788E-14  0.88817841970E-15 -0.54430655693E+02  0.10030684085E+03  0.84254175221E+02 0.  0.
    9000005    2    3    3    0    0  0.16761179664E+02 -0.53903797532E+01  0.16623191743E+02  0.27104091085E+02  0.12178173599E+02 0.  0.
         22    1    3    3    0    0 -0.16761179664E+02  0.53903797532E+01 -0.71053847436E+02  0.73202749765E+02  0.00000000000E+00 0.  1.
         22    1    4    4    0    0  0.47499352735E+00 -0.50928579693E+01  0.42006042343E+01  0.66187534385E+01  0.00000000000E+00 0.  1.
         22    1    4    4    0    0  0.16286186137E+02 -0.29752178389E+00  0.12422587509E+02  0.20485337647E+02  0.00000000000E+00 0.  1.
<mgrwt>
<rscale>  0 0.84254175E+02</rscale>
<asrwt>0</asrwt>
<pdfrwt beam="1">  1        1 0.35289374E-02 0.84254175E+02</pdfrwt>
<pdfrwt beam="2">  1       -1 0.11902884E-01 0.84254175E+02</pdfrwt>
<totfact> 0.10414080E+05</totfact>
</mgrwt>
</event>
<event>
 7    1  0.3345055E-009  0.9110917E+02  0.7818608E-02  0.1300188E+00
         -1   -1    0    0    0  501 -0.00000000000E+00  0.00000000000E+00  0.30625935127E+01  0.30625976598E+01  0.50400000000E-02 0.  1.
          1   -1    0    0  501    0  0.00000000000E+00 -0.00000000000E+00 -0.67760182930E+03  0.67760182932E+03  0.50400000000E-02 0. -1.
         23    2    1    2    0    0  0.71054273576E-14  0.17763568394E-14 -0.67453923579E+03  0.68066442698E+03  0.91109173728E+02 0.  0.
    9000005    2    3    3    0    0  0.38390773625E+02  0.12630661940E+02 -0.48180964730E+03  0.48374292130E+03  0.15273917473E+02 0.  0.
         22    1    3    3    0    0 -0.38390773625E+02 -0.12630661940E+02 -0.19272958849E+03  0.19692150568E+03  0.00000000000E+00 0.  1.
         22    1    4    4    0    0  0.31852108457E+02  0.16204066403E+02 -0.39347211361E+03  0.39509167641E+03  0.00000000000E+00 0.  1.
         22    1    4    4    0    0  0.65386651684E+01 -0.35734044622E+01 -0.88337533688E+02  0.88651244885E+02  0.00000000000E+00 0.  1.
<mgrwt>
<rscale>  0 0.91109174E+02</rscale>
<asrwt>0</asrwt>
<pdfrwt beam="2">  1        1 0.10424632E+00 0.91109174E+02</pdfrwt>
<pdfrwt beam="1">  1       -1 0.47116909E-03 0.91109174E+02</pdfrwt>
<totfact> 0.14245959E+05</totfact>
</mgrwt>
</event>
<event>
 7    1  0.3345055E-009  0.8627276E+02  0.7818608E-02  0.1312137E+00
         -1   -1    0    0    0  501 -0.00000000000E+00  0.00000000000E+00  0.22037191963E+02  0.22037192539E+02  0.50400000000E-02 0.  1.
          1   -1    0    0  501    0  0.00000000000E+00 -0.00000000000E+00 -0.84436675444E+02  0.84436675594E+02  0.50400000000E-02 0. -1.
         23    2    1    2    0    0  0.00000000000E+00 -0.17763568394E-14 -0.62399483481E+02  0.10647386813E+03  0.86272759643E+02 0.  0.
    9000005    2    3    3    0    0  0.25148626096E+02  0.12585300020E+02 -0.70997581727E+02  0.77066888272E+02  0.10382942055E+02 0.  0.
         22    1    3    3    0    0 -0.25148626096E+02 -0.12585300020E+02  0.85980982456E+01  0.29406979861E+02  0.00000000000E+00 0. -1.
         22    1    4    4    0    0  0.18655025391E+02  0.88424732460E+01 -0.62053936483E+02  0.65397938335E+02  0.00000000000E+00 0. -1.
         22    1    4    4    0    0  0.64936007053E+01  0.37428267735E+01 -0.89436452438E+01  0.11668949937E+02  0.00000000000E+00 0. -1.
<mgrwt>
<rscale>  0 0.86272760E+02</rscale>
<asrwt>0</asrwt>
<pdfrwt beam="2">  1        1 0.12990258E-01 0.86272760E+02</pdfrwt>
<pdfrwt beam="1">  1       -1 0.33903373E-02 0.86272760E+02</pdfrwt>
<totfact> 0.11815027E+05</totfact>
</mgrwt>
</event>
<event>
 7    1  0.3345055E-009  0.1226904E+03  0.7818608E-02  0.1238724E+00
          1   -1    0    0  501    0  0.00000000000E+00  0.00000000000E+00  0.53062384484E+02  0.53062384724E+02  0.50400000000E-02 0. -1.
         -1   -1    0    0    0  501 -0.00000000000E+00 -0.00000000000E+00 -0.70920974478E+02  0.70920974657E+02  0.50400000000E-02 0.  1.
         23    2    1    2    0    0  0.35527136788E-14  0.00000000000E+00 -0.17858589994E+02  0.12398335938E+03  0.12269044041E+03 0.  0.
    9000005    2    3    3    0    0  0.27041709725E+02 -0.48277312539E+02  0.17153658160E+02  0.58501984231E+02  0.81413266638E+01 0.  0.
         22    1    3    3    0    0 -0.27041709725E+02  0.48277312539E+02 -0.35012248153E+02  0.65481375150E+02  0.00000000000E+00 0.  1.
         22    1    4    4    0    0  0.26897370607E+02 -0.48071582373E+02  0.17734325417E+02  0.57869265378E+02  0.00000000000E+00 0. -1.
         22    1    4    4    0    0  0.14433911793E+00 -0.20573016624E+00 -0.58066725779E+00  0.63271885268E+00  0.00000000000E+00 0. -1.
<mgrwt>
<rscale>  0 0.12269044E+03</rscale>
<asrwt>0</asrwt>
<pdfrwt beam="1">  1        1 0.81634438E-02 0.12269044E+03</pdfrwt>
<pdfrwt beam="2">  1       -1 0.10910919E-01 0.12269044E+03</pdfrwt>
<totfact> 0.40480727E+04</totfact>
</mgrwt>
</event>
<event>
 7    1  0.3345055E-009  0.8961298E+02  0.7818608E-02  0.1303792E+00
          1   -1    0    0  501    0  0.00000000000E+00  0.00000000000E+00  0.18771859355E+03  0.18771859361E+03  0.50400000000E-02 0. -1.
         -1   -1    0    0    0  501 -0.00000000000E+00 -0.00000000000E+00 -0.10694846074E+02  0.10694847261E+02  0.50400000000E-02 0.  1.
         23    2    1    2    0    0 -0.71054273576E-14  0.00000000000E+00  0.17702374747E+03  0.19841344087E+03  0.89612980927E+02 0.  0.
    9000005    2    3    3    0    0 -0.40160697501E+02  0.17535452983E+02  0.80456637316E+02  0.92368259471E+02  0.11758024251E+02 0.  0.
         22    1    3    3    0    0  0.40160697501E+02 -0.17535452983E+02  0.96567110156E+02  0.10604518140E+03  0.00000000000E+00 0. -1.
         22    1    4    4    0    0 -0.39116424482E+02  0.15705379066E+02  0.70080748996E+02  0.81780590458E+02  0.00000000000E+00 0. -1.
         22    1    4    4    0    0 -0.10442730192E+01  0.18300739174E+01  0.10375888320E+02  0.10587669012E+02  0.00000000000E+00 0. -1.
<mgrwt>
<rscale>  0 0.89612981E+02</rscale>
<asrwt>0</asrwt>
<pdfrwt beam="1">  1        1 0.28879786E-01 0.89612981E+02</pdfrwt>
<pdfrwt beam="2">  1       -1 0.16453609E-02 0.89612981E+02</pdfrwt>
<totfact> 0.12251709E+05</totfact>
</mgrwt>
</event>
<event>
 7    1  0.3345055E-009  0.8397361E+02  0.7818608E-02  0.1318139E+00
          1   -1    0    0  501    0  0.00000000000E+00  0.00000000000E+00  0.13397604709E+03  0.13397604719E+03  0.50400000000E-02 0. -1.
         -1   -1    0    0    0  501 -0.00000000000E+00 -0.00000000000E+00 -0.13158259388E+02  0.13158260353E+02  0.50400000000E-02 0.  1.
         23    2    1    2    0    0  0.00000000000E+00 -0.17763568394E-14  0.12081778771E+03  0.14713430754E+03  0.83973606744E+02 0.  0.
    9000005    2    3    3    0    0  0.33775807077E+02  0.14758038057E+02  0.30092815482E+02  0.49207674719E+02  0.12538455909E+02 0.  0.
         22    1    3    3    0    0 -0.33775807077E+02 -0.14758038057E+02  0.90724972224E+02  0.97926632823E+02  0.00000000000E+00 0. -1.
         22    1    4    4    0    0  0.47213216477E+01  0.69788581726E+01  0.37412385261E+01  0.92191217154E+01  0.00000000000E+00 0.  1.
         22    1    4    4    0    0  0.29054485429E+02  0.77791798846E+01  0.26351576956E+02  0.39988553003E+02  0.00000000000E+00 0.  1.
<mgrwt>
<rscale>  0 0.83973607E+02</rscale>
<asrwt>0</asrwt>
<pdfrwt beam="1">  1        1 0.20611699E-01 0.83973607E+02</pdfrwt>
<pdfrwt beam="2">  1       -1 0.20243477E-02 0.83973607E+02</pdfrwt>
<totfact> 0.13707632E+05</totfact>
</mgrwt>
</event>
<event>
 7    1  0.3345055E-009  0.8915557E+02  0.7818608E-02  0.1304910E+00
         -1   -1    0    0    0  501 -0.00000000000E+00  0.00000000000E+00  0.29378780839E+03  0.29378780843E+03  0.50400000000E-02 0.  1.
          1   -1    0    0  501    0  0.00000000000E+00 -0.00000000000E+00 -0.67639928566E+01  0.67639947343E+01  0.50400000000E-02 0. -1.
         23    2    1    2    0    0  0.00000000000E+00  0.00000000000E+00  0.28702381553E+03  0.30055180316E+03  0.89155570234E+02 0.  0.
    9000005    2    3    3    0    0 -0.38324748976E+02 -0.19483544248E+01  0.21991453100E+03  0.22324566797E+03  0.19091494896E+01 0.  0.
         22    1    3    3    0    0  0.38324748976E+02  0.19483544248E+01  0.67109284527E+02  0.77306135195E+02  0.00000000000E+00 0. -1.
         22    1    4    4    0    0 -0.18563843470E+02 -0.11315798566E+01  0.11202142847E+03  0.11355482021E+03  0.00000000000E+00 0. -1.
         22    1    4    4    0    0 -0.19760905506E+02 -0.81677456826E+00  0.10789310253E+03  0.10969084775E+03  0.00000000000E+00 0. -1.
<mgrwt>
<rscale>  0 0.89155570E+02</rscale>
<asrwt>0</asrwt>
<pdfrwt beam="2">  1        1 0.10406142E-02 0.89155570E+02</pdfrwt>
<pdfrwt beam="1">  1       -1 0.45198136E-01 0.89155570E+02</pdfrwt>
<totfact> 0.64765824E+04</totfact>
</mgrwt>
</event>
<event>
 7    1  0.3345055E-009  0.8907731E+02  0.7818608E-02  0.1305102E+00
          1   -1    0    0  501    0  0.00000000000E+00  0.00000000000E+00  0.79831985205E+01  0.79832001114E+01  0.50400000000E-02 0. -1.
         -1   -1    0    0    0  501 -0.00000000000E+00 -0.00000000000E+00 -0.24848329858E+03  0.24848329863E+03  0.50400000000E-02 0.  1.
         23    2    1    2    0    0  0.00000000000E+00  0.35527136788E-14 -0.24050010006E+03  0.25646649874E+03  0.89077308269E+02 0.  0.
    9000005    2    3    3    0    0 -0.39325171652E+02  0.20467965396E+02 -0.11936264031E+03  0.12747157292E+03  0.60129251210E+01 0.  0.
         22    1    3    3    0    0  0.39325171652E+02 -0.20467965396E+02 -0.12113745975E+03  0.12899492582E+03  0.00000000000E+00 0.  1.
         22    1    4    4    0    0 -0.33996360856E+02  0.15732142167E+02 -0.10383665405E+03  0.11038706252E+03  0.00000000000E+00 0.  1.
         22    1    4    4    0    0 -0.53288107956E+01  0.47358232285E+01 -0.15525986258E+02  0.17084510395E+02  0.00000000000E+00 0.  1.
<mgrwt>
<rscale>  0 0.89077308E+02</rscale>
<asrwt>0</asrwt>
<pdfrwt beam="1">  1        1 0.12281847E-02 0.89077308E+02</pdfrwt>
<pdfrwt beam="2">  1       -1 0.38228194E-01 0.89077308E+02</pdfrwt>
<totfact> 0.68962694E+04</totfact>
</mgrwt>
</event>
<event>
 7    1  0.3345055E-009  0.9055252E+02  0.7818608E-02  0.1301519E+00
         -1   -1    0    0    0  501 -0.00000000000E+00  0.00000000000E+00  0.41399406402E+02  0.41399406709E+02  0.50400000000E-02 0.  1.
          1   -1    0    0  501    0  0.00000000000E+00 -0.00000000000E+00 -0.49516161614E+02  0.49516161870E+02  0.50400000000E-02 0. -1.
         23    2    1    2    0    0  0.00000000000E+00  0.00000000000E+00 -0.81167552117E+01  0.90915568579E+02  0.90552520091E+02 0.  0.
    9000005    2    3    3    0    0 -0.25285225900E+02  0.24194063442E+02  0.24237195013E+02  0.43255591137E+02  0.76752321043E+01 0.  0.
         22    1    3    3    0    0  0.25285225900E+02 -0.24194063442E+02 -0.32353950225E+02  0.47659977442E+02  0.00000000000E+00 0. -1.
         22    1    4    4    0    0 -0.48236060809E+01  0.90239863598E+01  0.86049066101E+01  0.13369514696E+02  0.00000000000E+00 0.  1.
         22    1    4    4    0    0 -0.20461619819E+02  0.15170077082E+02  0.15632288403E+02  0.29886076441E+02  0.00000000000E+00 0.  1.
<mgrwt>
<rscale>  0 0.90552520E+02</rscale>
<asrwt>0</asrwt>
<pdfrwt beam="2">  1        1 0.76178711E-02 0.90552520E+02</pdfrwt>
<pdfrwt beam="1">  1       -1 0.63691395E-02 0.90552520E+02</pdfrwt>
<totfact> 0.95441475E+04</totfact>
</mgrwt>
</event>
<event>
 7    1  0.3345055E-009  0.8927401E+02  0.7818608E-02  0.1304619E+00
          1   -1    0    0  501    0  0.00000000000E+00  0.00000000000E+00  0.54683749556E+02  0.54683749788E+02  0.50400000000E-02 0. -1.
         -1   -1    0    0    0  501 -0.00000000000E+00 -0.00000000000E+00 -0.36436094970E+02  0.36436095318E+02  0.50400000000E-02 0.  1.
         23    2    1    2    0    0  0.00000000000E+00  0.44408920985E-15  0.18247654586E+02  0.91119845107E+02  0.89274012313E+02 0.  0.
    9000005    2    3    3    0    0 -0.29931743389E+02  0.10359283570E+01  0.41793358675E+02  0.53022829595E+02  0.12951958118E+02 0.  0.
         22    1    3    3    0    0  0.29931743389E+02 -0.10359283570E+01 -0.23545704089E+02  0.38097015512E+02  0.00000000000E+00 0.  1.
         22    1    4    4    0    0 -0.16602616680E+02 -0.58104278162E+01  0.21019013398E+02  0.27408153463E+02  0.00000000000E+00 0. -1.
         22    1    4    4    0    0 -0.13329126709E+02  0.68463561732E+01  0.20774345277E+02  0.25614676132E+02  0.00000000000E+00 0. -1.
<mgrwt>
<rscale>  0 0.89274012E+02</rscale>
<asrwt>0</asrwt>
<pdfrwt beam="1">  1        1 0.84128845E-02 0.89274012E+02</pdfrwt>
<pdfrwt beam="2">  1       -1 0.56055531E-02 0.89274012E+02</pdfrwt>
<totfact> 0.10076559E+05</totfact>
</mgrwt>
</event>
<event>
 6    1  0.8789412E-009  0.8357689E+03  0.7818608E-02  0.9509639E-01
         -1   -1    0    0    0  501 -0.00000000000E+00  0.00000000000E+00  0.25370058312E+03  0.25370058317E+03  0.50400000000E-02 0.  1.
          1   -1    0    0  501    0  0.00000000000E+00 -0.00000000000E+00 -0.68832090835E+03  0.68832090837E+03  0.50400000000E-02 0. -1.
    9000005    2    1    2    0    0 -0.35912546517E+03  0.81982485398E+01  0.23145014662E+02  0.36013884235E+03  0.11224217220E+02 0.  0.
         22    1    1    2    0    0  0.35912546517E+03 -0.81982485398E+01 -0.45776533989E+03  0.58188264919E+03  0.00000000000E+00 0. -1.
         22    1    3    3    0    0 -0.25441595913E+03  0.97799545050E+00  0.14729732792E+02  0.25484387723E+03  0.00000000000E+00 0.  1.
         22    1    3    3    0    0 -0.10470950604E+03  0.72202530893E+01  0.84152818703E+01  0.10529496512E+03  0.00000000000E+00 0.  1.
<mgrwt>
<rscale>  0 0.83576891E+03</rscale>
<asrwt>0</asrwt>
<pdfrwt beam="2">  1        1 0.10589552E+00 0.83576891E+03</pdfrwt>
<pdfrwt beam="1">  1       -1 0.39030859E-01 0.83576891E+03</pdfrwt>
<totfact> 0.17970819E+02</totfact>
</mgrwt>
</event>
<event>
 7    1  0.3345055E-009  0.9037869E+02  0.7818608E-02  0.1301937E+00
          1   -1    0    0  501    0  0.00000000000E+00  0.00000000000E+00  0.18861971661E+03  0.18861971667E+03  0.50400000000E-02 0. -1.
         -1   -1    0    0    0  501 -0.00000000000E+00 -0.00000000000E+00 -0.10826423259E+02  0.10826424432E+02  0.50400000000E-02 0.  1.
         23    2    1    2    0    0  0.00000000000E+00  0.00000000000E+00  0.17779329335E+03  0.19944614111E+03  0.90378692415E+02 0.  0.
    9000005    2    3    3    0    0  0.11466415969E+02  0.43204102139E+02  0.96317657763E+02  0.10651416420E+03  0.83727440176E+01 0.  0.
         22    1    3    3    0    0 -0.11466415969E+02 -0.43204102139E+02  0.81475635585E+02  0.92931976901E+02  0.00000000000E+00 0. -1.
         22    1    4    4    0    0  0.63263620119E+01  0.36421604349E+02  0.78203858081E+02  0.86500864380E+02  0.00000000000E+00 0. -1.
         22    1    4    4    0    0  0.51400539576E+01  0.67824977902E+01  0.18113799682E+02  0.20013299825E+02  0.00000000000E+00 0. -1.
<mgrwt>
<rscale>  0 0.90378692E+02</rscale>
<asrwt>0</asrwt>
<pdfrwt beam="1">  1        1 0.29018417E-01 0.90378692E+02</pdfrwt>
<pdfrwt beam="2">  1       -1 0.16656037E-02 0.90378692E+02</pdfrwt>
<totfact> 0.11986623E+05</totfact>
</mgrwt>
</event>
<event>
 7    1  0.3345055E-009  0.9166113E+02  0.7818608E-02  0.1298878E+00
         -1   -1    0    0    0  501 -0.00000000000E+00  0.00000000000E+00  0.15092620800E+03  0.15092620809E+03  0.50400000000E-02 0.  1.
          1   -1    0    0  501    0  0.00000000000E+00 -0.00000000000E+00 -0.13917004501E+02  0.13917005413E+02  0.50400000000E-02 0. -1.
         23    2    1    2    0    0  0.00000000000E+00  0.00000000000E+00  0.13700920350E+03  0.16484321350E+03  0.91661132399E+02 0.  0.
    9000005    2    3    3    0    0 -0.29108899083E+02 -0.74113290945E+00  0.84050756162E+01  0.32983822507E+02  0.13015758420E+02 0.  0.
         22    1    3    3    0    0  0.29108899083E+02  0.74113290945E+00  0.12860412788E+03  0.13185939099E+03  0.00000000000E+00 0.  1.
         22    1    4    4    0    0 -0.30405549158E+02 -0.92041004666E-02  0.80484636939E+01  0.31452746655E+02  0.00000000000E+00 0. -1.
         22    1    4    4    0    0  0.12966500755E+01 -0.73192880898E+00  0.35661192233E+00  0.15310758514E+01  0.00000000000E+00 0. -1.
<mgrwt>
<rscale>  0 0.91661132E+02</rscale>
<asrwt>0</asrwt>
<pdfrwt beam="2">  1        1 0.21410777E-02 0.91661132E+02</pdfrwt>
<pdfrwt beam="1">  1       -1 0.23219417E-01 0.91661132E+02</pdfrwt>
<totfact> 0.73659574E+04</totfact>
</mgrwt>
</event>
<event>
 7    1  0.3345055E-009  0.1053006E+03  0.7818608E-02  0.1269529E+00
          1   -1    0    0  501    0  0.00000000000E+00  0.00000000000E+00  0.27227909042E+02  0.27227909509E+02  0.50400000000E-02 0. -1.
         -1   -1    0    0    0  501 -0.00000000000E+00 -0.00000000000E+00 -0.10180919531E+03  0.10180919544E+03  0.50400000000E-02 0.  1.
         23    2    1    2    0    0  0.00000000000E+00  0.00000000000E+00 -0.74581286271E+02  0.12903710495E+03  0.10530055171E+03 0.  0.
    9000005    2    3    3    0    0 -0.93469811696E+01 -0.46535589519E+02 -0.63067881577E+02  0.80195671343E+02  0.14172539175E+02 0.  0.
         22    1    3    3    0    0  0.93469811696E+01  0.46535589519E+02 -0.11513404694E+02  0.48841433604E+02  0.00000000000E+00 0. -1.
         22    1    4    4    0    0  0.13893833634E+01  0.34624757150E+00 -0.15862258110E+01  0.21369103478E+01  0.00000000000E+00 0. -1.
         22    1    4    4    0    0 -0.10736364533E+02 -0.46881837090E+02 -0.61481655766E+02  0.78058760995E+02  0.00000000000E+00 0. -1.
<mgrwt>
<rscale>  0 0.10530055E+03</rscale>
<asrwt>0</asrwt>
<pdfrwt beam="1">  1        1 0.41889092E-02 0.10530055E+03</pdfrwt>
<pdfrwt beam="2">  1       -1 0.15662953E-01 0.10530055E+03</pdfrwt>
<totfact> 0.55909566E+04</totfact>
</mgrwt>
</event>
<event>
 7    1  0.3345055E-009  0.9235472E+02  0.7818608E-02  0.1297248E+00
          1   -1    0    0  501    0  0.00000000000E+00  0.00000000000E+00  0.94844088967E+03  0.94844088968E+03  0.50400000000E-02 0. -1.
         -1   -1    0    0    0  501 -0.00000000000E+00 -0.00000000000E+00 -0.22482642390E+01  0.22482698881E+01  0.50400000000E-02 0.  1.
         23    2    1    2    0    0  0.00000000000E+00 -0.35527136788E-14  0.94619262543E+03  0.95068915957E+03  0.92354716754E+02 0.  0.
    9000005    2    3    3    0    0  0.16715403934E+02  0.21531027583E+02  0.85633217840E+03  0.85678553974E+03  0.58027115236E+01 0.  0.
         22    1    3    3    0    0 -0.16715403934E+02 -0.21531027583E+02  0.89860447028E+02  0.93903619832E+02  0.00000000000E+00 0.  1.
         22    1    4    4    0    0  0.66919058846E+01  0.85698197491E+01  0.25790877827E+03  0.25813787270E+03  0.00000000000E+00 0. -1.
         22    1    4    4    0    0  0.10023498050E+02  0.12961207834E+02  0.59842340013E+03  0.59864766703E+03  0.00000000000E+00 0. -1.
<mgrwt>
<rscale>  0 0.92354717E+02</rscale>
<asrwt>0</asrwt>
<pdfrwt beam="1">  1        1 0.14591386E+00 0.92354717E+02</pdfrwt>
<pdfrwt beam="2">  1       -1 0.34588754E-03 0.92354717E+02</pdfrwt>
<totfact> 0.13316362E+05</totfact>
</mgrwt>
</event>
<event>
 7    1  0.3345055E-009  0.9038132E+02  0.7818608E-02  0.1301931E+00
         -1   -1    0    0    0  501 -0.00000000000E+00  0.00000000000E+00  0.49733765477E+01  0.49733791015E+01  0.50400000000E-02 0.  1.
          1   -1    0    0  501    0  0.00000000000E+00 -0.00000000000E+00 -0.41062546782E+03  0.41062546785E+03  0.50400000000E-02 0. -1.
         23    2    1    2    0    0  0.00000000000E+00  0.35527136788E-14 -0.40565209127E+03  0.41559884695E+03  0.90381316845E+02 0.  0.
    9000005    2    3    3    0    0  0.12248680301E+02  0.23010796202E+02 -0.37137051578E+03  0.37253199974E+03  0.13583222195E+02 0.  0.
         22    1    3    3    0    0 -0.12248680301E+02 -0.23010796202E+02 -0.34281575491E+02  0.43066847216E+02  0.00000000000E+00 0.  1.
         22    1    4    4    0    0 -0.21941573314E+00  0.57933495563E+00 -0.87889324436E+02  0.87891507679E+02  0.00000000000E+00 0. -1.
         22    1    4    4    0    0  0.12468096034E+02  0.22431461246E+02 -0.28348119134E+03  0.28464049206E+03  0.00000000000E+00 0. -1.
<mgrwt>
<rscale>  0 0.90381317E+02</rscale>
<asrwt>0</asrwt>
<pdfrwt beam="2">  1        1 0.63173122E-01 0.90381317E+02</pdfrwt>
<pdfrwt beam="1">  1       -1 0.76513538E-03 0.90381317E+02</pdfrwt>
<totfact> 0.13865051E+05</totfact>
</mgrwt>
</event>
<event>
 7    1  0.3345055E-009  0.9077728E+02  0.7818608E-02  0.1300980E+00
          1   -1    0    0  501    0  0.00000000000E+00  0.00000000000E+00  0.55215570451E+01  0.55215593453E+01  0.50400000000E-02 0. -1.
         -1   -1    0    0    0  501 -0.00000000000E+00 -0.00000000000E+00 -0.37310637853E+03  0.37310637857E+03  0.50400000000E-02 0.  1.
         23    2    1    2    0    0  0.00000000000E+00  0.71054273576E-14 -0.36758482149E+03  0.37862793791E+03  0.90777278983E+02 0.  0.
    9000005    2    3    3    0    0  0.50864936516E+01  0.39856554142E+02 -0.27176703985E+03  0.27472671269E+03  0.17393642065E+01 0.  0.
         22    1    3    3    0    0 -0.50864936516E+01 -0.39856554142E+02 -0.95817781634E+02  0.10390122522E+03  0.00000000000E+00 0. -1.
         22    1    4    4    0    0  0.52207382804E+01  0.39280138762E+02 -0.26772298781E+03  0.27063958249E+03  0.00000000000E+00 0.  1.
         22    1    4    4    0    0 -0.13424462879E+00  0.57641538062E+00 -0.40440520457E+01  0.40871301986E+01  0.00000000000E+00 0.  1.
<mgrwt>
<rscale>  0 0.90777279E+02</rscale>
<asrwt>0</asrwt>
<pdfrwt beam="1">  1        1 0.84947079E-03 0.90777279E+02</pdfrwt>
<pdfrwt beam="2">  1       -1 0.57400962E-01 0.90777279E+02</pdfrwt>
<totfact> 0.55776483E+04</totfact>
</mgrwt>
</event>
<event>
 7    1  0.3345055E-009  0.9277865E+02  0.7818608E-02  0.1296259E+00
         -1   -1    0    0    0  501 -0.00000000000E+00  0.00000000000E+00  0.35419599364E+02  0.35419599723E+02  0.50400000000E-02 0.  1.
          1   -1    0    0  501    0  0.00000000000E+00 -0.00000000000E+00 -0.60756461577E+02  0.60756461786E+02  0.50400000000E-02 0. -1.
         23    2    1    2    0    0 -0.17763568394E-14  0.44408920985E-15 -0.25336862212E+02  0.96176061508E+02  0.92778651750E+02 0.  0.
    9000005    2    3    3    0    0  0.12255508559E+02 -0.20666032696E+01  0.31976332514E+02  0.37530766481E+02  0.15218549617E+02 0.  0.
         22    1    3    3    0    0 -0.12255508559E+02  0.20666032696E+01 -0.57313194727E+02  0.58645295028E+02  0.00000000000E+00 0. -1.
         22    1    4    4    0    0  0.10808276096E+02 -0.68504315179E-01  0.80482391776E+01  0.13475818300E+02  0.00000000000E+00 0.  1.
         22    1    4    4    0    0  0.14472324632E+01 -0.19980989544E+01  0.23928093337E+02  0.24054948180E+02  0.00000000000E+00 0.  1.
<mgrwt>
<rscale>  0 0.92778652E+02</rscale>
<asrwt>0</asrwt>
<pdfrwt beam="2">  1        1 0.93471480E-02 0.92778652E+02</pdfrwt>
<pdfrwt beam="1">  1       -1 0.54491692E-02 0.92778652E+02</pdfrwt>
<totfact> 0.91992991E+04</totfact>
</mgrwt>
</event>
<event>
 7    1  0.3345055E-009  0.9475776E+02  0.7818608E-02  0.1291723E+00
         -1   -1    0    0    0  501 -0.00000000000E+00  0.00000000000E+00  0.17317375815E+01  0.17317449157E+01  0.50400000000E-02 0.  1.
          1   -1    0    0  501    0  0.00000000000E+00 -0.00000000000E+00 -0.12962434290E+04  0.12962434290E+04  0.50400000000E-02 0. -1.
         23    2    1    2    0    0  0.17763568394E-14  0.00000000000E+00 -0.12945116914E+04  0.12979751739E+04  0.94757759090E+02 0.  0.
    9000005    2    3    3    0    0 -0.15202231349E+02  0.10934618908E+02 -0.12420815985E+04  0.12423012270E+04  0.13963073065E+02 0.  0.
         22    1    3    3    0    0  0.15202231349E+02 -0.10934618908E+02 -0.52430092879E+02  0.55673946941E+02  0.00000000000E+00 0.  1.
         22    1    4    4    0    0 -0.15536068721E+02  0.13586905614E+02 -0.10726744239E+04  0.10728729623E+04  0.00000000000E+00 0. -1.
         22    1    4    4    0    0  0.33383737250E+00 -0.26522867063E+01 -0.16940717462E+03  0.16942826471E+03  0.00000000000E+00 0. -1.
<mgrwt>
<rscale>  0 0.94757759E+02</rscale>
<asrwt>0</asrwt>
<pdfrwt beam="2">  1        1 0.19942129E+00 0.94757759E+02</pdfrwt>
<pdfrwt beam="1">  1       -1 0.26642277E-03 0.94757759E+02</pdfrwt>
<totfact> 0.11040836E+05</totfact>
</mgrwt>
</event>
<event>
 7    1  0.3345055E-009  0.9037729E+02  0.7818608E-02  0.1301941E+00
          1   -1    0    0  501    0  0.00000000000E+00  0.00000000000E+00  0.13272023430E+02  0.13272024387E+02  0.50400000000E-02 0. -1.
         -1   -1    0    0    0  501 -0.00000000000E+00 -0.00000000000E+00 -0.15385850070E+03  0.15385850079E+03  0.50400000000E-02 0.  1.
         23    2    1    2    0    0  0.00000000000E+00 -0.35527136788E-14 -0.14058647727E+03  0.16713052517E+03  0.90377291684E+02 0.  0.
    9000005    2    3    3    0    0  0.39541471367E+02  0.18729085295E+02 -0.55741094550E+02  0.71668252188E+02  0.10722040672E+02 0.  0.
         22    1    3    3    0    0 -0.39541471367E+02 -0.18729085295E+02 -0.84845382723E+02  0.95462272984E+02  0.00000000000E+00 0.  1.
         22    1    4    4    0    0  0.35549566300E+02  0.13570473647E+02 -0.50871516748E+02  0.63528266428E+02  0.00000000000E+00 0. -1.
         22    1    4    4    0    0  0.39919050664E+01  0.51586116479E+01 -0.48695778021E+01  0.81399857595E+01  0.00000000000E+00 0. -1.
<mgrwt>
<rscale>  0 0.90377292E+02</rscale>
<asrwt>0</asrwt>
<pdfrwt beam="1">  1        1 0.20418500E-02 0.90377292E+02</pdfrwt>
<pdfrwt beam="2">  1       -1 0.23670537E-01 0.90377292E+02</pdfrwt>
<totfact> 0.76059794E+04</totfact>
</mgrwt>
</event>
<event>
 7    1  0.3345055E-009  0.9173015E+02  0.7818608E-02  0.1298715E+00
          1   -1    0    0  501    0  0.00000000000E+00  0.00000000000E+00  0.30693910552E+02  0.30693910966E+02  0.50400000000E-02 0. -1.
         -1   -1    0    0    0  501 -0.00000000000E+00 -0.00000000000E+00 -0.68534925208E+02  0.68534925393E+02  0.50400000000E-02 0.  1.
         23    2    1    2    0    0  0.00000000000E+00  0.00000000000E+00 -0.37841014656E+02  0.99228836359E+02  0.91730145400E+02 0.  0.
    9000005    2    3    3    0    0  0.36553262353E+02 -0.21913501531E+02 -0.20669206526E+01  0.43585972129E+02  0.88950698404E+01 0.  0.
         22    1    3    3    0    0 -0.36553262353E+02  0.21913501531E+02 -0.35774094003E+02  0.55642864230E+02  0.00000000000E+00 0.  1.
         22    1    4    4    0    0  0.10491062923E+02 -0.98179465603E+01  0.22089445633E+01  0.14537328228E+02  0.00000000000E+00 0. -1.
         22    1    4    4    0    0  0.26062199429E+02 -0.12095554971E+02 -0.42758652160E+01  0.29048643901E+02  0.00000000000E+00 0. -1.
<mgrwt>
<rscale>  0 0.91730145E+02</rscale>
<asrwt>0</asrwt>
<pdfrwt beam="1">  1        1 0.47221401E-02 0.91730145E+02</pdfrwt>
<pdfrwt beam="2">  1       -1 0.10543835E-01 0.91730145E+02</pdfrwt>
<totfact> 0.85505392E+04</totfact>
</mgrwt>
</event>
<event>
 7    1  0.3345055E-009  0.1102902E+03  0.7818608E-02  0.1260033E+00
          1   -1    0    0  501    0  0.00000000000E+00  0.00000000000E+00  0.12049194988E+03  0.12049194998E+03  0.50400000000E-02 0. -1.
         -1   -1    0    0    0  501 -0.00000000000E+00 -0.00000000000E+00 -0.25238069949E+02  0.25238070452E+02  0.50400000000E-02 0.  1.
         23    2    1    2    0    0  0.00000000000E+00  0.00000000000E+00  0.95253879931E+02  0.14573002044E+03  0.11029024079E+03 0.  0.
    9000005    2    3    3    0    0 -0.34976958798E+02  0.42215034462E+02  0.40229817429E+02  0.68056703038E+02  0.27892358639E+01 0.  0.
         22    1    3    3    0    0  0.34976958798E+02 -0.42215034462E+02  0.55024062502E+02  0.77673317398E+02  0.00000000000E+00 0. -1.
         22    1    4    4    0    0 -0.17450625048E+02  0.20105621719E+02  0.17978525971E+02  0.32124565917E+02  0.00000000000E+00 0. -1.
         22    1    4    4    0    0 -0.17526333750E+02  0.22109412743E+02  0.22251291458E+02  0.35932137122E+02  0.00000000000E+00 0. -1.
<mgrwt>
<rscale>  0 0.11029024E+03</rscale>
<asrwt>0</asrwt>
<pdfrwt beam="1">  1        1 0.18537223E-01 0.11029024E+03</pdfrwt>
<pdfrwt beam="2">  1       -1 0.38827801E-02 0.11029024E+03</pdfrwt>
<totfact> 0.63932585E+04</totfact>
</mgrwt>
</event>
<event>
 7    1  0.3345055E-009  0.9083974E+02  0.7818608E-02  0.1300831E+00
          1   -1    0    0  501    0  0.00000000000E+00  0.00000000000E+00  0.37523992034E+02  0.37523992373E+02  0.50400000000E-02 0. -1.
         -1   -1    0    0    0  501 -0.00000000000E+00 -0.00000000000E+00 -0.54977219572E+02  0.54977219803E+02  0.50400000000E-02 0.  1.
         23    2    1    2    0    0 -0.71054273576E-14  0.00000000000E+00 -0.17453227538E+02  0.92501212176E+02  0.90839744069E+02 0.  0.
    9000005    2    3    3    0    0  0.35821250042E+02  0.20644792973E+02  0.94234077208E+01  0.43188709154E+02  0.81911265306E+01 0.  0.
         22    1    3    3    0    0 -0.35821250042E+02 -0.20644792973E+02 -0.26876635259E+02  0.49312503022E+02  0.00000000000E+00 0.  1.
         22    1    4    4    0    0  0.32326875155E+02  0.15349026259E+02  0.84484152434E+01  0.36769487140E+02  0.00000000000E+00 0. -1.
         22    1    4    4    0    0  0.34943748869E+01  0.52957667136E+01  0.97499247744E+00  0.64192220141E+01  0.00000000000E+00 0. -1.
<mgrwt>
<rscale>  0 0.90839744E+02</rscale>
<asrwt>0</asrwt>
<pdfrwt beam="1">  1        1 0.57729218E-02 0.90839744E+02</pdfrwt>
<pdfrwt beam="2">  1       -1 0.84580339E-02 0.90839744E+02</pdfrwt>
<totfact> 0.90730679E+04</totfact>
</mgrwt>
</event>
<event>
 7    1  0.3345055E-009  0.9065754E+02  0.7818608E-02  0.1301267E+00
         -1   -1    0    0    0  501 -0.00000000000E+00  0.00000000000E+00  0.58903305802E+02  0.58903306018E+02  0.50400000000E-02 0.  1.
          1   -1    0    0  501    0  0.00000000000E+00 -0.00000000000E+00 -0.34882546221E+02  0.34882546585E+02  0.50400000000E-02 0. -1.
         23    2    1    2    0    0  0.00000000000E+00  0.17763568394E-14  0.24020759581E+02  0.93785852603E+02  0.90657538339E+02 0.  0.
    9000005    2    3    3    0    0  0.19811815244E+02  0.15302111566E+02  0.49903013929E+02  0.57778162706E+02  0.14877588675E+02 0.  0.
         22    1    3    3    0    0 -0.19811815244E+02 -0.15302111566E+02 -0.25882254348E+02  0.36007689898E+02  0.00000000000E+00 0. -1.
         22    1    4    4    0    0  0.65412906647E+01 -0.75816815549E+00  0.49695518427E+01  0.82498332122E+01  0.00000000000E+00 0. -1.
         22    1    4    4    0    0  0.13270524579E+02  0.16060279721E+02  0.44933462087E+02  0.49528329494E+02  0.00000000000E+00 0. -1.
<mgrwt>
<rscale>  0 0.90657538E+02</rscale>
<asrwt>0</asrwt>
<pdfrwt beam="2">  1        1 0.53665456E-02 0.90657538E+02</pdfrwt>
<pdfrwt beam="1">  1       -1 0.90620470E-02 0.90657538E+02</pdfrwt>
<totfact> 0.90230944E+04</totfact>
</mgrwt>
</event>
<event>
 7    1  0.3345055E-009  0.9176840E+02  0.7818608E-02  0.1298625E+00
          1   -1    0    0  501    0  0.00000000000E+00  0.00000000000E+00  0.15899653792E+03  0.15899653800E+03  0.50400000000E-02 0. -1.
         -1   -1    0    0    0  501 -0.00000000000E+00 -0.00000000000E+00 -0.13241543424E+02  0.13241544383E+02  0.50400000000E-02 0.  1.
         23    2    1    2    0    0  0.00000000000E+00  0.00000000000E+00  0.14575499449E+03  0.17223808238E+03  0.91768396533E+02 0.  0.
    9000005    2    3    3    0    0  0.40122118932E+02 -0.14151490568E+02  0.10118081609E+03  0.11061903911E+03  0.13746459791E+02 0.  0.
         22    1    3    3    0    0 -0.40122118932E+02  0.14151490568E+02  0.44574178407E+02  0.61619043270E+02  0.00000000000E+00 0.  1.
         22    1    4    4    0    0  0.40025546704E+02 -0.14253576767E+02  0.90924001386E+02  0.10036126179E+03  0.00000000000E+00 0. -1.
         22    1    4    4    0    0  0.96572227905E-01  0.10208619885E+00  0.10256814701E+02  0.10257777322E+02  0.00000000000E+00 0. -1.
<mgrwt>
<rscale>  0 0.91768397E+02</rscale>
<asrwt>0</asrwt>
<pdfrwt beam="1">  1        1 0.24461005E-01 0.91768397E+02</pdfrwt>
<pdfrwt beam="2">  1       -1 0.20371607E-02 0.91768397E+02</pdfrwt>
<totfact> 0.11138708E+05</totfact>
</mgrwt>
</event>
<event>
 7    1  0.3345055E-009  0.9181774E+02  0.7818608E-02  0.1298509E+00
          1   -1    0    0  501    0  0.00000000000E+00  0.00000000000E+00  0.45533040068E+03  0.45533040071E+03  0.50400000000E-02 0. -1.
         -1   -1    0    0    0  501 -0.00000000000E+00 -0.00000000000E+00 -0.46287787556E+01  0.46287814995E+01  0.50400000000E-02 0.  1.
         23    2    1    2    0    0  0.35527136788E-14  0.00000000000E+00  0.45070162193E+03  0.45995918221E+03  0.91817739525E+02 0.  0.
    9000005    2    3    3    0    0 -0.20853649173E+02  0.15500500435E+02  0.41464464321E+03  0.41551544348E+03  0.69111095581E+01 0.  0.
         22    1    3    3    0    0  0.20853649173E+02 -0.15500500435E+02  0.36056978718E+02  0.44443738725E+02  0.00000000000E+00 0.  1.
         22    1    4    4    0    0 -0.47147707045E+01  0.75328148338E+01  0.13925627818E+03  0.13953954054E+03  0.00000000000E+00 0.  1.
         22    1    4    4    0    0 -0.16138878468E+02  0.79676856011E+01  0.27538836503E+03  0.27597590295E+03  0.00000000000E+00 0.  1.
<mgrwt>
<rscale>  0 0.91817740E+02</rscale>
<asrwt>0</asrwt>
<pdfrwt beam="1">  1        1 0.70050817E-01 0.91817740E+02</pdfrwt>
<pdfrwt beam="2">  1       -1 0.71212017E-03 0.91817740E+02</pdfrwt>
<totfact> 0.13505226E+05</totfact>
</mgrwt>
</event>
<event>
 7    1  0.3345055E-009  0.9201024E+02  0.7818608E-02  0.1298055E+00
         -1   -1    0    0    0  501 -0.00000000000E+00  0.00000000000E+00  0.75397826703E+02  0.75397826871E+02  0.50400000000E-02 0.  1.
          1   -1    0    0  501    0  0.00000000000E+00 -0.00000000000E+00 -0.28070718971E+02  0.28070719423E+02  0.50400000000E-02 0. -1.
         23    2    1    2    0    0  0.00000000000E+00 -0.71054273576E-14  0.47327107732E+02  0.10346854629E+03  0.92010243701E+02 0.  0.
    9000005    2    3    3    0    0 -0.31701698310E+02 -0.32164847039E+02  0.18821799595E+02  0.50063231457E+02  0.10606221907E+02 0.  0.
         22    1    3    3    0    0  0.31701698310E+02  0.32164847039E+02  0.28505308138E+02  0.53405314837E+02  0.00000000000E+00 0.  1.
         22    1    4    4    0    0 -0.30182070085E+02 -0.32446515006E+02  0.19450433775E+02  0.48394762782E+02  0.00000000000E+00 0.  1.
         22    1    4    4    0    0 -0.15196282255E+01  0.28166796705E+00 -0.62863418079E+00  0.16684686754E+01  0.00000000000E+00 0.  1.
<mgrwt>
<rscale>  0 0.92010244E+02</rscale>
<asrwt>0</asrwt>
<pdfrwt beam="2">  1        1 0.43185723E-02 0.92010244E+02</pdfrwt>
<pdfrwt beam="1">  1       -1 0.11599666E-01 0.92010244E+02</pdfrwt>
<totfact> 0.83526814E+04</totfact>
</mgrwt>
</event>
<event>
 7    1  0.3345055E-009  0.9146204E+02  0.7818608E-02  0.1299349E+00
          1   -1    0    0  501    0  0.00000000000E+00  0.00000000000E+00  0.10067048616E+02  0.10067049878E+02  0.50400000000E-02 0. -1.
         -1   -1    0    0    0  501 -0.00000000000E+00 -0.00000000000E+00 -0.20773974667E+03  0.20773974673E+03  0.50400000000E-02 0.  1.
         23    2    1    2    0    0  0.35527136788E-14  0.00000000000E+00 -0.19767269806E+03  0.21780679661E+03  0.91462041818E+02 0.  0.
    9000005    2    3    3    0    0  0.25773058858E+02  0.30667100419E+02 -0.48944302255E+02  0.63778041736E+02  0.82080614917E+01 0.  0.
         22    1    3    3    0    0 -0.25773058858E+02 -0.30667100419E+02 -0.14872839580E+03  0.15402875488E+03  0.00000000000E+00 0.  1.
         22    1    4    4    0    0  0.50063514150E+01  0.28534405227E+01 -0.41130789348E+01  0.70797666368E+01  0.00000000000E+00 0.  1.
         22    1    4    4    0    0  0.20766707443E+02  0.27813659896E+02 -0.44831223321E+02  0.56698275099E+02  0.00000000000E+00 0.  1.
<mgrwt>
<rscale>  0 0.91462042E+02</rscale>
<asrwt>0</asrwt>
<pdfrwt beam="1">  1        1 0.15487770E-02 0.91462042E+02</pdfrwt>
<pdfrwt beam="2">  1       -1 0.31959958E-01 0.91462042E+02</pdfrwt>
<totfact> 0.68106938E+04</totfact>
</mgrwt>
</event>
<event>
 7    1  0.3345055E-009  0.9901756E+02  0.7818608E-02  0.1282376E+00
         -1   -1    0    0    0  501 -0.00000000000E+00  0.00000000000E+00  0.62829293604E+03  0.62829293606E+03  0.50400000000E-02 0.  1.
          1   -1    0    0  501    0  0.00000000000E+00 -0.00000000000E+00 -0.39012348375E+01  0.39012380931E+01  0.50400000000E-02 0. -1.
         23    2    1    2    0    0  0.00000000000E+00  0.00000000000E+00  0.62439170120E+03  0.63219417415E+03  0.99017560578E+02 0.  0.
    9000005    2    3    3    0    0  0.28285374186E+02 -0.21538677729E+02  0.53114354725E+03  0.53239840648E+03  0.84034754178E+01 0.  0.
         22    1    3    3    0    0 -0.28285374186E+02  0.21538677729E+02  0.93248153948E+02  0.99795767675E+02  0.00000000000E+00 0. -1.
         22    1    4    4    0    0  0.25131899954E+02 -0.19273261923E+02  0.50188949328E+03  0.50288779513E+03  0.00000000000E+00 0. -1.
         22    1    4    4    0    0  0.31534742320E+01 -0.22654158066E+01  0.29254053971E+02  0.29510611350E+02  0.00000000000E+00 0. -1.
<mgrwt>
<rscale>  0 0.99017561E+02</rscale>
<asrwt>0</asrwt>
<pdfrwt beam="2">  1        1 0.60019050E-03 0.99017561E+02</pdfrwt>
<pdfrwt beam="1">  1       -1 0.96660409E-01 0.99017561E+02</pdfrwt>
<totfact> 0.32352129E+04</totfact>
</mgrwt>
</event>
<event>
 7    1  0.3482441E-009  0.9023661E+02  0.7818608E-02  0.1302280E+00
         -1   -1    0    0    0  501 -0.00000000000E+00  0.00000000000E+00  0.13225692704E+02  0.13225693665E+02  0.50400000000E-02 0.  1.
          1   -1    0    0  501    0  0.00000000000E+00 -0.00000000000E+00 -0.15391719047E+03  0.15391719055E+03  0.50400000000E-02 0. -1.
         23    2    1    2    0    0  0.00000000000E+00  0.00000000000E+00 -0.14069149776E+03  0.16714288421E+03  0.90236612307E+02 0.  0.
    9000005    2    3    3    0    0  0.37682867552E+02 -0.39838181940E+00 -0.31440708096E+02  0.51575188651E+02  0.15853225028E+02 0.  0.
         22    1    3    3    0    0 -0.37682867552E+02  0.39838181940E+00 -0.10925078967E+03  0.11556769556E+03  0.00000000000E+00 0. -1.
         22    1    4    4    0    0  0.26483690583E+00  0.20975441633E+01 -0.57277219415E+01  0.61054589298E+01  0.00000000000E+00 0. -1.
         22    1    4    4    0    0  0.37418030646E+02 -0.24959259827E+01 -0.25712986154E+02  0.45469729721E+02  0.00000000000E+00 0. -1.
<mgrwt>
<rscale>  0 0.90236612E+02</rscale>
<asrwt>0</asrwt>
<pdfrwt beam="2">  1        1 0.23679567E-01 0.90236612E+02</pdfrwt>
<pdfrwt beam="1">  1       -1 0.20347221E-02 0.90236612E+02</pdfrwt>
<totfact> 0.11585625E+05</totfact>
</mgrwt>
</event>
<event>
 7    1  0.3345055E-009  0.9304303E+02  0.7818608E-02  0.1295645E+00
          1   -1    0    0  501    0  0.00000000000E+00  0.00000000000E+00  0.60925664825E+02  0.60925665034E+02  0.50400000000E-02 0. -1.
         -1   -1    0    0    0  501 -0.00000000000E+00 -0.00000000000E+00 -0.35522817475E+02  0.35522817833E+02  0.50400000000E-02 0.  1.
         23    2    1    2    0    0  0.00000000000E+00  0.00000000000E+00  0.25402847350E+02  0.96448482867E+02  0.93043028722E+02 0.  0.
    9000005    2    3    3    0    0 -0.19914417674E+02  0.37877688441E+02 -0.32870888608E+01  0.44927460432E+02  0.13280377808E+02 0.  0.
         22    1    3    3    0    0  0.19914417674E+02 -0.37877688441E+02  0.28689936211E+02  0.51521022435E+02  0.00000000000E+00 0. -1.
         22    1    4    4    0    0 -0.55547174377E+01  0.24127825274E+02 -0.37475676457E+01  0.25040988429E+02  0.00000000000E+00 0.  1.
         22    1    4    4    0    0 -0.14359700236E+02  0.13749863167E+02  0.46047878488E+00  0.19886472002E+02  0.00000000000E+00 0.  1.
<mgrwt>
<rscale>  0 0.93043029E+02</rscale>
<asrwt>0</asrwt>
<pdfrwt beam="1">  1        1 0.93731791E-02 0.93043029E+02</pdfrwt>
<pdfrwt beam="2">  1       -1 0.54650489E-02 0.93043029E+02</pdfrwt>
<totfact> 0.91306482E+04</totfact>
</mgrwt>
</event>
<event>
 7    1  0.3345055E-009  0.9160623E+02  0.7818608E-02  0.1299008E+00
         -1   -1    0    0    0  501 -0.00000000000E+00  0.00000000000E+00  0.25285222028E+03  0.25285222033E+03  0.50400000000E-02 0.  1.
          1   -1    0    0  501    0  0.00000000000E+00 -0.00000000000E+00 -0.82970412367E+01  0.82970427674E+01  0.50400000000E-02 0. -1.
         23    2    1    2    0    0 -0.44408920985E-15  0.00000000000E+00  0.24455517905E+03  0.26114926310E+03  0.91606233519E+02 0.  0.
    9000005    2    3    3    0    0 -0.35442984674E+01  0.41983057998E+02  0.16610493928E+03  0.17210107766E+03  0.15899398380E+02 0.  0.
         22    1    3    3    0    0  0.35442984674E+01 -0.41983057998E+02  0.78450239770E+02  0.89048185442E+02  0.00000000000E+00 0. -1.
         22    1    4    4    0    0  0.83052652560E+00 -0.12387469835E+01  0.37840175892E+01  0.40673157627E+01  0.00000000000E+00 0.  1.
         22    1    4    4    0    0 -0.43748249930E+01  0.43221804982E+02  0.16232092169E+03  0.16803376190E+03  0.00000000000E+00 0.  1.
<mgrwt>
<rscale>  0 0.91606234E+02</rscale>
<asrwt>0</asrwt>
<pdfrwt beam="2">  1        1 0.12764680E-02 0.91606234E+02</pdfrwt>
<pdfrwt beam="1">  1       -1 0.38900343E-01 0.91606234E+02</pdfrwt>
<totfact> 0.63727935E+04</totfact>
</mgrwt>
</event>
<event>
 7    1  0.3345055E-009  0.9117175E+02  0.7818608E-02  0.1300039E+00
         -1   -1    0    0    0  501 -0.00000000000E+00  0.00000000000E+00  0.12973288279E+02  0.12973289258E+02  0.50400000000E-02 0.  1.
          1   -1    0    0  501    0  0.00000000000E+00 -0.00000000000E+00 -0.16018081456E+03  0.16018081464E+03  0.50400000000E-02 0. -1.
         23    2    1    2    0    0 -0.35527136788E-14  0.00000000000E+00 -0.14720752629E+03  0.17315410390E+03  0.91171749477E+02 0.  0.
    9000005    2    3    3    0    0  0.22240746268E+02  0.11310524399E+02 -0.14516195744E+03  0.14811886656E+03  0.15640523863E+02 0.  0.
         22    1    3    3    0    0 -0.22240746268E+02 -0.11310524399E+02 -0.20455688442E+01  0.25035237339E+02  0.00000000000E+00 0.  1.
         22    1    4    4    0    0  0.13745912501E+02  0.12963185633E+02 -0.12072895232E+03  0.12219850335E+03  0.00000000000E+00 0.  1.
         22    1    4    4    0    0  0.84948337669E+01 -0.16526612338E+01 -0.24433005120E+02  0.25920363213E+02  0.00000000000E+00 0.  1.
<mgrwt>
<rscale>  0 0.91171749E+02</rscale>
<asrwt>0</asrwt>
<pdfrwt beam="2">  1        1 0.24643201E-01 0.91171749E+02</pdfrwt>
<pdfrwt beam="1">  1       -1 0.19958907E-02 0.91171749E+02</pdfrwt>
<totfact> 0.11352107E+05</totfact>
</mgrwt>
</event>
<event>
 7    1  0.3345055E-009  0.9163319E+02  0.7818608E-02  0.1298944E+00
          1   -1    0    0  501    0  0.00000000000E+00  0.00000000000E+00  0.53070769140E+02  0.53070769379E+02  0.50400000000E-02 0. -1.
         -1   -1    0    0    0  501 -0.00000000000E+00 -0.00000000000E+00 -0.39553983575E+02  0.39553983896E+02  0.50400000000E-02 0.  1.
         23    2    1    2    0    0  0.00000000000E+00  0.00000000000E+00  0.13516785565E+02  0.92624753275E+02  0.91633189551E+02 0.  0.
    9000005    2    3    3    0    0 -0.16272328788E+02  0.41816129358E+02  0.35598239043E+00  0.45863828360E+02  0.94861303837E+01 0.  0.
         22    1    3    3    0    0  0.16272328788E+02 -0.41816129358E+02  0.13160803175E+02  0.46760924915E+02  0.00000000000E+00 0.  1.
         22    1    4    4    0    0 -0.10066814840E+02  0.19489612496E+02 -0.39653662842E+01  0.22291475636E+02  0.00000000000E+00 0.  1.
         22    1    4    4    0    0 -0.62055139485E+01  0.22326516863E+02  0.43213486746E+01  0.23572352724E+02  0.00000000000E+00 0.  1.
<mgrwt>
<rscale>  0 0.91633190E+02</rscale>
<asrwt>0</asrwt>
<pdfrwt beam="1">  1        1 0.81647338E-02 0.91633190E+02</pdfrwt>
<pdfrwt beam="2">  1       -1 0.60852283E-02 0.91633190E+02</pdfrwt>
<totfact> 0.93297076E+04</totfact>
</mgrwt>
</event>
<event>
 7    1  0.3345055E-009  0.9243759E+02  0.7818608E-02  0.1297054E+00
         -1   -1    0    0    0  501 -0.00000000000E+00  0.00000000000E+00  0.75381733826E+02  0.75381733995E+02  0.50400000000E-02 0.  1.
          1   -1    0    0  501    0  0.00000000000E+00 -0.00000000000E+00 -0.28338124265E+02  0.28338124713E+02  0.50400000000E-02 0. -1.
         23    2    1    2    0    0  0.00000000000E+00  0.00000000000E+00  0.47043609561E+02  0.10371985871E+03  0.92437589160E+02 0.  0.
    9000005    2    3    3    0    0  0.20014086099E+02  0.45673503902E+01  0.69522466748E+02  0.73277727501E+02  0.10715765629E+02 0.  0.
         22    1    3    3    0    0 -0.20014086099E+02 -0.45673503902E+01 -0.22478857187E+02  0.30442131206E+02  0.00000000000E+00 0. -1.
         22    1    4    4    0    0  0.11994724560E+02  0.25341352204E+01  0.56756405089E+02  0.58065349195E+02  0.00000000000E+00 0. -1.
         22    1    4    4    0    0  0.80193615395E+01  0.20332151698E+01  0.12766061659E+02  0.15212378306E+02  0.00000000000E+00 0. -1.
<mgrwt>
<rscale>  0 0.92437589E+02</rscale>
<asrwt>0</asrwt>
<pdfrwt beam="2">  1        1 0.43597116E-02 0.92437589E+02</pdfrwt>
<pdfrwt beam="1">  1       -1 0.11597190E-01 0.92437589E+02</pdfrwt>
<totfact> 0.82545335E+04</totfact>
</mgrwt>
</event>
<event>
 7    1  0.3345055E-009  0.9226855E+02  0.7818608E-02  0.1297449E+00
          1   -1    0    0  501    0  0.00000000000E+00  0.00000000000E+00  0.46864999126E+02  0.46864999397E+02  0.50400000000E-02 0. -1.
         -1   -1    0    0    0  501 -0.00000000000E+00 -0.00000000000E+00 -0.45414943216E+02  0.45414943495E+02  0.50400000000E-02 0.  1.
         23    2    1    2    0    0  0.35527136788E-14  0.22204460493E-15  0.14500559098E+01  0.92279942892E+02  0.92268549344E+02 0.  0.
    9000005    2    3    3    0    0  0.29483501539E+02  0.13430454380E+01 -0.34070148579E+02  0.46098068082E+02  0.96527831534E+01 0.  0.
         22    1    3    3    0    0 -0.29483501539E+02 -0.13430454380E+01  0.35520204489E+02  0.46181874810E+02  0.00000000000E+00 0. -1.
         22    1    4    4    0    0  0.94836692856E+01  0.39314565903E+01 -0.16054439405E+02  0.19056268225E+02  0.00000000000E+00 0. -1.
         22    1    4    4    0    0  0.19999832253E+02 -0.25884111523E+01 -0.18015709174E+02  0.27041799857E+02  0.00000000000E+00 0. -1.
<mgrwt>
<rscale>  0 0.92268549E+02</rscale>
<asrwt>0</asrwt>
<pdfrwt beam="1">  1        1 0.72099999E-02 0.92268549E+02</pdfrwt>
<pdfrwt beam="2">  1       -1 0.69869144E-02 0.92268549E+02</pdfrwt>
<totfact> 0.89803828E+04</totfact>
</mgrwt>
</event>
<event>
 7    1  0.3345055E-009  0.8881419E+02  0.7818608E-02  0.1305749E+00
          1   -1    0    0  501    0  0.00000000000E+00  0.00000000000E+00  0.16916639712E+02  0.16916640463E+02  0.50400000000E-02 0. -1.
         -1   -1    0    0    0  501 -0.00000000000E+00 -0.00000000000E+00 -0.11657102360E+03  0.11657102371E+03  0.50400000000E-02 0.  1.
         23    2    1    2    0    0  0.35527136788E-14  0.88817841970E-15 -0.99654383888E+02  0.13348766417E+03  0.88814189509E+02 0.  0.
    9000005    2    3    3    0    0  0.23533633184E+02  0.41320850414E+01 -0.10520199738E+03  0.10895845642E+03  0.15283290074E+02 0.  0.
         22    1    3    3    0    0 -0.23533633184E+02 -0.41320850414E+01  0.55476134884E+01  0.24529207754E+02  0.00000000000E+00 0. -1.
         22    1    4    4    0    0  0.23088418382E+02 -0.63161593912E+00 -0.93621799774E+02  0.96428809984E+02  0.00000000000E+00 0.  1.
         22    1    4    4    0    0  0.44521480178E+00  0.47637009805E+01 -0.11580197603E+02  0.12529646435E+02  0.00000000000E+00 0.  1.
<mgrwt>
<rscale>  0 0.88814190E+02</rscale>
<asrwt>0</asrwt>
<pdfrwt beam="1">  1        1 0.26025601E-02 0.88814190E+02</pdfrwt>
<pdfrwt beam="2">  1       -1 0.17934003E-01 0.88814190E+02</pdfrwt>
<totfact> 0.84530308E+04</totfact>
</mgrwt>
</event>
<event>
 7    1  0.3345055E-009  0.8857580E+02  0.7818608E-02  0.1306338E+00
         -1   -1    0    0    0  501 -0.00000000000E+00  0.00000000000E+00  0.41079023776E+01  0.41079054694E+01  0.50400000000E-02 0.  1.
          1   -1    0    0  501    0  0.00000000000E+00 -0.00000000000E+00 -0.47747413713E+03  0.47747413716E+03  0.50400000000E-02 0. -1.
         23    2    1    2    0    0  0.88817841970E-15  0.71054273576E-14 -0.47336623475E+03  0.48158204263E+03  0.88575795657E+02 0.  0.
    9000005    2    3    3    0    0  0.11417730604E+01  0.42954739650E+02 -0.23068750721E+03  0.23512844029E+03  0.14907855148E+02 0.  0.
         22    1    3    3    0    0 -0.11417730604E+01 -0.42954739650E+02 -0.24267872754E+03  0.24645360234E+03  0.00000000000E+00 0. -1.
         22    1    4    4    0    0 -0.44038559434E+01  0.37212519842E+02 -0.18697876779E+03  0.19069668373E+03  0.00000000000E+00 0.  1.
         22    1    4    4    0    0  0.55456290038E+01  0.57422198079E+01 -0.43708739424E+02  0.44431756564E+02  0.00000000000E+00 0.  1.
<mgrwt>
<rscale>  0 0.88575796E+02</rscale>
<asrwt>0</asrwt>
<pdfrwt beam="2">  1        1 0.73457516E-01 0.88575796E+02</pdfrwt>
<pdfrwt beam="1">  1       -1 0.63198560E-03 0.88575796E+02</pdfrwt>
<totfact> 0.14949379E+05</totfact>
</mgrwt>
</event>
<event>
 7    1  0.3345055E-009  0.9153967E+02  0.7818608E-02  0.1299165E+00
         -1   -1    0    0    0  501 -0.00000000000E+00  0.00000000000E+00  0.33174064124E+01  0.33174102409E+01  0.50400000000E-02 0.  1.
          1   -1    0    0  501    0  0.00000000000E+00 -0.00000000000E+00 -0.63148018014E+03  0.63148018016E+03  0.50400000000E-02 0. -1.
         23    2    1    2    0    0  0.00000000000E+00  0.88817841970E-15 -0.62816277373E+03  0.63479759040E+03  0.91539666166E+02 0.  0.
    9000005    2    3    3    0    0 -0.25257199863E+02  0.42290710187E+01 -0.57642617210E+03  0.57706989225E+03  0.93122212722E+01 0.  0.
         22    1    3    3    0    0  0.25257199863E+02 -0.42290710187E+01 -0.51736601624E+02  0.57727698155E+02  0.00000000000E+00 0.  1.
         22    1    4    4    0    0 -0.53155439060E+01 -0.28492807939E+01 -0.11291951910E+03  0.11308046340E+03  0.00000000000E+00 0.  1.
         22    1    4    4    0    0 -0.19941655957E+02  0.70783518127E+01 -0.46350665300E+03  0.46398942885E+03  0.00000000000E+00 0.  1.
<mgrwt>
<rscale>  0 0.91539666E+02</rscale>
<asrwt>0</asrwt>
<pdfrwt beam="2">  1        1 0.97150701E-01 0.91539666E+02</pdfrwt>
<pdfrwt beam="1">  1       -1 0.51037102E-03 0.91539666E+02</pdfrwt>
<totfact> 0.14046253E+05</totfact>
</mgrwt>
</event>
<event>
 7    1  0.3345055E-009  0.8948484E+02  0.7818608E-02  0.1304104E+00
         -1   -1    0    0    0  501 -0.00000000000E+00  0.00000000000E+00  0.15598015798E+03  0.15598015806E+03  0.50400000000E-02 0.  1.
          1   -1    0    0  501    0  0.00000000000E+00 -0.00000000000E+00 -0.12834222928E+02  0.12834223917E+02  0.50400000000E-02 0. -1.
         23    2    1    2    0    0  0.00000000000E+00  0.00000000000E+00  0.14314593505E+03  0.16881438198E+03  0.89484841401E+02 0.  0.
    9000005    2    3    3    0    0 -0.14860037787E+02 -0.22915209738E+02  0.13761465551E+03  0.14094822663E+03  0.13515976412E+02 0.  0.
         22    1    3    3    0    0  0.14860037787E+02  0.22915209738E+02  0.55312795377E+01  0.27866155345E+02  0.00000000000E+00 0. -1.
         22    1    4    4    0    0 -0.15680846209E+01 -0.10797377117E+02  0.31898304923E+02  0.33712669709E+02  0.00000000000E+00 0.  1.
         22    1    4    4    0    0 -0.13291953166E+02 -0.12117832621E+02  0.10571635059E+03  0.10723555692E+03  0.00000000000E+00 0.  1.
<mgrwt>
<rscale>  0 0.89484841E+02</rscale>
<asrwt>0</asrwt>
<pdfrwt beam="2">  1        1 0.19744960E-02 0.89484841E+02</pdfrwt>
<pdfrwt beam="1">  1       -1 0.23996946E-01 0.89484841E+02</pdfrwt>
<totfact> 0.77787404E+04</totfact>
</mgrwt>
</event>
<event>
 6    1  0.3345055E-009  0.3697112E+03  0.7818608E-02  0.1054803E+00
          1   -1    0    0  501    0  0.00000000000E+00  0.00000000000E+00  0.22037352419E+03  0.22037352424E+03  0.50400000000E-02 0. -1.
         -1   -1    0    0    0  501 -0.00000000000E+00 -0.00000000000E+00 -0.15506214653E+03  0.15506214661E+03  0.50400000000E-02 0.  1.
    9000005    2    1    2    0    0  0.18465104784E+03 -0.62087978324E+01  0.38322888678E+02  0.18871947666E+03  0.34407026390E+01 0.  0.
         22    1    1    2    0    0 -0.18465104784E+03  0.62087978324E+01  0.26988488976E+02  0.18671619420E+03  0.00000000000E+00 0.  1.
         22    1    3    3    0    0  0.13535903095E+03 -0.31988924508E+01  0.28795849739E+02  0.13842507409E+03  0.00000000000E+00 0. -1.
         22    1    3    3    0    0  0.49292016886E+02 -0.30099053816E+01  0.95270389389E+01  0.50294402572E+02  0.00000000000E+00 0. -1.
<mgrwt>
<rscale>  0 0.36971119E+03</rscale>
<asrwt>0</asrwt>
<pdfrwt beam="1">  1        1 0.33903619E-01 0.36971119E+03</pdfrwt>
<pdfrwt beam="2">  1       -1 0.23855715E-01 0.36971119E+03</pdfrwt>
<totfact> 0.19606051E+03</totfact>
</mgrwt>
</event>
<event>
 7    1  0.3345055E-009  0.8724741E+02  0.7818608E-02  0.1309658E+00
         -1   -1    0    0    0  501 -0.00000000000E+00  0.00000000000E+00  0.18066926411E+03  0.18066926418E+03  0.50400000000E-02 0.  1.
          1   -1    0    0  501    0  0.00000000000E+00 -0.00000000000E+00 -0.10533211535E+02  0.10533212741E+02  0.50400000000E-02 0. -1.
         23    2    1    2    0    0  0.00000000000E+00  0.00000000000E+00  0.17013605258E+03  0.19120247693E+03  0.87247411396E+02 0.  0.
    9000005    2    3    3    0    0 -0.33847328526E+02  0.74563654077E+01  0.14213732041E+03  0.14664725236E+03  0.10057819662E+02 0.  0.
         22    1    3    3    0    0  0.33847328526E+02 -0.74563654077E+01  0.27998732165E+02  0.44555224568E+02  0.00000000000E+00 0. -1.
         22    1    4    4    0    0 -0.26978068869E+02  0.57412140728E+01  0.93049705107E+02  0.97051663352E+02  0.00000000000E+00 0.  1.
         22    1    4    4    0    0 -0.68692596563E+01  0.17151513348E+01  0.49087615306E+02  0.49595589005E+02  0.00000000000E+00 0.  1.
<mgrwt>
<rscale>  0 0.87247411E+02</rscale>
<asrwt>0</asrwt>
<pdfrwt beam="2">  1        1 0.16204943E-02 0.87247411E+02</pdfrwt>
<pdfrwt beam="1">  1       -1 0.27795270E-01 0.87247411E+02</pdfrwt>
<totfact> 0.80053142E+04</totfact>
</mgrwt>
</event>
<event>
 7    1  0.3345055E-009  0.9671498E+02  0.7818608E-02  0.1287360E+00
         -1   -1    0    0    0  501 -0.00000000000E+00  0.00000000000E+00  0.13173673900E+02  0.13173674864E+02  0.50400000000E-02 0.  1.
          1   -1    0    0  501    0  0.00000000000E+00 -0.00000000000E+00 -0.17750907531E+03  0.17750907538E+03  0.50400000000E-02 0. -1.
         23    2    1    2    0    0 -0.17763568394E-14  0.00000000000E+00 -0.16433540140E+03  0.19068275024E+03  0.96714978595E+02 0.  0.
    9000005    2    3    3    0    0  0.10582152680E+02 -0.34825328407E+02 -0.21125091974E+02  0.42919499799E+02  0.84278406552E+01 0.  0.
         22    1    3    3    0    0 -0.10582152680E+02  0.34825328407E+02 -0.14321030943E+03  0.14776325044E+03  0.00000000000E+00 0. -1.
         22    1    4    4    0    0  0.29825968281E+01 -0.10583547943E+02 -0.11052362009E+02  0.15590448258E+02  0.00000000000E+00 0.  1.
         22    1    4    4    0    0  0.75995558515E+01 -0.24241780463E+02 -0.10072729965E+02  0.27329051541E+02  0.00000000000E+00 0.  1.
<mgrwt>
<rscale>  0 0.96714979E+02</rscale>
<asrwt>0</asrwt>
<pdfrwt beam="2">  1        1 0.27309087E-01 0.96714979E+02</pdfrwt>
<pdfrwt beam="1">  1       -1 0.20267193E-02 0.96714979E+02</pdfrwt>
<totfact> 0.98693276E+04</totfact>
</mgrwt>
</event>
<event>
 7    1  0.3345055E-009  0.9024099E+02  0.7818608E-02  0.1302269E+00
         -1   -1    0    0    0  501 -0.00000000000E+00  0.00000000000E+00  0.65116656795E+03  0.65116656797E+03  0.50400000000E-02 0.  1.
          1   -1    0    0  501    0  0.00000000000E+00 -0.00000000000E+00 -0.31264778539E+01  0.31264819162E+01  0.50400000000E-02 0. -1.
         23    2    1    2    0    0  0.00000000000E+00  0.00000000000E+00  0.64804009010E+03  0.65429304989E+03  0.90240992664E+02 0.  0.
    9000005    2    3    3    0    0  0.30312016133E+02 -0.29050953678E+02  0.43800133705E+03  0.44009908636E+03  0.89027142825E+01 0.  0.
         22    1    3    3    0    0 -0.30312016133E+02  0.29050953678E+02  0.21003875304E+03  0.21419396353E+03  0.00000000000E+00 0. -1.
         22    1    4    4    0    0  0.21434775422E+02 -0.18683265691E+02  0.25241205984E+03  0.25400858641E+03  0.00000000000E+00 0. -1.
         22    1    4    4    0    0  0.88772407110E+01 -0.10367687987E+02  0.18558927721E+03  0.18609049995E+03  0.00000000000E+00 0. -1.
<mgrwt>
<rscale>  0 0.90240993E+02</rscale>
<asrwt>0</asrwt>
<pdfrwt beam="2">  1        1 0.48099651E-03 0.90240993E+02</pdfrwt>
<pdfrwt beam="1">  1       -1 0.10017955E+00 0.90240993E+02</pdfrwt>
<totfact> 0.40177459E+04</totfact>
</mgrwt>
</event>
<event>
 7    1  0.3345055E-009  0.8939421E+02  0.7818608E-02  0.1304325E+00
         -1   -1    0    0    0  501 -0.00000000000E+00  0.00000000000E+00  0.12567711499E+02  0.12567712509E+02  0.50400000000E-02 0.  1.
          1   -1    0    0  501    0  0.00000000000E+00 -0.00000000000E+00 -0.15896540061E+03  0.15896540069E+03  0.50400000000E-02 0. -1.
         23    2    1    2    0    0  0.00000000000E+00  0.00000000000E+00 -0.14639768911E+03  0.17153311320E+03  0.89394214279E+02 0.  0.
    9000005    2    3    3    0    0  0.86671701001E+01 -0.22539397657E+02 -0.53606182665E+01  0.28443631975E+02  0.14041356326E+02 0.  0.
         22    1    3    3    0    0 -0.86671701001E+01  0.22539397657E+02 -0.14103707085E+03  0.14308948122E+03  0.00000000000E+00 0. -1.
         22    1    4    4    0    0  0.17090913642E+01 -0.66830902490E+01  0.47656279437E+01  0.83842649209E+01  0.00000000000E+00 0.  1.
         22    1    4    4    0    0  0.69580787360E+01 -0.15856307408E+02 -0.10126246210E+02  0.20059367055E+02  0.00000000000E+00 0.  1.
<mgrwt>
<rscale>  0 0.89394214E+02</rscale>
<asrwt>0</asrwt>
<pdfrwt beam="2">  1        1 0.24456214E-01 0.89394214E+02</pdfrwt>
<pdfrwt beam="1">  1       -1 0.19334943E-02 0.89394214E+02</pdfrwt>
<totfact> 0.11952386E+05</totfact>
</mgrwt>
</event>
<event>
 7    1  0.3345055E-009  0.8572717E+02  0.7818608E-02  0.1313542E+00
         -1   -1    0    0    0  501 -0.00000000000E+00  0.00000000000E+00  0.19787398714E+03  0.19787398721E+03  0.50400000000E-02 0.  1.
          1   -1    0    0  501    0  0.00000000000E+00 -0.00000000000E+00 -0.92851354451E+01  0.92851368130E+01  0.50400000000E-02 0. -1.
         23    2    1    2    0    0  0.00000000000E+00  0.00000000000E+00  0.18858885170E+03  0.20715912402E+03  0.85727170023E+02 0.  0.
    9000005    2    3    3    0    0 -0.47874517070E+01  0.34131440792E+02  0.15341264785E+03  0.15791239558E+03  0.14594835219E+02 0.  0.
         22    1    3    3    0    0  0.47874517070E+01 -0.34131440792E+02  0.35176203852E+02  0.49246728438E+02  0.00000000000E+00 0. -1.
         22    1    4    4    0    0 -0.76355333159E+01  0.80799960976E+01  0.51269106397E+02  0.52460546858E+02  0.00000000000E+00 0. -1.
         22    1    4    4    0    0  0.28480816089E+01  0.26051444695E+02  0.10214354145E+03  0.10545184872E+03  0.00000000000E+00 0. -1.
<mgrwt>
<rscale>  0 0.85727170E+02</rscale>
<asrwt>0</asrwt>
<pdfrwt beam="2">  1        1 0.14284825E-02 0.85727170E+02</pdfrwt>
<pdfrwt beam="1">  1       -1 0.30442152E-01 0.85727170E+02</pdfrwt>
<totfact> 0.81731850E+04</totfact>
</mgrwt>
</event>
<event>
 7    1  0.3345055E-009  0.9105448E+02  0.7818608E-02  0.1300318E+00
         -1   -1    0    0    0  501 -0.00000000000E+00  0.00000000000E+00  0.43410715992E+01  0.43410745249E+01  0.50400000000E-02 0.  1.
          1   -1    0    0  501    0  0.00000000000E+00 -0.00000000000E+00 -0.47746935982E+03  0.47746935985E+03  0.50400000000E-02 0. -1.
         23    2    1    2    0    0  0.00000000000E+00  0.00000000000E+00 -0.47312828823E+03  0.48181043438E+03  0.91054475752E+02 0.  0.
    9000005    2    3    3    0    0  0.15914085390E+02 -0.41993573848E+02 -0.20635662731E+03  0.21128532015E+03  0.64583681171E+01 0.  0.
         22    1    3    3    0    0 -0.15914085390E+02  0.41993573848E+02 -0.26677166091E+03  0.27052511422E+03  0.00000000000E+00 0. -1.
         22    1    4    4    0    0  0.14642202835E+01 -0.84292175445E+01 -0.49000510604E+02  0.49741790166E+02  0.00000000000E+00 0.  1.
         22    1    4    4    0    0  0.14449865106E+02 -0.33564356303E+02 -0.15735611671E+03  0.16154352999E+03  0.00000000000E+00 0.  1.
<mgrwt>
<rscale>  0 0.91054476E+02</rscale>
<asrwt>0</asrwt>
<pdfrwt beam="2">  1        1 0.73456783E-01 0.91054476E+02</pdfrwt>
<pdfrwt beam="1">  1       -1 0.66785777E-03 0.91054476E+02</pdfrwt>
<totfact> 0.13896571E+05</totfact>
</mgrwt>
</event>
<event>
 7    1  0.3345055E-009  0.9390443E+02  0.7818608E-02  0.1293663E+00
          1   -1    0    0  501    0  0.00000000000E+00  0.00000000000E+00  0.10327599366E+02  0.10327600595E+02  0.50400000000E-02 0. -1.
         -1   -1    0    0    0  501 -0.00000000000E+00 -0.00000000000E+00 -0.21345818079E+03  0.21345818085E+03  0.50400000000E-02 0.  1.
         23    2    1    2    0    0  0.00000000000E+00  0.00000000000E+00 -0.20313058143E+03  0.22378578145E+03  0.93904434758E+02 0.  0.
    9000005    2    3    3    0    0 -0.27628306997E+02 -0.35791116340E+02 -0.78986031697E+02  0.91663880977E+02  0.10915425600E+02 0.  0.
         22    1    3    3    0    0  0.27628306997E+02  0.35791116340E+02 -0.12414454973E+03  0.13212190047E+03  0.00000000000E+00 0.  1.
         22    1    4    4    0    0 -0.65604570124E+01 -0.23514707187E+01 -0.10880177131E+02  0.12920807450E+02  0.00000000000E+00 0. -1.
         22    1    4    4    0    0 -0.21067849985E+02 -0.33439645621E+02 -0.68105854566E+02  0.78743073527E+02  0.00000000000E+00 0. -1.
<mgrwt>
<rscale>  0 0.93904435E+02</rscale>
<asrwt>0</asrwt>
<pdfrwt beam="1">  1        1 0.15888617E-02 0.93904435E+02</pdfrwt>
<pdfrwt beam="2">  1       -1 0.32839717E-01 0.93904435E+02</pdfrwt>
<totfact> 0.63065751E+04</totfact>
</mgrwt>
</event>
<event>
 7    1  0.3345055E-009  0.9193179E+02  0.7818608E-02  0.1298240E+00
         -1   -1    0    0    0  501 -0.00000000000E+00  0.00000000000E+00  0.52453417472E+01  0.52453441686E+01  0.50400000000E-02 0.  1.
          1   -1    0    0  501    0  0.00000000000E+00 -0.00000000000E+00 -0.40280753523E+03  0.40280753526E+03  0.50400000000E-02 0. -1.
         23    2    1    2    0    0  0.00000000000E+00  0.00000000000E+00 -0.39756219349E+03  0.40805287943E+03  0.91931793871E+02 0.  0.
    9000005    2    3    3    0    0  0.34619224324E+02  0.15860420189E+02 -0.31112548420E+03  0.31359998994E+03  0.97899514893E+01 0.  0.
         22    1    3    3    0    0 -0.34619224324E+02 -0.15860420189E+02 -0.86436709281E+02  0.94452889488E+02  0.00000000000E+00 0. -1.
         22    1    4    4    0    0  0.21619997619E+02  0.12609224884E+02 -0.23221696042E+03  0.23356184097E+03  0.00000000000E+00 0.  1.
         22    1    4    4    0    0  0.12999226705E+02  0.32511953053E+01 -0.78908523783E+02  0.80038148976E+02  0.00000000000E+00 0.  1.
<mgrwt>
<rscale>  0 0.91931794E+02</rscale>
<asrwt>0</asrwt>
<pdfrwt beam="2">  1        1 0.61970366E-01 0.91931794E+02</pdfrwt>
<pdfrwt beam="1">  1       -1 0.80697616E-03 0.91931794E+02</pdfrwt>
<totfact> 0.13211839E+05</totfact>
</mgrwt>
</event>
<event>
 7    1  0.3345055E-009  0.9072423E+02  0.7818608E-02  0.1301107E+00
          1   -1    0    0  501    0  0.00000000000E+00  0.00000000000E+00  0.12684591039E+03  0.12684591049E+03  0.50400000000E-02 0. -1.
         -1   -1    0    0    0  501 -0.00000000000E+00 -0.00000000000E+00 -0.16222211840E+02  0.16222212623E+02  0.50400000000E-02 0.  1.
         23    2    1    2    0    0  0.00000000000E+00  0.00000000000E+00  0.11062369855E+03  0.14306812311E+03  0.90724225930E+02 0.  0.
    9000005    2    3    3    0    0  0.27289133738E+02  0.21599266224E+02  0.10094913362E+02  0.36685503420E+02  0.57178460837E+01 0.  0.
         22    1    3    3    0    0 -0.27289133738E+02 -0.21599266224E+02  0.10052878519E+03  0.10638261969E+03  0.00000000000E+00 0. -1.
         22    1    4    4    0    0  0.14324741637E+02  0.98434312959E+01  0.23180855593E+01  0.17534676596E+02  0.00000000000E+00 0.  1.
         22    1    4    4    0    0  0.12964392100E+02  0.11755834928E+02  0.77768278030E+01  0.19150826825E+02  0.00000000000E+00 0.  1.
<mgrwt>
<rscale>  0 0.90724226E+02</rscale>
<asrwt>0</asrwt>
<pdfrwt beam="1">  1        1 0.19514755E-01 0.90724226E+02</pdfrwt>
<pdfrwt beam="2">  1       -1 0.24957250E-02 0.90724226E+02</pdfrwt>
<totfact> 0.11026759E+05</totfact>
</mgrwt>
</event>
<event>
 7    1  0.3345055E-009  0.9433952E+02  0.7818608E-02  0.1292671E+00
          1   -1    0    0  501    0  0.00000000000E+00  0.00000000000E+00  0.62753698617E+02  0.62753698820E+02  0.50400000000E-02 0. -1.
         -1   -1    0    0    0  501 -0.00000000000E+00 -0.00000000000E+00 -0.35455857332E+02  0.35455857690E+02  0.50400000000E-02 0.  1.
         23    2    1    2    0    0 -0.35527136788E-14  0.00000000000E+00  0.27297841285E+02  0.98209556510E+02  0.94339519031E+02 0.  0.
    9000005    2    3    3    0    0  0.30017477163E+02  0.18500135416E+02  0.46072806070E+02  0.58262050350E+02  0.53347076902E+01 0.  0.
         22    1    3    3    0    0 -0.30017477163E+02 -0.18500135416E+02 -0.18774964785E+02  0.39947506159E+02  0.00000000000E+00 0.  1.
         22    1    4    4    0    0  0.11074271125E+02  0.39475367146E+01  0.16056162699E+02  0.19900323808E+02  0.00000000000E+00 0. -1.
         22    1    4    4    0    0  0.18943206038E+02  0.14552598702E+02  0.30016643372E+02  0.38361726542E+02  0.00000000000E+00 0. -1.
<mgrwt>
<rscale>  0 0.94339519E+02</rscale>
<asrwt>0</asrwt>
<pdfrwt beam="1">  1        1 0.96544150E-02 0.94339519E+02</pdfrwt>
<pdfrwt beam="2">  1       -1 0.54547474E-02 0.94339519E+02</pdfrwt>
<totfact> 0.88258507E+04</totfact>
</mgrwt>
</event>
<event>
 7    1  0.3345055E-009  0.8963115E+02  0.7818608E-02  0.1303747E+00
          1   -1    0    0  501    0  0.00000000000E+00  0.00000000000E+00  0.42605018105E+03  0.42605018108E+03  0.50400000000E-02 0. -1.
         -1   -1    0    0    0  501 -0.00000000000E+00 -0.00000000000E+00 -0.47140813756E+01  0.47140840698E+01  0.50400000000E-02 0.  1.
         23    2    1    2    0    0  0.00000000000E+00  0.00000000000E+00  0.42133609968E+03  0.43076426515E+03  0.89631151064E+02 0.  0.
    9000005    2    3    3    0    0 -0.92466412385E+01 -0.39808892965E+02  0.29791466930E+03  0.30075235105E+03  0.53458528128E+01 0.  0.
         22    1    3    3    0    0  0.92466412385E+01  0.39808892965E+02  0.12342143038E+03  0.13001191411E+03  0.00000000000E+00 0. -1.
         22    1    4    4    0    0 -0.30185471844E+00 -0.10971035063E+00  0.67486303944E+01  0.67562685584E+01  0.00000000000E+00 0. -1.
         22    1    4    4    0    0 -0.89447865201E+01 -0.39699182614E+02  0.29116603891E+03  0.29399608249E+03  0.00000000000E+00 0. -1.
<mgrwt>
<rscale>  0 0.89631151E+02</rscale>
<asrwt>0</asrwt>
<pdfrwt beam="1">  1        1 0.65546210E-01 0.89631151E+02</pdfrwt>
<pdfrwt beam="2">  1       -1 0.72524318E-03 0.89631151E+02</pdfrwt>
<totfact> 0.14256529E+05</totfact>
</mgrwt>
</event>
<event>
 7    1  0.3345055E-009  0.9253235E+02  0.7818608E-02  0.1296833E+00
          1   -1    0    0  501    0  0.00000000000E+00  0.00000000000E+00  0.26821184032E+03  0.26821184036E+03  0.50400000000E-02 0. -1.
         -1   -1    0    0    0  501 -0.00000000000E+00 -0.00000000000E+00 -0.79808514733E+01  0.79808530647E+01  0.50400000000E-02 0.  1.
         23    2    1    2    0    0  0.00000000000E+00  0.00000000000E+00  0.26023098884E+03  0.27619269343E+03  0.92532352985E+02 0.  0.
    9000005    2    3    3    0    0  0.29227985726E+02  0.31131111042E+02  0.17909285783E+03  0.18450399440E+03  0.12002124874E+02 0.  0.
         22    1    3    3    0    0 -0.29227985726E+02 -0.31131111042E+02  0.81138131015E+02  0.91688699025E+02  0.00000000000E+00 0.  1.
         22    1    4    4    0    0  0.15697960057E+02  0.99651100969E+01  0.61097804814E+02  0.63864474649E+02  0.00000000000E+00 0.  1.
         22    1    4    4    0    0  0.13530025669E+02  0.21166000945E+02  0.11799505301E+03  0.12063951975E+03  0.00000000000E+00 0.  1.
<mgrwt>
<rscale>  0 0.92532353E+02</rscale>
<asrwt>0</asrwt>
<pdfrwt beam="1">  1        1 0.41263364E-01 0.92532353E+02</pdfrwt>
<pdfrwt beam="2">  1       -1 0.12278233E-02 0.92532353E+02</pdfrwt>
<totfact> 0.12053104E+05</totfact>
</mgrwt>
</event>
<event>
 6    1  0.3345055E-009  0.1467239E+03  0.7818608E-02  0.1204557E+00
         -1   -1    0    0    0  501 -0.00000000000E+00  0.00000000000E+00  0.51755450743E+02  0.51755450989E+02  0.50400000000E-02 0.  1.
          1   -1    0    0  501    0  0.00000000000E+00 -0.00000000000E+00 -0.10398863769E+03  0.10398863781E+03  0.50400000000E-02 0. -1.
    9000005    2    1    2    0    0  0.48945294073E+01  0.65012655681E+02 -0.60190369132E+02  0.90063661233E+02  0.15426623791E+02 0.  0.
         22    1    1    2    0    0 -0.48945294073E+01 -0.65012655681E+02  0.79571821875E+01  0.65680427566E+02  0.00000000000E+00 0.  1.
         22    1    3    3    0    0 -0.14449162412E+01  0.47597465303E+02 -0.49416291540E+02  0.68626353216E+02  0.00000000000E+00 0. -1.
         22    1    3    3    0    0  0.63394456485E+01  0.17415190378E+02 -0.10774077593E+02  0.21437308017E+02  0.00000000000E+00 0. -1.
<mgrwt>
<rscale>  0 0.14672394E+03</rscale>
<asrwt>0</asrwt>
<pdfrwt beam="2">  1        1 0.15998252E-01 0.14672394E+03</pdfrwt>
<pdfrwt beam="1">  1       -1 0.79623771E-02 0.14672394E+03</pdfrwt>
<totfact> 0.27535217E+04</totfact>
</mgrwt>
</event>
<event>
 7    1  0.3345055E-009  0.8810752E+02  0.7818608E-02  0.1307500E+00
         -1   -1    0    0    0  501 -0.00000000000E+00  0.00000000000E+00  0.35792267333E+01  0.35792302818E+01  0.50400000000E-02 0.  1.
          1   -1    0    0  501    0  0.00000000000E+00 -0.00000000000E+00 -0.54222119717E+03  0.54222119719E+03  0.50400000000E-02 0. -1.
         23    2    1    2    0    0 -0.44408920985E-15  0.00000000000E+00 -0.53864197043E+03  0.54580042747E+03  0.88107515662E+02 0.  0.
    9000005    2    3    3    0    0 -0.30549864812E+01  0.34167082821E+02 -0.43654043035E+03  0.43809041411E+03  0.13376887326E+02 0.  0.
         22    1    3    3    0    0  0.30549864812E+01 -0.34167082821E+02 -0.10210154009E+03  0.10771001336E+03  0.00000000000E+00 0.  1.
         22    1    4    4    0    0 -0.46443148016E+01  0.34793870566E+02 -0.41816167666E+03  0.41963242357E+03  0.00000000000E+00 0.  1.
         22    1    4    4    0    0  0.15893283205E+01 -0.62678774495E+00 -0.18378753690E+02  0.18457990535E+02  0.00000000000E+00 0.  1.
<mgrwt>
<rscale>  0 0.88107516E+02</rscale>
<asrwt>0</asrwt>
<pdfrwt beam="2">  1        1 0.83418581E-01 0.88107516E+02</pdfrwt>
<pdfrwt beam="1">  1       -1 0.55065097E-03 0.88107516E+02</pdfrwt>
<totfact> 0.15378286E+05</totfact>
</mgrwt>
</event>
<event>
 7    1  0.3345055E-009  0.9067926E+02  0.7818608E-02  0.1301215E+00
         -1   -1    0    0    0  501 -0.00000000000E+00  0.00000000000E+00  0.23083468165E+02  0.23083468715E+02  0.50400000000E-02 0.  1.
          1   -1    0    0  501    0  0.00000000000E+00 -0.00000000000E+00 -0.89054297046E+02  0.89054297189E+02  0.50400000000E-02 0. -1.
         23    2    1    2    0    0  0.00000000000E+00  0.00000000000E+00 -0.65970828881E+02  0.11213776590E+03  0.90679260466E+02 0.  0.
    9000005    2    3    3    0    0  0.33648285984E+02 -0.28496865607E+02 -0.23744635581E+02  0.51085903527E+02  0.10083814813E+02 0.  0.
         22    1    3    3    0    0 -0.33648285984E+02  0.28496865607E+02 -0.42226193300E+02  0.61051862377E+02  0.00000000000E+00 0.  1.
         22    1    4    4    0    0  0.90187893483E+01 -0.13911215653E+02 -0.95949052365E+01  0.19155226147E+02  0.00000000000E+00 0. -1.
         22    1    4    4    0    0  0.24629496636E+02 -0.14585649955E+02 -0.14149730345E+02  0.31930677380E+02  0.00000000000E+00 0. -1.
<mgrwt>
<rscale>  0 0.90679260E+02</rscale>
<asrwt>0</asrwt>
<pdfrwt beam="2">  1        1 0.13700661E-01 0.90679260E+02</pdfrwt>
<pdfrwt beam="1">  1       -1 0.35513029E-02 0.90679260E+02</pdfrwt>
<totfact> 0.10402931E+05</totfact>
</mgrwt>
</event>
<event>
 7    1  0.3345055E-009  0.9425825E+02  0.7818608E-02  0.1292855E+00
          1   -1    0    0  501    0  0.00000000000E+00  0.00000000000E+00  0.44053847951E+03  0.44053847954E+03  0.50400000000E-02 0. -1.
         -1   -1    0    0    0  501 -0.00000000000E+00 -0.00000000000E+00 -0.50419065035E+01  0.50419090226E+01  0.50400000000E-02 0.  1.
         23    2    1    2    0    0  0.00000000000E+00  0.00000000000E+00  0.43549657301E+03  0.44558038857E+03  0.94258249348E+02 0.  0.
    9000005    2    3    3    0    0  0.34148094603E+02 -0.62964775871E+00  0.37112070631E+03  0.37270555728E+03  0.35163837936E+01 0.  0.
         22    1    3    3    0    0 -0.34148094603E+02  0.62964775871E+00  0.64375866704E+02  0.72874831288E+02  0.00000000000E+00 0.  1.
         22    1    4    4    0    0  0.26167056393E+02 -0.75879276593E+00  0.29930462080E+03  0.30044724435E+03  0.00000000000E+00 0. -1.
         22    1    4    4    0    0  0.79810382096E+01  0.12914500722E+00  0.71816085509E+02  0.72258312928E+02  0.00000000000E+00 0. -1.
<mgrwt>
<rscale>  0 0.94258249E+02</rscale>
<asrwt>0</asrwt>
<pdfrwt beam="1">  1        1 0.67775148E-01 0.94258249E+02</pdfrwt>
<pdfrwt beam="2">  1       -1 0.77567815E-03 0.94258249E+02</pdfrwt>
<totfact> 0.12535513E+05</totfact>
</mgrwt>
</event>
<event>
 7    1  0.3345055E-009  0.9404452E+02  0.7818608E-02  0.1293343E+00
          1   -1    0    0  501    0  0.00000000000E+00  0.00000000000E+00  0.14892804833E+03  0.14892804842E+03  0.50400000000E-02 0. -1.
         -1   -1    0    0    0  501 -0.00000000000E+00 -0.00000000000E+00 -0.14846717361E+02  0.14846718216E+02  0.50400000000E-02 0.  1.
         23    2    1    2    0    0 -0.35527136788E-14  0.35527136788E-14  0.13408133097E+03  0.16377476664E+03  0.94044515369E+02 0.  0.
    9000005    2    3    3    0    0 -0.26227472347E+02  0.20920804978E+02  0.12343043924E+03  0.12857530810E+03  0.13075784294E+02 0.  0.
         22    1    3    3    0    0  0.26227472347E+02 -0.20920804978E+02  0.10650891733E+02  0.35199458537E+02  0.00000000000E+00 0.  1.
         22    1    4    4    0    0 -0.67730495446E+01  0.10941279318E+02  0.30424717493E+02  0.33034061630E+02  0.00000000000E+00 0.  1.
         22    1    4    4    0    0 -0.19454422802E+02  0.99795256592E+01  0.93005721748E+02  0.95541246469E+02  0.00000000000E+00 0.  1.
<mgrwt>
<rscale>  0 0.94044515E+02</rscale>
<asrwt>0</asrwt>
<pdfrwt beam="1">  1        1 0.22912007E-01 0.94044515E+02</pdfrwt>
<pdfrwt beam="2">  1       -1 0.22841105E-02 0.94044515E+02</pdfrwt>
<totfact> 0.10298572E+05</totfact>
</mgrwt>
</event>
<event>
 7    1  0.3345055E-009  0.9116497E+02  0.7818608E-02  0.1300055E+00
          1   -1    0    0  501    0  0.00000000000E+00  0.00000000000E+00  0.15018501397E+02  0.15018502242E+02  0.50400000000E-02 0. -1.
         -1   -1    0    0    0  501 -0.00000000000E+00 -0.00000000000E+00 -0.13834689479E+03  0.13834689488E+03  0.50400000000E-02 0.  1.
         23    2    1    2    0    0  0.00000000000E+00  0.00000000000E+00 -0.12332839340E+03  0.15336539713E+03  0.91164973637E+02 0.  0.
    9000005    2    3    3    0    0 -0.23093034395E+01 -0.29286822406E+02 -0.38429218295E+01  0.30321385633E+02  0.64472885362E+01 0.  0.
         22    1    3    3    0    0  0.23093034395E+01  0.29286822406E+02 -0.11948547157E+03  0.12304401149E+03  0.00000000000E+00 0. -1.
         22    1    4    4    0    0  0.45601865689E+00 -0.15963501047E+02  0.67337149816E+00  0.15984203073E+02  0.00000000000E+00 0. -1.
         22    1    4    4    0    0 -0.27653220964E+01 -0.13323321359E+02 -0.45162933277E+01  0.14337182560E+02  0.00000000000E+00 0. -1.
<mgrwt>
<rscale>  0 0.91164974E+02</rscale>
<asrwt>0</asrwt>
<pdfrwt beam="1">  1        1 0.23105388E-02 0.91164974E+02</pdfrwt>
<pdfrwt beam="2">  1       -1 0.21284137E-01 0.91164974E+02</pdfrwt>
<totfact> 0.76207715E+04</totfact>
</mgrwt>
</event>
<event>
 7    1  0.3345055E-009  0.9256110E+02  0.7818608E-02  0.1296766E+00
          1   -1    0    0  501    0  0.00000000000E+00  0.00000000000E+00  0.78539654500E+03  0.78539654502E+03  0.50400000000E-02 0. -1.
         -1   -1    0    0    0  501 -0.00000000000E+00 -0.00000000000E+00 -0.27271412062E+01  0.27271458633E+01  0.50400000000E-02 0.  1.
         23    2    1    2    0    0  0.00000000000E+00  0.00000000000E+00  0.78266940379E+03  0.78812369088E+03  0.92561095988E+02 0.  0.
    9000005    2    3    3    0    0 -0.38261894946E+02  0.79902703430E+01  0.59580109676E+03  0.59721119469E+03  0.12427676611E+02 0.  0.
         22    1    3    3    0    0  0.38261894946E+02 -0.79902703430E+01  0.18686830704E+03  0.19091249619E+03  0.00000000000E+00 0.  1.
         22    1    4    4    0    0 -0.28268088988E+00  0.84467661618E+00  0.64621566312E+02  0.64627704738E+02  0.00000000000E+00 0.  1.
         22    1    4    4    0    0 -0.37979214056E+02  0.71455937268E+01  0.53117953045E+03  0.53258348996E+03  0.00000000000E+00 0.  1.
<mgrwt>
<rscale>  0 0.92561096E+02</rscale>
<asrwt>0</asrwt>
<pdfrwt beam="1">  1        1 0.12083032E+00 0.92561096E+02</pdfrwt>
<pdfrwt beam="2">  1       -1 0.41956026E-03 0.92561096E+02</pdfrwt>
<totfact> 0.13597945E+05</totfact>
</mgrwt>
</event>
<event>
 7    1  0.3345055E-009  0.9151277E+02  0.7818608E-02  0.1299229E+00
          1   -1    0    0  501    0  0.00000000000E+00  0.00000000000E+00  0.45665748044E+03  0.45665748047E+03  0.50400000000E-02 0.  1.
         -1   -1    0    0    0  501 -0.00000000000E+00 -0.00000000000E+00 -0.45847191813E+01  0.45847219515E+01  0.50400000000E-02 0. -1.
         23    2    1    2    0    0  0.00000000000E+00  0.00000000000E+00  0.45207276126E+03  0.46124220242E+03  0.91512774084E+02 0.  0.
    9000005    2    3    3    0    0  0.22992910052E+02  0.26390671410E+02  0.37395754100E+03  0.37564355123E+03  0.62204225396E+01 0.  0.
         22    1    3    3    0    0 -0.22992910052E+02 -0.26390671410E+02  0.78115220261E+02  0.85598651196E+02  0.00000000000E+00 0. -1.
         22    1    4    4    0    0  0.12823192731E+02  0.16138437480E+02  0.18816173559E+03  0.18928740629E+03  0.00000000000E+00 0. -1.
         22    1    4    4    0    0  0.10169717322E+02  0.10252233930E+02  0.18579580540E+03  0.18635614494E+03  0.00000000000E+00 0. -1.
<mgrwt>
<rscale>  0 0.91512774E+02</rscale>
<asrwt>0</asrwt>
<pdfrwt beam="1">  1        1 0.70254989E-01 0.91512774E+02</pdfrwt>
<pdfrwt beam="2">  1       -1 0.70534171E-03 0.91512774E+02</pdfrwt>
<totfact> 0.13630587E+05</totfact>
</mgrwt>
</event>
<event>
 7    1  0.3345055E-009  0.9110228E+02  0.7818608E-02  0.1300204E+00
         -1   -1    0    0    0  501 -0.00000000000E+00  0.00000000000E+00  0.26420729882E+02  0.26420730362E+02  0.50400000000E-02 0.  1.
          1   -1    0    0  501    0  0.00000000000E+00 -0.00000000000E+00 -0.78533263539E+02  0.78533263700E+02  0.50400000000E-02 0. -1.
         23    2    1    2    0    0  0.00000000000E+00  0.71054273576E-14 -0.52112533657E+02  0.10495399406E+03  0.91102276072E+02 0.  0.
    9000005    2    3    3    0    0 -0.13352039751E+02  0.43086397486E+02 -0.32842111463E+02  0.55902349999E+02  0.34283868199E+01 0.  0.
         22    1    3    3    0    0  0.13352039751E+02 -0.43086397486E+02 -0.19270422194E+02  0.49051644064E+02  0.00000000000E+00 0.  1.
         22    1    4    4    0    0 -0.78477170597E+01  0.19907120941E+02 -0.16281091061E+02  0.26887804919E+02  0.00000000000E+00 0. -1.
         22    1    4    4    0    0 -0.55043226914E+01  0.23179276545E+02 -0.16561020402E+02  0.29014545080E+02  0.00000000000E+00 0. -1.
<mgrwt>
<rscale>  0 0.91102276E+02</rscale>
<asrwt>0</asrwt>
<pdfrwt beam="2">  1        1 0.12082041E-01 0.91102276E+02</pdfrwt>
<pdfrwt beam="1">  1       -1 0.40647277E-02 0.91102276E+02</pdfrwt>
<totfact> 0.10067707E+05</totfact>
</mgrwt>
</event>
<event>
 7    1  0.3345055E-009  0.8326764E+02  0.7818608E-02  0.1320026E+00
         -1   -1    0    0    0  501 -0.00000000000E+00  0.00000000000E+00  0.70959979741E+00  0.70961769573E+00  0.50400000000E-02 0.  1.
          1   -1    0    0  501    0  0.00000000000E+00 -0.00000000000E+00 -0.24427193013E+04  0.24427193013E+04  0.50400000000E-02 0. -1.
         23    2    1    2    0    0 -0.22204460493E-15  0.17763568394E-14 -0.24420097015E+04  0.24434289190E+04  0.83267640637E+02 0.  0.
    9000005    2    3    3    0    0  0.17710431874E+01 -0.11198160174E+02 -0.23964726946E+04  0.23965018012E+04  0.33123885491E+01 0.  0.
         22    1    3    3    0    0 -0.17710431874E+01  0.11198160174E+02 -0.45537006896E+02  0.46927117771E+02  0.00000000000E+00 0.  1.
         22    1    4    4    0    0 -0.54608545332E+00 -0.45498559031E+01 -0.74441669518E+03  0.74443079964E+03  0.00000000000E+00 0.  1.
         22    1    4    4    0    0  0.23171286407E+01 -0.66483042708E+01 -0.16520559994E+04  0.16520710016E+04  0.00000000000E+00 0.  1.
<mgrwt>
<rscale>  0 0.83267641E+02</rscale>
<asrwt>0</asrwt>
<pdfrwt beam="2">  1        1 0.37579624E+00 0.83267641E+02</pdfrwt>
<pdfrwt beam="1">  1       -1 0.10917253E-03 0.83267641E+02</pdfrwt>
<totfact> 0.70180250E+04</totfact>
</mgrwt>
</event>
<event>
 7    1  0.3345055E-009  0.9228215E+02  0.7818608E-02  0.1297417E+00
         -1   -1    0    0    0  501 -0.00000000000E+00  0.00000000000E+00  0.39532777392E+03  0.39532777396E+03  0.50400000000E-02 0.  1.
          1   -1    0    0  501    0  0.00000000000E+00 -0.00000000000E+00 -0.53854005586E+01  0.53854029170E+01  0.50400000000E-02 0. -1.
         23    2    1    2    0    0  0.71054273576E-14  0.00000000000E+00  0.38994237337E+03  0.40071317687E+03  0.92282151979E+02 0.  0.
    9000005    2    3    3    0    0 -0.44467936593E+02  0.52256639230E+01  0.21747993577E+03  0.22253349978E+03  0.14796320921E+02 0.  0.
         22    1    3    3    0    0  0.44467936593E+02 -0.52256639230E+01  0.17246243760E+03  0.17817967710E+03  0.00000000000E+00 0.  1.
         22    1    4    4    0    0 -0.24086851834E+01 -0.99930644823E+00  0.37873883847E+02  0.37963554303E+02  0.00000000000E+00 0.  1.
         22    1    4    4    0    0 -0.42059251410E+02  0.62249703712E+01  0.17960605192E+03  0.18456994547E+03  0.00000000000E+00 0.  1.
<mgrwt>
<rscale>  0 0.92282152E+02</rscale>
<asrwt>0</asrwt>
<pdfrwt beam="2">  1        1 0.82852322E-03 0.92282152E+02</pdfrwt>
<pdfrwt beam="1">  1       -1 0.60819667E-01 0.92282152E+02</pdfrwt>
<totfact> 0.51937992E+04</totfact>
</mgrwt>
</event>
<event>
 7    1  0.3345055E-009  0.9114333E+02  0.7818608E-02  0.1300106E+00
         -1   -1    0    0    0  501 -0.00000000000E+00  0.00000000000E+00  0.63037007517E+01  0.63037027665E+01  0.50400000000E-02 0.  1.
          1   -1    0    0  501    0  0.00000000000E+00 -0.00000000000E+00 -0.32945347731E+03  0.32945347734E+03  0.50400000000E-02 0. -1.
         23    2    1    2    0    0  0.00000000000E+00  0.00000000000E+00 -0.32314977655E+03  0.33575718011E+03  0.91143326190E+02 0.  0.
    9000005    2    3    3    0    0  0.39283736530E+02  0.21677960186E+02 -0.17150549114E+03  0.17761441166E+03  0.10936170520E+02 0.  0.
         22    1    3    3    0    0 -0.39283736530E+02 -0.21677960186E+02 -0.15164428542E+03  0.15814276845E+03  0.00000000000E+00 0.  1.
         22    1    4    4    0    0  0.60826817429E+01  0.74231293846E-01 -0.15302874143E+02  0.16467619273E+02  0.00000000000E+00 0. -1.
         22    1    4    4    0    0  0.33201054787E+02  0.21603728892E+02 -0.15620261700E+03  0.16114679239E+03  0.00000000000E+00 0. -1.
<mgrwt>
<rscale>  0 0.91143326E+02</rscale>
<asrwt>0</asrwt>
<pdfrwt beam="2">  1        1 0.50685137E-01 0.91143326E+02</pdfrwt>
<pdfrwt beam="1">  1       -1 0.96980053E-03 0.91143326E+02</pdfrwt>
<totfact> 0.13052089E+05</totfact>
</mgrwt>
</event>
<event>
 7    1  0.3345055E-009  0.9403797E+02  0.7818608E-02  0.1293358E+00
          1   -1    0    0  501    0  0.00000000000E+00  0.00000000000E+00  0.84006262773E+02  0.84006262924E+02  0.50400000000E-02 0. -1.
         -1   -1    0    0    0  501 -0.00000000000E+00 -0.00000000000E+00 -0.26316907306E+02  0.26316907789E+02  0.50400000000E-02 0.  1.
         23    2    1    2    0    0  0.00000000000E+00  0.00000000000E+00  0.57689355467E+02  0.11032317071E+03  0.94037972447E+02 0.  0.
    9000005    2    3    3    0    0  0.26759163463E+01 -0.35588511491E+02  0.64529863966E+02  0.73984551655E+02  0.59923168932E+01 0.  0.
         22    1    3    3    0    0 -0.26759163463E+01  0.35588511491E+02 -0.68405084991E+01  0.36338619057E+02  0.00000000000E+00 0.  1.
         22    1    4    4    0    0  0.11635459395E+00 -0.12980457510E+01  0.69382485822E+00  0.14764328962E+01  0.00000000000E+00 0. -1.
         22    1    4    4    0    0  0.25595617524E+01 -0.34290465740E+02  0.63836039108E+02  0.72508118759E+02  0.00000000000E+00 0. -1.
<mgrwt>
<rscale>  0 0.94037972E+02</rscale>
<asrwt>0</asrwt>
<pdfrwt beam="1">  1        1 0.12924041E-01 0.94037972E+02</pdfrwt>
<pdfrwt beam="2">  1       -1 0.40487550E-02 0.94037972E+02</pdfrwt>
<totfact> 0.93261680E+04</totfact>
</mgrwt>
</event>
<event>
 7    1  0.3345055E-009  0.9138514E+02  0.7818608E-02  0.1299532E+00
         -1   -1    0    0    0  501 -0.00000000000E+00  0.00000000000E+00  0.22606630244E+01  0.22606686425E+01  0.50400000000E-02 0.  1.
          1   -1    0    0  501    0  0.00000000000E+00 -0.00000000000E+00 -0.92353811261E+03  0.92353811262E+03  0.50400000000E-02 0. -1.
         23    2    1    2    0    0  0.00000000000E+00  0.00000000000E+00 -0.92127744958E+03  0.92579878126E+03  0.91385142551E+02 0.  0.
    9000005    2    3    3    0    0 -0.10499774417E+02 -0.29212925124E+02 -0.79666715384E+03  0.79738006743E+03  0.13144492119E+02 0.  0.
         22    1    3    3    0    0  0.10499774417E+02  0.29212925124E+02 -0.12461029575E+03  0.12841871384E+03  0.00000000000E+00 0.  1.
         22    1    4    4    0    0 -0.41262153880E+01 -0.26083300074E+02 -0.58931625226E+03  0.58990762784E+03  0.00000000000E+00 0. -1.
         22    1    4    4    0    0 -0.63735590289E+01 -0.31296250499E+01 -0.20735090157E+03  0.20747243959E+03  0.00000000000E+00 0. -1.
<mgrwt>
<rscale>  0 0.91385143E+02</rscale>
<asrwt>0</asrwt>
<pdfrwt beam="2">  1        1 0.14208249E+00 0.91385143E+02</pdfrwt>
<pdfrwt beam="1">  1       -1 0.34779548E-03 0.91385143E+02</pdfrwt>
<totfact> 0.13768485E+05</totfact>
</mgrwt>
</event>
<event>
 7    1  0.3345055E-009  0.9329536E+02  0.7818608E-02  0.1295062E+00
          1   -1    0    0  501    0  0.00000000000E+00  0.00000000000E+00  0.56412666180E+03  0.56412666183E+03  0.50400000000E-02 0. -1.
         -1   -1    0    0    0  501 -0.00000000000E+00 -0.00000000000E+00 -0.38572989608E+01  0.38573022535E+01  0.50400000000E-02 0.  1.
         23    2    1    2    0    0 -0.35527136788E-14  0.00000000000E+00  0.56026936284E+03  0.56798396408E+03  0.93295361682E+02 0.  0.
    9000005    2    3    3    0    0  0.25284140886E+02  0.13468497695E+02  0.50379634180E+03  0.50466026933E+03  0.71095163845E+01 0.  0.
         22    1    3    3    0    0 -0.25284140886E+02 -0.13468497695E+02  0.56473021045E+02  0.63323694747E+02  0.00000000000E+00 0.  1.
         22    1    4    4    0    0  0.18297915946E+02  0.13033719813E+02  0.37095221047E+03  0.37163185282E+03  0.00000000000E+00 0.  1.
         22    1    4    4    0    0  0.69862249402E+01  0.43477788179E+00  0.13284413133E+03  0.13302841651E+03  0.00000000000E+00 0.  1.
<mgrwt>
<rscale>  0 0.93295362E+02</rscale>
<asrwt>0</asrwt>
<pdfrwt beam="1">  1        1 0.86788728E-01 0.93295362E+02</pdfrwt>
<pdfrwt beam="2">  1       -1 0.59343079E-03 0.93295362E+02</pdfrwt>
<totfact> 0.13263922E+05</totfact>
</mgrwt>
</event>
<event>
 7    1  0.3345055E-009  0.9144857E+02  0.7818608E-02  0.1299381E+00
         -1   -1    0    0    0  501 -0.00000000000E+00  0.00000000000E+00  0.68912145855E+01  0.68912164285E+01  0.50400000000E-02 0.  1.
          1   -1    0    0  501    0  0.00000000000E+00 -0.00000000000E+00 -0.30338772964E+03  0.30338772968E+03  0.50400000000E-02 0. -1.
         23    2    1    2    0    0  0.00000000000E+00  0.17763568394E-14 -0.29649651505E+03  0.31027894611E+03  0.91448570026E+02 0.  0.
    9000005    2    3    3    0    0 -0.32981310556E+02  0.12331005507E+02 -0.24682379660E+03  0.24939217003E+03  0.58862009074E+01 0.  0.
         22    1    3    3    0    0  0.32981310556E+02 -0.12331005507E+02 -0.49672718452E+02  0.60886776078E+02  0.00000000000E+00 0.  1.
         22    1    4    4    0    0 -0.47726870447E+00  0.18834759980E+00 -0.12778184421E+02  0.12788481431E+02  0.00000000000E+00 0. -1.
         22    1    4    4    0    0 -0.32504041852E+02  0.12142657908E+02 -0.23404561218E+03  0.23660368860E+03  0.00000000000E+00 0. -1.
<mgrwt>
<rscale>  0 0.91448570E+02</rscale>
<asrwt>0</asrwt>
<pdfrwt beam="2">  1        1 0.46675025E-01 0.91448570E+02</pdfrwt>
<pdfrwt beam="1">  1       -1 0.10601872E-02 0.91448570E+02</pdfrwt>
<totfact> 0.12738129E+05</totfact>
</mgrwt>
</event>
<event>
 7    1  0.3345055E-009  0.9239279E+02  0.7818608E-02  0.1297159E+00
         -1   -1    0    0    0  501 -0.00000000000E+00  0.00000000000E+00  0.33533125597E+02  0.33533125976E+02  0.50400000000E-02 0.  1.
          1   -1    0    0  501    0  0.00000000000E+00 -0.00000000000E+00 -0.63641754087E+02  0.63641754287E+02  0.50400000000E-02 0. -1.
         23    2    1    2    0    0  0.00000000000E+00  0.00000000000E+00 -0.30108628490E+02  0.97174880263E+02  0.92392791085E+02 0.  0.
    9000005    2    3    3    0    0 -0.35603179670E+02  0.25219983489E+02 -0.30907921412E+02  0.53536905528E+02  0.26956775991E+01 0.  0.
         22    1    3    3    0    0  0.35603179670E+02 -0.25219983489E+02  0.79929292163E+00  0.43637974735E+02  0.00000000000E+00 0.  1.
         22    1    4    4    0    0 -0.70051342412E+00  0.42790281792E+00 -0.10902447858E+01  0.13647173964E+01  0.00000000000E+00 0.  1.
         22    1    4    4    0    0 -0.34902666246E+02  0.24792080671E+02 -0.29817676626E+02  0.52172188132E+02  0.00000000000E+00 0.  1.
<mgrwt>
<rscale>  0 0.92392791E+02</rscale>
<asrwt>0</asrwt>
<pdfrwt beam="2">  1        1 0.97910391E-02 0.92392791E+02</pdfrwt>
<pdfrwt beam="1">  1       -1 0.51589425E-02 0.92392791E+02</pdfrwt>
<totfact> 0.93729955E+04</totfact>
</mgrwt>
</event>
<event>
 7    1  0.3345055E-009  0.9184218E+02  0.7818608E-02  0.1298451E+00
         -1   -1    0    0    0  501 -0.00000000000E+00  0.00000000000E+00  0.87124167615E+02  0.87124167761E+02  0.50400000000E-02 0. -1.
          1   -1    0    0  501    0  0.00000000000E+00 -0.00000000000E+00 -0.24203920387E+02  0.24203920911E+02  0.50400000000E-02 0.  1.
         23    2    1    2    0    0  0.00000000000E+00  0.17763568394E-14  0.62920247229E+02  0.11132808867E+03  0.91842178851E+02 0.  0.
    9000005    2    3    3    0    0 -0.76010093855E+01  0.15545016342E+02  0.82494124761E+02  0.85202247856E+02  0.12438631069E+02 0.  0.
         22    1    3    3    0    0  0.76010093855E+01 -0.15545016342E+02 -0.19573877532E+02  0.26125840817E+02  0.00000000000E+00 0.  1.
         22    1    4    4    0    0 -0.55692358450E+01 -0.47530153716E-01  0.20119981883E+02  0.20876597376E+02  0.00000000000E+00 0.  1.
         22    1    4    4    0    0 -0.20317735405E+01  0.15592546496E+02  0.62374142877E+02  0.64325650480E+02  0.00000000000E+00 0.  1.
<mgrwt>
<rscale>  0 0.91842179E+02</rscale>
<asrwt>0</asrwt>
<pdfrwt beam="2">  1        1 0.37236801E-02 0.91842179E+02</pdfrwt>
<pdfrwt beam="1">  1       -1 0.13403718E-01 0.91842179E+02</pdfrwt>
<totfact> 0.81874322E+04</totfact>
</mgrwt>
</event>
<event>
 7    1  0.3345055E-009  0.9104835E+02  0.7818608E-02  0.1300333E+00
         -1   -1    0    0    0  501 -0.00000000000E+00  0.00000000000E+00  0.72896553522E+02  0.72896553697E+02  0.50400000000E-02 0.  1.
          1   -1    0    0  501    0  0.00000000000E+00 -0.00000000000E+00 -0.28430017116E+02  0.28430017562E+02  0.50400000000E-02 0. -1.
         23    2    1    2    0    0  0.17763568394E-14  0.71054273576E-14  0.44466536407E+02  0.10132657126E+03  0.91048345307E+02 0.  0.
    9000005    2    3    3    0    0  0.10169201499E+02  0.41506106490E+02  0.99409784682E+01  0.46388572696E+02  0.15063435492E+02 0.  0.
         22    1    3    3    0    0 -0.10169201499E+02 -0.41506106490E+02  0.34525557939E+02  0.54937998563E+02  0.00000000000E+00 0. -1.
         22    1    4    4    0    0 -0.94376141239E+00  0.50066100747E+01  0.62400018725E+01  0.80557093674E+01  0.00000000000E+00 0.  1.
         22    1    4    4    0    0  0.11112962911E+02  0.36499496415E+02  0.37009765957E+01  0.38332863329E+02  0.00000000000E+00 0.  1.
<mgrwt>
<rscale>  0 0.91048345E+02</rscale>
<asrwt>0</asrwt>
<pdfrwt beam="2">  1        1 0.43738489E-02 0.91048345E+02</pdfrwt>
<pdfrwt beam="1">  1       -1 0.11214854E-01 0.91048345E+02</pdfrwt>
<totfact> 0.86280557E+04</totfact>
</mgrwt>
</event>
<event>
 7    1  0.3345055E-009  0.8930609E+02  0.7818608E-02  0.1304541E+00
         -1   -1    0    0    0  501 -0.00000000000E+00  0.00000000000E+00  0.13692200320E+02  0.13692201248E+02  0.50400000000E-02 0.  1.
          1   -1    0    0  501    0  0.00000000000E+00 -0.00000000000E+00 -0.14562265307E+03  0.14562265316E+03  0.50400000000E-02 0. -1.
         23    2    1    2    0    0  0.00000000000E+00  0.00000000000E+00 -0.13193045275E+03  0.15931485441E+03  0.89306094257E+02 0.  0.
    9000005    2    3    3    0    0 -0.39196179890E+02 -0.19164080782E+02 -0.64221076197E+02  0.78765725401E+02  0.13269904290E+02 0.  0.
         22    1    3    3    0    0  0.39196179890E+02  0.19164080782E+02 -0.67709376558E+02  0.80549129009E+02  0.00000000000E+00 0. -1.
         22    1    4    4    0    0 -0.18477043071E+02 -0.69249263321E+01 -0.40109288196E+02  0.44700231822E+02  0.00000000000E+00 0. -1.
         22    1    4    4    0    0 -0.20719136819E+02 -0.12239154450E+02 -0.24111788000E+02  0.34065493579E+02  0.00000000000E+00 0. -1.
<mgrwt>
<rscale>  0 0.89306094E+02</rscale>
<asrwt>0</asrwt>
<pdfrwt beam="2">  1        1 0.22403484E-01 0.89306094E+02</pdfrwt>
<pdfrwt beam="1">  1       -1 0.21064925E-02 0.89306094E+02</pdfrwt>
<totfact> 0.11793249E+05</totfact>
</mgrwt>
</event>
<event>
 7    1  0.3345055E-009  0.9894899E+02  0.7818608E-02  0.1282522E+00
         -1   -1    0    0    0  501 -0.00000000000E+00  0.00000000000E+00  0.25817712906E+03  0.25817712911E+03  0.50400000000E-02 0.  1.
          1   -1    0    0  501    0  0.00000000000E+00 -0.00000000000E+00 -0.94807995150E+01  0.94808008547E+01  0.50400000000E-02 0. -1.
         23    2    1    2    0    0  0.00000000000E+00  0.00000000000E+00  0.24869632954E+03  0.26765792996E+03  0.98948992634E+02 0.  0.
    9000005    2    3    3    0    0  0.48609537919E+02  0.22805261692E+01  0.11378983791E+03  0.12424297446E+03  0.10959083683E+02 0.  0.
         22    1    3    3    0    0 -0.48609537919E+02 -0.22805261692E+01  0.13490649164E+03  0.14341495550E+03  0.00000000000E+00 0.  1.
         22    1    4    4    0    0  0.21142056265E+02  0.47888285475E+00  0.36319452010E+02  0.42027591725E+02  0.00000000000E+00 0. -1.
         22    1    4    4    0    0  0.27467481655E+02  0.18016433145E+01  0.77470385896E+02  0.82215382733E+02  0.00000000000E+00 0. -1.
<mgrwt>
<rscale>  0 0.98948993E+02</rscale>
<asrwt>0</asrwt>
<pdfrwt beam="2">  1        1 0.14585846E-02 0.98948993E+02</pdfrwt>
<pdfrwt beam="1">  1       -1 0.39719559E-01 0.98948993E+02</pdfrwt>
<totfact> 0.51695661E+04</totfact>
</mgrwt>
</event>
<event>
 7    1  0.3345055E-009  0.9031638E+02  0.7818608E-02  0.1302087E+00
         -1   -1    0    0    0  501 -0.00000000000E+00  0.00000000000E+00  0.18268736932E+01  0.18268806454E+01  0.50400000000E-02 0.  1.
          1   -1    0    0  501    0  0.00000000000E+00 -0.00000000000E+00 -0.11162557947E+04  0.11162557947E+04  0.50400000000E-02 0. -1.
         23    2    1    2    0    0  0.00000000000E+00  0.71054273576E-14 -0.11144289210E+04  0.11180826754E+04  0.90316382549E+02 0.  0.
    9000005    2    3    3    0    0  0.47153196437E+01  0.32627612507E+02 -0.93592051474E+03  0.93655568991E+03  0.10126947029E+02 0.  0.
         22    1    3    3    0    0 -0.47153196437E+01 -0.32627612507E+02 -0.17850840628E+03  0.18152698546E+03  0.00000000000E+00 0.  1.
         22    1    4    4    0    0 -0.30540142120E+01  0.13474672470E+02 -0.37963018331E+03  0.37988152085E+03  0.00000000000E+00 0. -1.
         22    1    4    4    0    0  0.77693338557E+01  0.19152940036E+02 -0.55629033143E+03  0.55667416907E+03  0.00000000000E+00 0. -1.
<mgrwt>
<rscale>  0 0.90316383E+02</rscale>
<asrwt>0</asrwt>
<pdfrwt beam="2">  1        1 0.17173112E+00 0.90316383E+02</pdfrwt>
<pdfrwt beam="1">  1       -1 0.28105892E-03 0.90316383E+02</pdfrwt>
<totfact> 0.13461134E+05</totfact>
</mgrwt>
</event>
<event>
 7    1  0.3345055E-009  0.9199717E+02  0.7818608E-02  0.1298086E+00
          1   -1    0    0  501    0  0.00000000000E+00  0.00000000000E+00  0.12891486073E+03  0.12891486083E+03  0.50400000000E-02 0. -1.
         -1   -1    0    0    0  501 -0.00000000000E+00 -0.00000000000E+00 -0.16412923503E+02  0.16412924277E+02  0.50400000000E-02 0.  1.
         23    2    1    2    0    0  0.17763568394E-14 -0.35527136788E-14  0.11250193723E+03  0.14532778511E+03  0.91997169762E+02 0.  0.
    9000005    2    3    3    0    0 -0.11959022085E+02 -0.31298339799E+02  0.10582215888E+03  0.11116312907E+03  0.60255847121E+01 0.  0.
         22    1    3    3    0    0  0.11959022085E+02  0.31298339799E+02  0.66797783487E+01  0.34164656038E+02  0.00000000000E+00 0.  1.
         22    1    4    4    0    0 -0.12232846733E+02 -0.27921434777E+02  0.98183202417E+02  0.10280656738E+03  0.00000000000E+00 0.  1.
         22    1    4    4    0    0  0.27382464778E+00 -0.33769050215E+01  0.76389564665E+01  0.83565616948E+01  0.00000000000E+00 0.  1.
<mgrwt>
<rscale>  0 0.91997170E+02</rscale>
<asrwt>0</asrwt>
<pdfrwt beam="1">  1        1 0.19833056E-01 0.91997170E+02</pdfrwt>
<pdfrwt beam="2">  1       -1 0.25250652E-02 0.91997170E+02</pdfrwt>
<totfact> 0.10648699E+05</totfact>
</mgrwt>
</event>
<event>
 7    1  0.3345055E-009  0.9057986E+02  0.7818608E-02  0.1301454E+00
          1   -1    0    0  501    0  0.00000000000E+00  0.00000000000E+00  0.30230750747E+03  0.30230750751E+03  0.50400000000E-02 0. -1.
         -1   -1    0    0    0  501 -0.00000000000E+00 -0.00000000000E+00 -0.67850695334E+01  0.67850714053E+01  0.50400000000E-02 0.  1.
         23    2    1    2    0    0  0.00000000000E+00  0.00000000000E+00  0.29552243793E+03  0.30909257891E+03  0.90579859890E+02 0.  0.
    9000005    2    3    3    0    0 -0.29221459435E+02 -0.36001222978E+01  0.26369735857E+03  0.26573718423E+03  0.14597931063E+02 0.  0.
         22    1    3    3    0    0  0.29221459435E+02  0.36001222978E+01  0.31825079361E+02  0.43355394686E+02  0.00000000000E+00 0.  1.
         22    1    4    4    0    0 -0.20602734938E+02 -0.40320940257E+00  0.12084420157E+03  0.12258856520E+03  0.00000000000E+00 0.  1.
         22    1    4    4    0    0 -0.86187244967E+01 -0.31969128952E+01  0.14285315701E+03  0.14314861903E+03  0.00000000000E+00 0.  1.
<mgrwt>
<rscale>  0 0.90579860E+02</rscale>
<asrwt>0</asrwt>
<pdfrwt beam="1">  1        1 0.46508849E-01 0.90579860E+02</pdfrwt>
<pdfrwt beam="2">  1       -1 0.10438570E-02 0.90579860E+02</pdfrwt>
<totfact> 0.13057281E+05</totfact>
</mgrwt>
</event>
<event>
 7    1  0.3345055E-009  0.9829805E+02  0.7818608E-02  0.1283916E+00
         -1   -1    0    0    0  501 -0.00000000000E+00  0.00000000000E+00  0.21104321286E+02  0.21104321888E+02  0.50400000000E-02 0.  1.
          1   -1    0    0  501    0  0.00000000000E+00 -0.00000000000E+00 -0.11446122311E+03  0.11446122322E+03  0.50400000000E-02 0. -1.
         23    2    1    2    0    0  0.00000000000E+00  0.00000000000E+00 -0.93356901819E+02  0.13556554511E+03  0.98298046279E+02 0.  0.
    9000005    2    3    3    0    0  0.86064166083E+01  0.43340223654E+02 -0.18542452337E+02  0.48676839023E+02  0.85537550456E+01 0.  0.
         22    1    3    3    0    0 -0.86064166083E+01 -0.43340223654E+02 -0.74814449482E+02  0.86888706082E+02  0.00000000000E+00 0. -1.
         22    1    4    4    0    0  0.37745567755E+01  0.52737445239E+01 -0.41235863939E+01  0.76852862603E+01  0.00000000000E+00 0.  1.
         22    1    4    4    0    0  0.48318598327E+01  0.38066479131E+02 -0.14418865944E+02  0.40991552763E+02  0.00000000000E+00 0.  1.
<mgrwt>
<rscale>  0 0.98298046E+02</rscale>
<asrwt>0</asrwt>
<pdfrwt beam="2">  1        1 0.17609419E-01 0.98298046E+02</pdfrwt>
<pdfrwt beam="1">  1       -1 0.32468188E-02 0.98298046E+02</pdfrwt>
<totfact> 0.87025123E+04</totfact>
</mgrwt>
</event>
<event>
 7    1  0.3345055E-009  0.9245567E+02  0.7818608E-02  0.1297012E+00
         -1   -1    0    0    0  501 -0.00000000000E+00  0.00000000000E+00  0.14565568591E+02  0.14565569463E+02  0.50400000000E-02 0.  1.
          1   -1    0    0  501    0  0.00000000000E+00 -0.00000000000E+00 -0.14671672589E+03  0.14671672598E+03  0.50400000000E-02 0. -1.
         23    2    1    2    0    0  0.00000000000E+00  0.00000000000E+00 -0.13215115730E+03  0.16128229544E+03  0.92455667470E+02 0.  0.
    9000005    2    3    3    0    0  0.67953566640E+01 -0.25823076613E+02 -0.64618647361E+00  0.27093750811E+02  0.45437449437E+01 0.  0.
         22    1    3    3    0    0 -0.67953566640E+01  0.25823076613E+02 -0.13150497083E+03  0.13418854463E+03  0.00000000000E+00 0. -1.
         22    1    4    4    0    0  0.31942254590E+01 -0.50563393884E+01  0.37365153414E+00  0.59924335426E+01  0.00000000000E+00 0. -1.
         22    1    4    4    0    0  0.36011312050E+01 -0.20766737224E+02 -0.10198380078E+01  0.21101317269E+02  0.00000000000E+00 0. -1.
<mgrwt>
<rscale>  0 0.92455667E+02</rscale>
<asrwt>0</asrwt>
<pdfrwt beam="2">  1        1 0.22571803E-01 0.92455667E+02</pdfrwt>
<pdfrwt beam="1">  1       -1 0.22408569E-02 0.92455667E+02</pdfrwt>
<totfact> 0.10755119E+05</totfact>
</mgrwt>
</event>
<event>
 7    1  0.3345055E-009  0.9128576E+02  0.7818608E-02  0.1299768E+00
          1   -1    0    0  501    0  0.00000000000E+00  0.00000000000E+00  0.68337965231E+03  0.68337965233E+03  0.50400000000E-02 0. -1.
         -1   -1    0    0    0  501 -0.00000000000E+00 -0.00000000000E+00 -0.30484828021E+01  0.30484869684E+01  0.50400000000E-02 0.  1.
         23    2    1    2    0    0  0.00000000000E+00 -0.35527136788E-14  0.68033116951E+03  0.68642813930E+03  0.91285761293E+02 0.  0.
    9000005    2    3    3    0    0 -0.15566967578E+02 -0.30892156729E+02  0.55822771065E+03  0.55951907543E+03  0.15708691981E+02 0.  0.
         22    1    3    3    0    0  0.15566967578E+02  0.30892156729E+02  0.12210345886E+03  0.12690906387E+03  0.00000000000E+00 0.  1.
         22    1    4    4    0    0 -0.83099773159E+01 -0.28520462010E+02  0.48046517271E+03  0.48138264890E+03  0.00000000000E+00 0. -1.
         22    1    4    4    0    0 -0.72569902625E+01 -0.23716947189E+01  0.77762537936E+02  0.78136426523E+02  0.00000000000E+00 0. -1.
<mgrwt>
<rscale>  0 0.91285761E+02</rscale>
<asrwt>0</asrwt>
<pdfrwt beam="1">  1        1 0.10513550E+00 0.91285761E+02</pdfrwt>
<pdfrwt beam="2">  1       -1 0.46899693E-03 0.91285761E+02</pdfrwt>
<totfact> 0.14173744E+05</totfact>
</mgrwt>
</event>
<event>
 7    1  0.3345055E-009  0.8938158E+02  0.7818608E-02  0.1304356E+00
         -1   -1    0    0    0  501 -0.00000000000E+00  0.00000000000E+00  0.19777257125E+01  0.19777321344E+01  0.50400000000E-02 0.  1.
          1   -1    0    0  501    0  0.00000000000E+00 -0.00000000000E+00 -0.10098789555E+04  0.10098789555E+04  0.50400000000E-02 0. -1.
         23    2    1    2    0    0  0.00000000000E+00  0.22204460493E-15 -0.10079012298E+04  0.10118566876E+04  0.89381582714E+02 0.  0.
    9000005    2    3    3    0    0 -0.22375287256E+02 -0.10133286081E+01 -0.94145374634E+03  0.94173573235E+03  0.54178204914E+01 0.  0.
         22    1    3    3    0    0  0.22375287256E+02  0.10133286081E+01 -0.66447483429E+02  0.70120955275E+02  0.00000000000E+00 0.  1.
         22    1    4    4    0    0 -0.11667978831E+02 -0.18682521365E+00 -0.59893742861E+03  0.59905109968E+03  0.00000000000E+00 0. -1.
         22    1    4    4    0    0 -0.10707308425E+02 -0.82650339441E+00 -0.34251631772E+03  0.34268463267E+03  0.00000000000E+00 0. -1.
<mgrwt>
<rscale>  0 0.89381583E+02</rscale>
<asrwt>0</asrwt>
<pdfrwt beam="2">  1        1 0.15536558E+00 0.89381583E+02</pdfrwt>
<pdfrwt beam="1">  1       -1 0.30426680E-03 0.89381583E+02</pdfrwt>
<totfact> 0.14296965E+05</totfact>
</mgrwt>
</event>
<event>
 7    1  0.3345055E-009  0.8019144E+02  0.7818608E-02  0.1328509E+00
         -1   -1    0    0    0  501 -0.00000000000E+00  0.00000000000E+00  0.99073022598E+01  0.99073035417E+01  0.50400000000E-02 0.  1.
          1   -1    0    0  501    0  0.00000000000E+00 -0.00000000000E+00 -0.16227088932E+03  0.16227088940E+03  0.50400000000E-02 0. -1.
         23    2    1    2    0    0  0.71054273576E-14  0.00000000000E+00 -0.15236358706E+03  0.17217819294E+03  0.80191442574E+02 0.  0.
    9000005    2    3    3    0    0 -0.32818956716E+02  0.47953148399E+01 -0.12290693004E+03  0.12781859863E+03  0.11463059800E+02 0.  0.
         22    1    3    3    0    0  0.32818956716E+02 -0.47953148399E+01 -0.29456657018E+02  0.44359594306E+02  0.00000000000E+00 0.  1.
         22    1    4    4    0    0 -0.27777962863E+02  0.33127852859E+00 -0.88449620391E+02  0.92709548126E+02  0.00000000000E+00 0.  1.
         22    1    4    4    0    0 -0.50409938525E+01  0.44640363113E+01 -0.34457309648E+02  0.35109050506E+02  0.00000000000E+00 0.  1.
<mgrwt>
<rscale>  0 0.80191443E+02</rscale>
<asrwt>0</asrwt>
<pdfrwt beam="2">  1        1 0.24964750E-01 0.80191443E+02</pdfrwt>
<pdfrwt beam="1">  1       -1 0.15242006E-02 0.80191443E+02</pdfrwt>
<totfact> 0.16033769E+05</totfact>
</mgrwt>
</event>
<event>
 7    1  0.3345055E-009  0.9050828E+02  0.7818608E-02  0.1301625E+00
         -1   -1    0    0    0  501 -0.00000000000E+00  0.00000000000E+00  0.82179489438E+01  0.82179504893E+01  0.50400000000E-02 0.  1.
          1   -1    0    0  501    0  0.00000000000E+00 -0.00000000000E+00 -0.24920292022E+03  0.24920292027E+03  0.50400000000E-02 0. -1.
         23    2    1    2    0    0  0.00000000000E+00  0.35527136788E-14 -0.24098497128E+03  0.25742087076E+03  0.90508277644E+02 0.  0.
    9000005    2    3    3    0    0 -0.13272655204E+02 -0.30874039644E+02 -0.20661845734E+03  0.20935396967E+03  0.29202746645E+01 0.  0.
         22    1    3    3    0    0  0.13272655204E+02  0.30874039644E+02 -0.34366513941E+02  0.48066901092E+02  0.00000000000E+00 0.  1.
         22    1    4    4    0    0 -0.10107497614E+01 -0.38833822008E+01 -0.20458544518E+02  0.20848364832E+02  0.00000000000E+00 0.  1.
         22    1    4    4    0    0 -0.12261905443E+02 -0.26990657444E+02 -0.18615991282E+03  0.18850560484E+03  0.00000000000E+00 0.  1.
<mgrwt>
<rscale>  0 0.90508278E+02</rscale>
<asrwt>0</asrwt>
<pdfrwt beam="2">  1        1 0.38338905E-01 0.90508278E+02</pdfrwt>
<pdfrwt beam="1">  1       -1 0.12643002E-02 0.90508278E+02</pdfrwt>
<totfact> 0.12604526E+05</totfact>
</mgrwt>
</event>
<event>
 7    1  0.3345055E-009  0.8297503E+02  0.7818608E-02  0.1320815E+00
         -1   -1    0    0    0  501 -0.00000000000E+00  0.00000000000E+00  0.59747699768E+02  0.59747699981E+02  0.50400000000E-02 0.  1.
          1   -1    0    0  501    0  0.00000000000E+00 -0.00000000000E+00 -0.28808037589E+02  0.28808038030E+02  0.50400000000E-02 0. -1.
         23    2    1    2    0    0  0.88817841970E-15  0.00000000000E+00  0.30939662179E+02  0.88555738011E+02  0.82975032623E+02 0.  0.
    9000005    2    3    3    0    0  0.66292806527E+01 -0.39159022267E+02  0.26009445897E+02  0.48534700800E+02  0.10087096655E+02 0.  0.
         22    1    3    3    0    0 -0.66292806527E+01  0.39159022267E+02  0.49302162812E+01  0.40021037211E+02  0.00000000000E+00 0. -1.
         22    1    4    4    0    0  0.76965061001E+01 -0.26645375472E+02  0.13640939972E+02  0.30907725305E+02  0.00000000000E+00 0.  1.
         22    1    4    4    0    0 -0.10672254475E+01 -0.12513646795E+02  0.12368505926E+02  0.17626975495E+02  0.00000000000E+00 0.  1.
<mgrwt>
<rscale>  0 0.82975033E+02</rscale>
<asrwt>0</asrwt>
<pdfrwt beam="2">  1        1 0.44320058E-02 0.82975033E+02</pdfrwt>
<pdfrwt beam="1">  1       -1 0.91919539E-02 0.82975033E+02</pdfrwt>
<totfact> 0.11265943E+05</totfact>
</mgrwt>
</event>
<event>
 7    1  0.3345055E-009  0.9153550E+02  0.7818608E-02  0.1299175E+00
         -1   -1    0    0    0  501 -0.00000000000E+00  0.00000000000E+00  0.44367907318E+01  0.44367935944E+01  0.50400000000E-02 0.  1.
          1   -1    0    0  501    0  0.00000000000E+00 -0.00000000000E+00 -0.47211747755E+03  0.47211747757E+03  0.50400000000E-02 0. -1.
         23    2    1    2    0    0  0.00000000000E+00  0.00000000000E+00 -0.46768068681E+03  0.47655427117E+03  0.91535504307E+02 0.  0.
    9000005    2    3    3    0    0  0.44279862987E+02  0.13060638459E+01 -0.28578891873E+03  0.28934575810E+03  0.91241214060E+01 0.  0.
         22    1    3    3    0    0 -0.44279862987E+02 -0.13060638459E+01 -0.18189176809E+03  0.18720851307E+03  0.00000000000E+00 0.  1.
         22    1    4    4    0    0  0.19062734038E+02  0.32527588549E+01 -0.10107797432E+03  0.10291124895E+03  0.00000000000E+00 0.  1.
         22    1    4    4    0    0  0.25217128949E+02 -0.19466950090E+01 -0.18471094441E+03  0.18643450914E+03  0.00000000000E+00 0.  1.
<mgrwt>
<rscale>  0 0.91535504E+02</rscale>
<asrwt>0</asrwt>
<pdfrwt beam="2">  1        1 0.72633419E-01 0.91535504E+02</pdfrwt>
<pdfrwt beam="1">  1       -1 0.68258379E-03 0.91535504E+02</pdfrwt>
<totfact> 0.13683478E+05</totfact>
</mgrwt>
</event>
<event>
 7    1  0.3345055E-009  0.8800337E+02  0.7818608E-02  0.1307760E+00
         -1   -1    0    0    0  501 -0.00000000000E+00  0.00000000000E+00  0.16985968554E+02  0.16985969302E+02  0.50400000000E-02 0.  1.
          1   -1    0    0  501    0  0.00000000000E+00 -0.00000000000E+00 -0.11398516315E+03  0.11398516326E+03  0.50400000000E-02 0. -1.
         23    2    1    2    0    0  0.00000000000E+00  0.00000000000E+00 -0.96999194592E+02  0.13097113256E+03  0.88003373871E+02 0.  0.
    9000005    2    3    3    0    0 -0.17898814380E+02 -0.34095506058E+02 -0.79840475057E+02  0.88813182591E+02  0.55144224549E+01 0.  0.
         22    1    3    3    0    0  0.17898814380E+02  0.34095506058E+02 -0.17158719536E+02  0.42157949970E+02  0.00000000000E+00 0.  1.
         22    1    4    4    0    0 -0.21325260585E+01 -0.41999584050E+01 -0.61941060523E+01  0.77816622762E+01  0.00000000000E+00 0.  1.
         22    1    4    4    0    0 -0.15766288321E+02 -0.29895547653E+02 -0.73646369005E+02  0.81031520314E+02  0.00000000000E+00 0.  1.
<mgrwt>
<rscale>  0 0.88003374E+02</rscale>
<asrwt>0</asrwt>
<pdfrwt beam="2">  1        1 0.17536179E-01 0.88003374E+02</pdfrwt>
<pdfrwt beam="1">  1       -1 0.26132261E-02 0.88003374E+02</pdfrwt>
<totfact> 0.11753695E+05</totfact>
</mgrwt>
</event>
<event>
 7    1  0.3345055E-009  0.9106562E+02  0.7818608E-02  0.1300291E+00
          1   -1    0    0  501    0  0.00000000000E+00  0.00000000000E+00  0.68195833752E+02  0.68195833938E+02  0.50400000000E-02 0. -1.
         -1   -1    0    0    0  501 -0.00000000000E+00 -0.00000000000E+00 -0.30401222004E+02  0.30401222422E+02  0.50400000000E-02 0.  1.
         23    2    1    2    0    0  0.00000000000E+00  0.00000000000E+00  0.37794611748E+02  0.98597056361E+02  0.91065618352E+02 0.  0.
    9000005    2    3    3    0    0  0.30035322742E+02  0.32933716636E+02  0.25411996676E+02  0.52336063508E+02  0.10321999070E+02 0.  0.
         22    1    3    3    0    0 -0.30035322742E+02 -0.32933716636E+02  0.12382615072E+02  0.46260992852E+02  0.00000000000E+00 0. -1.
         22    1    4    4    0    0  0.96255996090E+01  0.42839160427E+01  0.67959776741E+01  0.12537520370E+02  0.00000000000E+00 0.  1.
         22    1    4    4    0    0  0.20409723133E+02  0.28649800593E+02  0.18616019002E+02  0.39798543138E+02  0.00000000000E+00 0.  1.
<mgrwt>
<rscale>  0 0.91065618E+02</rscale>
<asrwt>0</asrwt>
<pdfrwt beam="1">  1        1 0.10491667E-01 0.91065618E+02</pdfrwt>
<pdfrwt beam="2">  1       -1 0.46771112E-02 0.91065618E+02</pdfrwt>
<totfact> 0.98602887E+04</totfact>
</mgrwt>
</event>
<event>
 7    1  0.3345055E-009  0.9395660E+02  0.7818608E-02  0.1293544E+00
         -1   -1    0    0    0  501 -0.00000000000E+00  0.00000000000E+00  0.49679848640E+01  0.49679874205E+01  0.50400000000E-02 0.  1.
          1   -1    0    0  501    0  0.00000000000E+00 -0.00000000000E+00 -0.44423650270E+03  0.44423650272E+03  0.50400000000E-02 0. -1.
         23    2    1    2    0    0  0.00000000000E+00 -0.71054273576E-14 -0.43926851783E+03  0.44920449014E+03  0.93956602791E+02 0.  0.
    9000005    2    3    3    0    0  0.10362975219E+02 -0.43768269453E+02 -0.16726798903E+03  0.17351020232E+03  0.10205757761E+02 0.  0.
         22    1    3    3    0    0 -0.10362975219E+02  0.43768269453E+02 -0.27200052881E+03  0.27569428782E+03  0.00000000000E+00 0.  1.
         22    1    4    4    0    0  0.87155016790E+01 -0.18785409072E+02 -0.64845190994E+02  0.68071656058E+02  0.00000000000E+00 0.  1.
         22    1    4    4    0    0  0.16474735402E+01 -0.24982860381E+02 -0.10242279803E+03  0.10543854627E+03  0.00000000000E+00 0.  1.
<mgrwt>
<rscale>  0 0.93956603E+02</rscale>
<asrwt>0</asrwt>
<pdfrwt beam="2">  1        1 0.68344046E-01 0.93956603E+02</pdfrwt>
<pdfrwt beam="1">  1       -1 0.76430591E-03 0.93956603E+02</pdfrwt>
<totfact> 0.12658480E+05</totfact>
</mgrwt>
</event>
<event>
 7    1  0.3345055E-009  0.9427473E+02  0.7818608E-02  0.1292818E+00
          1   -1    0    0  501    0  0.00000000000E+00  0.00000000000E+00  0.27351600052E+02  0.27351600516E+02  0.50400000000E-02 0. -1.
         -1   -1    0    0    0  501 -0.00000000000E+00 -0.00000000000E+00 -0.81235869026E+02  0.81235869182E+02  0.50400000000E-02 0.  1.
         23    2    1    2    0    0  0.71054273576E-14  0.00000000000E+00 -0.53884268974E+02  0.10858746970E+03  0.94274726903E+02 0.  0.
    9000005    2    3    3    0    0 -0.43472647278E+02  0.54603115770E+01 -0.90445948102E+01  0.45895504958E+02  0.10242393086E+02 0.  0.
         22    1    3    3    0    0  0.43472647278E+02 -0.54603115770E+01 -0.44839674164E+02  0.62691964741E+02  0.00000000000E+00 0. -1.
         22    1    4    4    0    0 -0.41194066644E+02  0.66433535902E+01 -0.64081570245E+01  0.42215515513E+02  0.00000000000E+00 0. -1.
         22    1    4    4    0    0 -0.22785806340E+01 -0.11830420132E+01 -0.26364377857E+01  0.36799894441E+01  0.00000000000E+00 0. -1.
<mgrwt>
<rscale>  0 0.94274727E+02</rscale>
<asrwt>0</asrwt>
<pdfrwt beam="1">  1        1 0.42079385E-02 0.94274727E+02</pdfrwt>
<pdfrwt beam="2">  1       -1 0.12497826E-01 0.94274727E+02</pdfrwt>
<totfact> 0.77498220E+04</totfact>
</mgrwt>
</event>
<event>
 7    1  0.3345055E-009  0.8249008E+02  0.7818608E-02  0.1322130E+00
         -1   -1    0    0    0  501 -0.00000000000E+00  0.00000000000E+00  0.64492646158E+02  0.64492646355E+02  0.50400000000E-02 0.  1.
          1   -1    0    0  501    0  0.00000000000E+00 -0.00000000000E+00 -0.26377479298E+02  0.26377479780E+02  0.50400000000E-02 0. -1.
         23    2    1    2    0    0 -0.17763568394E-14  0.00000000000E+00  0.38115166860E+02  0.90870126135E+02  0.82490083519E+02 0.  0.
    9000005    2    3    3    0    0 -0.11661641311E+02 -0.29042837463E+01 -0.21943421400E+02  0.29620940296E+02  0.15857415274E+02 0.  0.
         22    1    3    3    0    0  0.11661641311E+02  0.29042837463E+01  0.60058588260E+02  0.61249185839E+02  0.00000000000E+00 0.  1.
         22    1    4    4    0    0  0.37530972814E+01  0.31660813690E+00 -0.68003580591E+01  0.77737281692E+01  0.00000000000E+00 0. -1.
         22    1    4    4    0    0 -0.15414738592E+02 -0.32208918832E+01 -0.15143063341E+02  0.21847212127E+02  0.00000000000E+00 0. -1.
<mgrwt>
<rscale>  0 0.82490084E+02</rscale>
<asrwt>0</asrwt>
<pdfrwt beam="2">  1        1 0.40580738E-02 0.82490084E+02</pdfrwt>
<pdfrwt beam="1">  1       -1 0.99219456E-02 0.82490084E+02</pdfrwt>
<totfact> 0.11305480E+05</totfact>
</mgrwt>
</event>
<event>
 7    1  0.3345055E-009  0.8881137E+02  0.7818608E-02  0.1305756E+00
         -1   -1    0    0    0  501 -0.00000000000E+00  0.00000000000E+00  0.76780527955E+01  0.76780544497E+01  0.50400000000E-02 0.  1.
          1   -1    0    0  501    0  0.00000000000E+00 -0.00000000000E+00 -0.25681830578E+03  0.25681830583E+03  0.50400000000E-02 0. -1.
         23    2    1    2    0    0  0.00000000000E+00 -0.35527136788E-14 -0.24914025298E+03  0.26449636028E+03  0.88811367198E+02 0.  0.
    9000005    2    3    3    0    0 -0.34577826703E+02 -0.24282196332E+02 -0.85937751252E+02  0.95913123479E+02  0.53646068866E+01 0.  0.
         22    1    3    3    0    0  0.34577826703E+02  0.24282196332E+02 -0.16320250173E+03  0.16858323680E+03  0.00000000000E+00 0. -1.
         22    1    4    4    0    0 -0.26536634616E+02 -0.17898458689E+02 -0.59727985672E+02  0.67764150350E+02  0.00000000000E+00 0. -1.
         22    1    4    4    0    0 -0.80411920868E+01 -0.63837376425E+01 -0.26209765580E+02  0.28148973129E+02  0.00000000000E+00 0. -1.
<mgrwt>
<rscale>  0 0.88811367E+02</rscale>
<asrwt>0</asrwt>
<pdfrwt beam="2">  1        1 0.39510502E-01 0.88811367E+02</pdfrwt>
<pdfrwt beam="1">  1       -1 0.11812392E-02 0.88811367E+02</pdfrwt>
<totfact> 0.13334116E+05</totfact>
</mgrwt>
</event>
<event>
 7    1  0.3345055E-009  0.9291980E+02  0.7818608E-02  0.1295931E+00
         -1   -1    0    0    0  501 -0.00000000000E+00  0.00000000000E+00  0.13282524813E+01  0.13282620433E+01  0.50400000000E-02 0.  1.
          1   -1    0    0  501    0  0.00000000000E+00 -0.00000000000E+00 -0.16250783750E+04  0.16250783750E+04  0.50400000000E-02 0. -1.
         23    2    1    2    0    0 -0.35527136788E-14  0.00000000000E+00 -0.16237501225E+04  0.16264066370E+04  0.92919796946E+02 0.  0.
    9000005    2    3    3    0    0  0.18242972931E+02  0.30938448409E+01 -0.15571093686E+04  0.15572447399E+04  0.89003465856E+01 0.  0.
         22    1    3    3    0    0 -0.18242972931E+02 -0.30938448409E+01 -0.66640753917E+02  0.69161897168E+02  0.00000000000E+00 0.  1.
         22    1    4    4    0    0  0.16066984606E+02  0.75688285008E+00 -0.14461095908E+04  0.14461990422E+04  0.00000000000E+00 0. -1.
         22    1    4    4    0    0  0.21759883243E+01  0.23369619908E+01 -0.11099977775E+03  0.11104569769E+03  0.00000000000E+00 0. -1.
<mgrwt>
<rscale>  0 0.92919797E+02</rscale>
<asrwt>0</asrwt>
<pdfrwt beam="2">  1        1 0.25001047E+00 0.92919797E+02</pdfrwt>
<pdfrwt beam="1">  1       -1 0.20434857E-03 0.92919797E+02</pdfrwt>
<totfact> 0.97817847E+04</totfact>
</mgrwt>
</event>
<event>
 7    1  0.3345055E-009  0.1027259E+03  0.7818608E-02  0.1274666E+00
         -1   -1    0    0    0  501 -0.00000000000E+00  0.00000000000E+00  0.56068533419E+02  0.56068533646E+02  0.50400000000E-02 0.  1.
          1   -1    0    0  501    0  0.00000000000E+00 -0.00000000000E+00 -0.47052323915E+02  0.47052324185E+02  0.50400000000E-02 0. -1.
         23    2    1    2    0    0  0.00000000000E+00  0.35527136788E-14  0.90162095039E+01  0.10312085783E+03  0.10272594261E+03 0.  0.
    9000005    2    3    3    0    0 -0.16375068666E+02  0.29427410551E+02 -0.32800900284E+02  0.49429275282E+02  0.15272158653E+02 0.  0.
         22    1    3    3    0    0  0.16375068666E+02 -0.29427410551E+02  0.41817109788E+02  0.53691582548E+02  0.00000000000E+00 0.  1.
         22    1    4    4    0    0 -0.11047016330E+02  0.61737594435E+01 -0.77660693096E+01  0.14848020339E+02  0.00000000000E+00 0. -1.
         22    1    4    4    0    0 -0.53280523359E+01  0.23253651108E+02 -0.25034830974E+02  0.34581254943E+02  0.00000000000E+00 0. -1.
<mgrwt>
<rscale>  0 0.10272594E+03</rscale>
<asrwt>0</asrwt>
<pdfrwt beam="2">  1        1 0.72388191E-02 0.10272594E+03</pdfrwt>
<pdfrwt beam="1">  1       -1 0.86259282E-02 0.10272594E+03</pdfrwt>
<totfact> 0.66277644E+04</totfact>
</mgrwt>
</event>
<event>
 7    1  0.3345055E-009  0.9051965E+02  0.7818608E-02  0.1301598E+00
         -1   -1    0    0    0  501 -0.00000000000E+00  0.00000000000E+00  0.19851945259E+02  0.19851945898E+02  0.50400000000E-02 0.  1.
          1   -1    0    0  501    0  0.00000000000E+00 -0.00000000000E+00 -0.10318644413E+03  0.10318644425E+03  0.50400000000E-02 0. -1.
         23    2    1    2    0    0  0.00000000000E+00  0.00000000000E+00 -0.83334498867E+02  0.12303839015E+03  0.90519648411E+02 0.  0.
    9000005    2    3    3    0    0  0.36246286015E+02 -0.22333748700E+02 -0.21485240545E+02  0.47952303980E+02  0.50217840364E+01 0.  0.
         22    1    3    3    0    0 -0.36246286015E+02  0.22333748700E+02 -0.61849258322E+02  0.75086086167E+02  0.00000000000E+00 0. -1.
         22    1    4    4    0    0  0.20864723474E+02 -0.12578807935E+02 -0.15039962397E+02  0.28631513471E+02  0.00000000000E+00 0.  1.
         22    1    4    4    0    0  0.15381562540E+02 -0.97549407645E+01 -0.64452781474E+01  0.19320790509E+02  0.00000000000E+00 0.  1.
<mgrwt>
<rscale>  0 0.90519648E+02</rscale>
<asrwt>0</asrwt>
<pdfrwt beam="2">  1        1 0.15874837E-01 0.90519648E+02</pdfrwt>
<pdfrwt beam="1">  1       -1 0.30541455E-02 0.90519648E+02</pdfrwt>
<totfact> 0.10708714E+05</totfact>
</mgrwt>
</event>
<event>
 7    1  0.3345055E-009  0.9240436E+02  0.7818608E-02  0.1297131E+00
         -1   -1    0    0    0  501 -0.00000000000E+00  0.00000000000E+00  0.39179515241E+01  0.39179547658E+01  0.50400000000E-02 0.  1.
          1   -1    0    0  501    0  0.00000000000E+00 -0.00000000000E+00 -0.54483592611E+03  0.54483592613E+03  0.50400000000E-02 0. -1.
         23    2    1    2    0    0  0.00000000000E+00 -0.35527136788E-14 -0.54091797458E+03  0.54875388090E+03  0.92404364462E+02 0.  0.
    9000005    2    3    3    0    0 -0.24288480242E+02 -0.20490798063E+02 -0.46819971670E+03  0.46939552842E+03  0.10553876441E+02 0.  0.
         22    1    3    3    0    0  0.24288480242E+02  0.20490798063E+02 -0.72718257885E+02  0.79358352475E+02  0.00000000000E+00 0.  1.
         22    1    4    4    0    0 -0.65168366690E+01 -0.25805231926E+01 -0.16460509591E+03  0.16475425900E+03  0.00000000000E+00 0.  1.
         22    1    4    4    0    0 -0.17771643573E+02 -0.17910274871E+02 -0.30359462079E+03  0.30464126942E+03  0.00000000000E+00 0.  1.
<mgrwt>
<rscale>  0 0.92404364E+02</rscale>
<asrwt>0</asrwt>
<pdfrwt beam="2">  1        1 0.83820852E-01 0.92404364E+02</pdfrwt>
<pdfrwt beam="1">  1       -1 0.60276246E-03 0.92404364E+02</pdfrwt>
<totfact> 0.13564385E+05</totfact>
</mgrwt>
</event>
<event>
 7    1  0.3345055E-009  0.9002060E+02  0.7818608E-02  0.1302802E+00
          1   -1    0    0  501    0  0.00000000000E+00  0.00000000000E+00  0.93319398584E+01  0.93319412194E+01  0.50400000000E-02 0. -1.
         -1   -1    0    0    0  501 -0.00000000000E+00 -0.00000000000E+00 -0.21709602759E+03  0.21709602765E+03  0.50400000000E-02 0.  1.
         23    2    1    2    0    0  0.17763568394E-14  0.11102230246E-15 -0.20776408773E+03  0.22642796887E+03  0.90020602834E+02 0.  0.
    9000005    2    3    3    0    0  0.11859541908E+02  0.67606347447E+00 -0.21265339242E+03  0.21358230437E+03  0.15963384219E+02 0.  0.
         22    1    3    3    0    0 -0.11859541908E+02 -0.67606347447E+00  0.48893046885E+01  0.12845664499E+02  0.00000000000E+00 0. -1.
         22    1    4    4    0    0  0.43689762812E+01  0.37602396720E+01 -0.21559646667E+02  0.22316937975E+02  0.00000000000E+00 0. -1.
         22    1    4    4    0    0  0.74905656264E+01 -0.30841761976E+01 -0.19109374575E+03  0.19126536639E+03  0.00000000000E+00 0. -1.
<mgrwt>
<rscale>  0 0.90020603E+02</rscale>
<asrwt>0</asrwt>
<pdfrwt beam="1">  1        1 0.14356833E-02 0.90020603E+02</pdfrwt>
<pdfrwt beam="2">  1       -1 0.33399385E-01 0.90020603E+02</pdfrwt>
<totfact> 0.70056685E+04</totfact>
</mgrwt>
</event>
<event>
 7    1  0.3707432E-009  0.8989800E+02  0.7818608E-02  0.1303099E+00
          1   -1    0    0  501    0  0.00000000000E+00  0.00000000000E+00  0.25508377043E+03  0.25508377048E+03  0.50400000000E-02 0. -1.
         -1   -1    0    0    0  501 -0.00000000000E+00 -0.00000000000E+00 -0.79205840111E+01  0.79205856146E+01  0.50400000000E-02 0.  1.
         23    2    1    2    0    0  0.35527136788E-14  0.00000000000E+00  0.24716318642E+03  0.26300435609E+03  0.89898001112E+02 0.  0.
    9000005    2    3    3    0    0  0.17340295365E+02 -0.35868195026E+02  0.75948377333E+02  0.87215493796E+02  0.15848440959E+02 0.  0.
         22    1    3    3    0    0 -0.17340295365E+02  0.35868195026E+02  0.17121480909E+03  0.17578886230E+03  0.00000000000E+00 0. -1.
         22    1    4    4    0    0  0.17338762394E+02 -0.28139995123E+02  0.48441477864E+02  0.58643574111E+02  0.00000000000E+00 0. -1.
         22    1    4    4    0    0  0.15329708728E-02 -0.77281999032E+01  0.27506899469E+02  0.28571919685E+02  0.00000000000E+00 0. -1.
<mgrwt>
<rscale>  0 0.89898001E+02</rscale>
<asrwt>0</asrwt>
<pdfrwt beam="1">  1        1 0.39243659E-01 0.89898001E+02</pdfrwt>
<pdfrwt beam="2">  1       -1 0.12185515E-02 0.89898001E+02</pdfrwt>
<totfact> 0.12892221E+05</totfact>
</mgrwt>
</event>
<event>
 7    1  0.3345055E-009  0.9223138E+02  0.7818608E-02  0.1297536E+00
         -1   -1    0    0    0  501 -0.00000000000E+00  0.00000000000E+00  0.23338586286E+02  0.23338586830E+02  0.50400000000E-02 0.  1.
          1   -1    0    0  501    0  0.00000000000E+00 -0.00000000000E+00 -0.91121925973E+02  0.91121926112E+02  0.50400000000E-02 0. -1.
         23    2    1    2    0    0 -0.17763568394E-14  0.35527136788E-14 -0.67783339687E+02  0.11446051294E+03  0.92231382316E+02 0.  0.
    9000005    2    3    3    0    0 -0.12786714734E+02  0.18825906948E+02 -0.83071482659E+02  0.87044419828E+02  0.12567614966E+02 0.  0.
         22    1    3    3    0    0  0.12786714734E+02 -0.18825906948E+02  0.15288142972E+02  0.27416093114E+02  0.00000000000E+00 0.  1.
         22    1    4    4    0    0 -0.24943396143E+01 -0.16850293678E+01 -0.82046490571E+01  0.87394118928E+01  0.00000000000E+00 0.  1.
         22    1    4    4    0    0 -0.10292375119E+02  0.20510936316E+02 -0.74866833602E+02  0.78305007936E+02  0.00000000000E+00 0.  1.
<mgrwt>
<rscale>  0 0.92231382E+02</rscale>
<asrwt>0</asrwt>
<pdfrwt beam="2">  1        1 0.14018758E-01 0.92231382E+02</pdfrwt>
<pdfrwt beam="1">  1       -1 0.35905518E-02 0.92231382E+02</pdfrwt>
<totfact> 0.99678512E+04</totfact>
</mgrwt>
</event>
<event>
 7    1  0.3345055E-009  0.9222054E+02  0.7818608E-02  0.1297562E+00
          1   -1    0    0  501    0  0.00000000000E+00  0.00000000000E+00  0.32513515459E+01  0.32513554522E+01  0.50400000000E-02 0. -1.
         -1   -1    0    0    0  501 -0.00000000000E+00 -0.00000000000E+00 -0.65392984612E+03  0.65392984613E+03  0.50400000000E-02 0.  1.
         23    2    1    2    0    0  0.00000000000E+00  0.00000000000E+00 -0.65067849457E+03  0.65718120159E+03  0.92220542311E+02 0.  0.
    9000005    2    3    3    0    0 -0.34285530230E+02 -0.26941517958E+02 -0.41978183445E+03  0.42220330767E+03  0.11726103547E+02 0.  0.
         22    1    3    3    0    0  0.34285530230E+02  0.26941517958E+02 -0.23089666012E+03  0.23497789391E+03  0.00000000000E+00 0. -1.
         22    1    4    4    0    0 -0.28717542071E+02 -0.16600839744E+02 -0.28988485819E+03  0.29177648313E+03  0.00000000000E+00 0.  1.
         22    1    4    4    0    0 -0.55679881589E+01 -0.10340678214E+02 -0.12989697626E+03  0.13042682454E+03  0.00000000000E+00 0.  1.
<mgrwt>
<rscale>  0 0.92220542E+02</rscale>
<asrwt>0</asrwt>
<pdfrwt beam="1">  1        1 0.50020875E-03 0.92220542E+02</pdfrwt>
<pdfrwt beam="2">  1       -1 0.10060449E+00 0.92220542E+02</pdfrwt>
<totfact> 0.37823955E+04</totfact>
</mgrwt>
</event>
<event>
 7    1  0.3345055E-009  0.9111686E+02  0.7818608E-02  0.1300169E+00
          1   -1    0    0  501    0  0.00000000000E+00  0.00000000000E+00  0.16652801494E+03  0.16652801501E+03  0.50400000000E-02 0. -1.
         -1   -1    0    0    0  501 -0.00000000000E+00 -0.00000000000E+00 -0.12463790204E+02  0.12463791223E+02  0.50400000000E-02 0.  1.
         23    2    1    2    0    0  0.00000000000E+00  0.00000000000E+00  0.15406422473E+03  0.17899180624E+03  0.91116855506E+02 0.  0.
    9000005    2    3    3    0    0 -0.83155737045E+01 -0.39928529170E+02  0.39338328359E+02  0.57231929814E+02  0.80345195535E+01 0.  0.
         22    1    3    3    0    0  0.83155737045E+01  0.39928529170E+02  0.11472589637E+03  0.12175987642E+03  0.00000000000E+00 0. -1.
         22    1    4    4    0    0 -0.98932420527E+01 -0.33064204355E+02  0.33204368186E+02  0.47892044377E+02  0.00000000000E+00 0. -1.
         22    1    4    4    0    0  0.15776683482E+01 -0.68643248144E+01  0.61339601739E+01  0.93398854377E+01  0.00000000000E+00 0. -1.
<mgrwt>
<rscale>  0 0.91116856E+02</rscale>
<asrwt>0</asrwt>
<pdfrwt beam="1">  1        1 0.25619693E-01 0.91116856E+02</pdfrwt>
<pdfrwt beam="2">  1       -1 0.19175064E-02 0.91116856E+02</pdfrwt>
<totfact> 0.11453411E+05</totfact>
</mgrwt>
</event>
<event>
 6    1  0.3345055E-009  0.2069459E+03  0.7818608E-02  0.1144008E+00
          1   -1    0    0  501    0  0.00000000000E+00  0.00000000000E+00  0.59201054800E+02  0.59201055015E+02  0.50400000000E-02 0. -1.
         -1   -1    0    0    0  501 -0.00000000000E+00 -0.00000000000E+00 -0.18085240235E+03  0.18085240242E+03  0.50400000000E-02 0.  1.
    9000005    2    1    2    0    0 -0.83478269896E+02  0.59896661882E+02 -0.49079673096E+02  0.11426442937E+03  0.95558284981E+01 0.  0.
         22    1    1    2    0    0  0.83478269896E+02 -0.59896661882E+02 -0.72571674458E+02  0.12578902807E+03  0.00000000000E+00 0.  1.
         22    1    3    3    0    0 -0.63798380498E+02  0.44740087828E+02 -0.32671968382E+02  0.84494771028E+02  0.00000000000E+00 0.  1.
         22    1    3    3    0    0 -0.19679889398E+02  0.15156574054E+02 -0.16407704713E+02  0.29769658340E+02  0.00000000000E+00 0.  1.
<mgrwt>
<rscale>  0 0.20694592E+03</rscale>
<asrwt>0</asrwt>
<pdfrwt beam="1">  1        1 0.91078547E-02 0.20694592E+03</pdfrwt>
<pdfrwt beam="2">  1       -1 0.27823446E-01 0.20694592E+03</pdfrwt>
<totfact> 0.82415923E+03</totfact>
</mgrwt>
</event>
<event>
 7    1  0.3345055E-009  0.8948624E+02  0.7818608E-02  0.1304101E+00
         -1   -1    0    0    0  501 -0.00000000000E+00  0.00000000000E+00  0.10813546596E+03  0.10813546607E+03  0.50400000000E-02 0.  1.
          1   -1    0    0  501    0  0.00000000000E+00 -0.00000000000E+00 -0.18513323140E+02  0.18513323826E+02  0.50400000000E-02 0. -1.
         23    2    1    2    0    0  0.00000000000E+00 -0.35527136788E-14  0.89622142816E+02  0.12664878990E+03  0.89486241961E+02 0.  0.
    9000005    2    3    3    0    0  0.34116237123E+02  0.26880507082E+02  0.47451107831E+02  0.66110574795E+02  0.15248644824E+02 0.  0.
         22    1    3    3    0    0 -0.34116237123E+02 -0.26880507082E+02  0.42171034986E+02  0.60538215106E+02  0.00000000000E+00 0.  1.
         22    1    4    4    0    0  0.51009014691E+01  0.44588591059E+01  0.87394590880E+00  0.68311347355E+01  0.00000000000E+00 0. -1.
         22    1    4    4    0    0  0.29015335654E+02  0.22421647976E+02  0.46577161922E+02  0.59279440059E+02  0.00000000000E+00 0. -1.
<mgrwt>
<rscale>  0 0.89486242E+02</rscale>
<asrwt>0</asrwt>
<pdfrwt beam="2">  1        1 0.28482037E-02 0.89486242E+02</pdfrwt>
<pdfrwt beam="1">  1       -1 0.16636225E-01 0.89486242E+02</pdfrwt>
<totfact> 0.84134003E+04</totfact>
</mgrwt>
</event>
<event>
 7    1  0.3345055E-009  0.9240544E+02  0.7818608E-02  0.1297129E+00
         -1   -1    0    0    0  501 -0.00000000000E+00  0.00000000000E+00  0.56088180339E+02  0.56088180565E+02  0.50400000000E-02 0.  1.
          1   -1    0    0  501    0  0.00000000000E+00 -0.00000000000E+00 -0.38059554409E+02  0.38059554742E+02  0.50400000000E-02 0. -1.
         23    2    1    2    0    0  0.00000000000E+00  0.00000000000E+00  0.18028625930E+02  0.94147735307E+02  0.92405436586E+02 0.  0.
    9000005    2    3    3    0    0 -0.42119153921E+01 -0.29875612099E+02 -0.26385630685E+02  0.40454918095E+02  0.54869355616E+01 0.  0.
         22    1    3    3    0    0  0.42119153921E+01  0.29875612099E+02  0.44414256615E+02  0.53692817213E+02  0.00000000000E+00 0.  1.
         22    1    4    4    0    0  0.30310830121E+00 -0.53872664549E+01 -0.73165933115E+01  0.90910424146E+01  0.00000000000E+00 0.  1.
         22    1    4    4    0    0 -0.45150236934E+01 -0.24488345644E+02 -0.19069037374E+02  0.31363875680E+02  0.00000000000E+00 0.  1.
<mgrwt>
<rscale>  0 0.92405437E+02</rscale>
<asrwt>0</asrwt>
<pdfrwt beam="2">  1        1 0.58553161E-02 0.92405437E+02</pdfrwt>
<pdfrwt beam="1">  1       -1 0.86289508E-02 0.92405437E+02</pdfrwt>
<totfact> 0.86624829E+04</totfact>
</mgrwt>
</event>
<event>
 7    1  0.3345055E-009  0.8859493E+02  0.7818608E-02  0.1306290E+00
          1   -1    0    0  501    0  0.00000000000E+00  0.00000000000E+00  0.33898182171E+03  0.33898182175E+03  0.50400000000E-02 0. -1.
         -1   -1    0    0    0  501 -0.00000000000E+00 -0.00000000000E+00 -0.57887027436E+01  0.57887049377E+01  0.50400000000E-02 0.  1.
         23    2    1    2    0    0  0.71054273576E-14  0.00000000000E+00  0.33319311897E+03  0.34477052668E+03  0.88594929562E+02 0.  0.
    9000005    2    3    3    0    0  0.33374582467E+02  0.26672677049E+01  0.27745487149E+03  0.27974953543E+03  0.12554671994E+02 0.  0.
         22    1    3    3    0    0 -0.33374582467E+02 -0.26672677049E+01  0.55738247477E+02  0.65020991254E+02  0.00000000000E+00 0.  1.
         22    1    4    4    0    0  0.18277030206E+02 -0.25154192342E+01  0.18593446600E+03  0.18684753896E+03  0.00000000000E+00 0. -1.
         22    1    4    4    0    0  0.15097552261E+02  0.51826869391E+01  0.91520405484E+02  0.92901996470E+02  0.00000000000E+00 0. -1.
<mgrwt>
<rscale>  0 0.88594930E+02</rscale>
<asrwt>0</asrwt>
<pdfrwt beam="1">  1        1 0.52151066E-01 0.88594930E+02</pdfrwt>
<pdfrwt beam="2">  1       -1 0.89056955E-03 0.88594930E+02</pdfrwt>
<totfact> 0.14146307E+05</totfact>
</mgrwt>
</event>
<event>
 7    1  0.3345055E-009  0.1044298E+03  0.7818608E-02  0.1271247E+00
          1   -1    0    0  501    0  0.00000000000E+00  0.00000000000E+00  0.10384514413E+04  0.10384514414E+04  0.50400000000E-02 0. -1.
         -1   -1    0    0    0  501 -0.00000000000E+00 -0.00000000000E+00 -0.26254427787E+01  0.26254476163E+01  0.50400000000E-02 0.  1.
         23    2    1    2    0    0  0.00000000000E+00  0.00000000000E+00  0.10358259986E+04  0.10410768890E+04  0.10442983026E+03 0.  0.
    9000005    2    3    3    0    0  0.12253555615E+02  0.42352352938E+02  0.78693687354E+03  0.78831283302E+03  0.14953539585E+02 0.  0.
         22    1    3    3    0    0 -0.12253555615E+02 -0.42352352938E+02  0.24888912503E+03  0.25276405595E+03  0.00000000000E+00 0. -1.
         22    1    4    4    0    0  0.74696210751E+01  0.30783614404E+02  0.43423794498E+03  0.43539179944E+03  0.00000000000E+00 0.  1.
         22    1    4    4    0    0  0.47839345403E+01  0.11568738533E+02  0.35269892856E+03  0.35292103358E+03  0.00000000000E+00 0.  1.
<mgrwt>
<rscale>  0 0.10442983E+03</rscale>
<asrwt>0</asrwt>
<pdfrwt beam="1">  1        1 0.15976214E+00 0.10442983E+03</pdfrwt>
<pdfrwt beam="2">  1       -1 0.40391369E-03 0.10442983E+03</pdfrwt>
<totfact> 0.93780022E+04</totfact>
</mgrwt>
</event>
<event>
 7    1  0.3345055E-009  0.8753829E+02  0.7818608E-02  0.1308925E+00
         -1   -1    0    0    0  501 -0.00000000000E+00  0.00000000000E+00  0.45082699505E+02  0.45082699786E+02  0.50400000000E-02 0.  1.
          1   -1    0    0  501    0  0.00000000000E+00 -0.00000000000E+00 -0.42493863046E+02  0.42493863345E+02  0.50400000000E-02 0. -1.
         23    2    1    2    0    0  0.00000000000E+00  0.71054273576E-14  0.25888364587E+01  0.87576563131E+02  0.87538290683E+02 0.  0.
    9000005    2    3    3    0    0 -0.11688711678E+02 -0.34313717916E+02 -0.21176668031E+02  0.44230785695E+02  0.13923143194E+02 0.  0.
         22    1    3    3    0    0  0.11688711678E+02  0.34313717916E+02  0.23765504490E+02  0.43345777436E+02  0.00000000000E+00 0.  1.
         22    1    4    4    0    0 -0.11127797193E+02 -0.11576677491E+02 -0.96262753067E+01  0.18721979286E+02  0.00000000000E+00 0.  1.
         22    1    4    4    0    0 -0.56091448530E+00 -0.22737040425E+02 -0.11550392724E+02  0.25508806409E+02  0.00000000000E+00 0.  1.
<mgrwt>
<rscale>  0 0.87538291E+02</rscale>
<asrwt>0</asrwt>
<pdfrwt beam="2">  1        1 0.65375174E-02 0.87538291E+02</pdfrwt>
<pdfrwt beam="1">  1       -1 0.69358000E-02 0.87538291E+02</pdfrwt>
<totfact> 0.10256789E+05</totfact>
</mgrwt>
</event>
<event>
 7    1  0.3345055E-009  0.8971243E+02  0.7818608E-02  0.1303550E+00
          1   -1    0    0  501    0  0.00000000000E+00  0.00000000000E+00  0.21666096288E+02  0.21666096875E+02  0.50400000000E-02 0. -1.
         -1   -1    0    0    0  501 -0.00000000000E+00 -0.00000000000E+00 -0.92867668118E+02  0.92867668254E+02  0.50400000000E-02 0.  1.
         23    2    1    2    0    0  0.35527136788E-14  0.71054273576E-14 -0.71201571829E+02  0.11453376513E+03  0.89712426807E+02 0.  0.
    9000005    2    3    3    0    0  0.29350789420E+02  0.31902968889E+02 -0.21677658000E+02  0.48716698159E+02  0.49119812324E+01 0.  0.
         22    1    3    3    0    0 -0.29350789420E+02 -0.31902968889E+02 -0.49523913829E+02  0.65817066970E+02  0.00000000000E+00 0.  1.
         22    1    4    4    0    0  0.29163509496E+02  0.31984371830E+02 -0.21199530606E+02  0.48196788538E+02  0.00000000000E+00 0.  1.
         22    1    4    4    0    0  0.18727992418E+00 -0.81402940790E-01 -0.47812739448E+00  0.51990962111E+00  0.00000000000E+00 0.  1.
<mgrwt>
<rscale>  0 0.89712427E+02</rscale>
<asrwt>0</asrwt>
<pdfrwt beam="1">  1        1 0.33332457E-02 0.89712427E+02</pdfrwt>
<pdfrwt beam="2">  1       -1 0.14287333E-01 0.89712427E+02</pdfrwt>
<totfact> 0.85980135E+04</totfact>
</mgrwt>
</event>
<event>
 7    1  0.3345055E-009  0.9497484E+02  0.7818608E-02  0.1291233E+00
         -1   -1    0    0    0  501 -0.00000000000E+00  0.00000000000E+00  0.19716035558E+03  0.19716035565E+03  0.50400000000E-02 0.  1.
          1   -1    0    0  501    0  0.00000000000E+00 -0.00000000000E+00 -0.11437668282E+02  0.11437669392E+02  0.50400000000E-02 0. -1.
         23    2    1    2    0    0  0.71054273576E-14  0.00000000000E+00  0.18572268730E+03  0.20859802504E+03  0.94974835993E+02 0.  0.
    9000005    2    3    3    0    0  0.37025795686E+02 -0.14233546993E+02  0.43122176684E+02  0.60583130402E+02  0.15404225434E+02 0.  0.
         22    1    3    3    0    0 -0.37025795686E+02  0.14233546993E+02  0.14260051062E+03  0.14801489464E+03  0.00000000000E+00 0.  1.
         22    1    4    4    0    0  0.19362499279E+02 -0.12565170078E+02  0.32636972466E+02  0.39974514997E+02  0.00000000000E+00 0.  1.
         22    1    4    4    0    0  0.17663296406E+02 -0.16683769151E+01  0.10485204218E+02  0.20608615406E+02  0.00000000000E+00 0.  1.
<mgrwt>
<rscale>  0 0.94974836E+02</rscale>
<asrwt>0</asrwt>
<pdfrwt beam="2">  1        1 0.17596413E-02 0.94974836E+02</pdfrwt>
<pdfrwt beam="1">  1       -1 0.30332364E-01 0.94974836E+02</pdfrwt>
<totfact> 0.62664554E+04</totfact>
</mgrwt>
</event>
<event>
 7    1  0.3345055E-009  0.8839057E+02  0.7818608E-02  0.1306797E+00
          1   -1    0    0  501    0  0.00000000000E+00  0.00000000000E+00  0.11556166949E+02  0.11556168048E+02  0.50400000000E-02 0. -1.
         -1   -1    0    0    0  501 -0.00000000000E+00 -0.00000000000E+00 -0.16901998738E+03  0.16901998746E+03  0.50400000000E-02 0.  1.
         23    2    1    2    0    0  0.00000000000E+00 -0.44408920985E-15 -0.15746382043E+03  0.18057615550E+03  0.88390571848E+02 0.  0.
    9000005    2    3    3    0    0 -0.39324976611E+02 -0.26443853237E+01 -0.11645577033E+03  0.12369815683E+03  0.13632351324E+02 0.  0.
         22    1    3    3    0    0  0.39324976611E+02  0.26443853237E+01 -0.41008050106E+02  0.56877998670E+02  0.00000000000E+00 0. -1.
         22    1    4    4    0    0 -0.70199176074E+01  0.17891675157E+01 -0.99181742036E+01  0.12282122909E+02  0.00000000000E+00 0. -1.
         22    1    4    4    0    0 -0.32305059004E+02 -0.44335528394E+01 -0.10653759612E+03  0.11141603393E+03  0.00000000000E+00 0. -1.
<mgrwt>
<rscale>  0 0.88390572E+02</rscale>
<asrwt>0</asrwt>
<pdfrwt beam="1">  1        1 0.17778721E-02 0.88390572E+02</pdfrwt>
<pdfrwt beam="2">  1       -1 0.26003073E-01 0.88390572E+02</pdfrwt>
<totfact> 0.78739256E+04</totfact>
</mgrwt>
</event>
<event>
 7    1  0.3345055E-009  0.9388940E+02  0.7818608E-02  0.1293697E+00
         -1   -1    0    0    0  501 -0.00000000000E+00  0.00000000000E+00  0.13752240756E+02  0.13752241680E+02  0.50400000000E-02 0.  1.
          1   -1    0    0  501    0  0.00000000000E+00 -0.00000000000E+00 -0.16025059044E+03  0.16025059052E+03  0.50400000000E-02 0. -1.
         23    2    1    2    0    0 -0.71054273576E-14  0.00000000000E+00 -0.14649834968E+03  0.17400283220E+03  0.93889398513E+02 0.  0.
    9000005    2    3    3    0    0  0.34407726261E+02 -0.10023168535E+02 -0.12893532296E+03  0.13409274022E+03  0.84964663246E+01 0.  0.
         22    1    3    3    0    0 -0.34407726261E+02  0.10023168535E+02 -0.17563026727E+02  0.39910091978E+02  0.00000000000E+00 0.  1.
         22    1    4    4    0    0  0.28455661676E+02 -0.87254007732E+01 -0.93056204117E+02  0.97700124998E+02  0.00000000000E+00 0. -1.
         22    1    4    4    0    0  0.59520645846E+01 -0.12977677619E+01 -0.35879118840E+02  0.36392615222E+02  0.00000000000E+00 0. -1.
<mgrwt>
<rscale>  0 0.93889399E+02</rscale>
<asrwt>0</asrwt>
<pdfrwt beam="2">  1        1 0.24653936E-01 0.93889399E+02</pdfrwt>
<pdfrwt beam="1">  1       -1 0.21157295E-02 0.93889399E+02</pdfrwt>
<totfact> 0.10487282E+05</totfact>
</mgrwt>
</event>
<event>
 7    1  0.3345055E-009  0.9005088E+02  0.7818608E-02  0.1302729E+00
         -1   -1    0    0    0  501 -0.00000000000E+00  0.00000000000E+00  0.76694458416E+01  0.76694474976E+01  0.50400000000E-02 0.  1.
          1   -1    0    0  501    0  0.00000000000E+00 -0.00000000000E+00 -0.26433331118E+03  0.26433331123E+03  0.50400000000E-02 0. -1.
         23    2    1    2    0    0  0.00000000000E+00 -0.17763568394E-14 -0.25666386534E+03  0.27200275872E+03  0.90050879973E+02 0.  0.
    9000005    2    3    3    0    0 -0.40654172552E+02  0.85262168679E+01 -0.88221510963E+02  0.98514185997E+02  0.14019690656E+02 0.  0.
         22    1    3    3    0    0  0.40654172552E+02 -0.85262168679E+01 -0.16844235437E+03  0.17348857273E+03  0.00000000000E+00 0. -1.
         22    1    4    4    0    0 -0.20526869128E+02  0.11403416413E+02 -0.45550138776E+02  0.51246516024E+02  0.00000000000E+00 0. -1.
         22    1    4    4    0    0 -0.20127303423E+02 -0.28771995454E+01 -0.42671372187E+02  0.47267669973E+02  0.00000000000E+00 0. -1.
<mgrwt>
<rscale>  0 0.90050880E+02</rscale>
<asrwt>0</asrwt>
<pdfrwt beam="2">  1        1 0.40666656E-01 0.90050880E+02</pdfrwt>
<pdfrwt beam="1">  1       -1 0.11799151E-02 0.90050880E+02</pdfrwt>
<totfact> 0.12923483E+05</totfact>
</mgrwt>
</event>
<event>
 7    1  0.3345055E-009  0.9596739E+02  0.7818608E-02  0.1289012E+00
          1   -1    0    0  501    0  0.00000000000E+00  0.00000000000E+00  0.52029218248E+03  0.52029218251E+03  0.50400000000E-02 0. -1.
         -1   -1    0    0    0  501 -0.00000000000E+00 -0.00000000000E+00 -0.44252720688E+01  0.44252749389E+01  0.50400000000E-02 0.  1.
         23    2    1    2    0    0  0.00000000000E+00  0.00000000000E+00  0.51586691042E+03  0.52471745745E+03  0.95967394925E+02 0.  0.
    9000005    2    3    3    0    0 -0.29333069753E+02  0.36318320332E+02  0.23546296007E+03  0.24045380388E+03  0.13992028459E+02 0.  0.
         22    1    3    3    0    0  0.29333069753E+02 -0.36318320332E+02  0.28040395034E+03  0.28426365357E+03  0.00000000000E+00 0. -1.
         22    1    4    4    0    0 -0.26836846644E+02  0.32814920759E+02  0.18439804371E+03  0.18920801750E+03  0.00000000000E+00 0. -1.
         22    1    4    4    0    0 -0.24962231086E+01  0.35033995727E+01  0.51064916363E+02  0.51245786378E+02  0.00000000000E+00 0. -1.
<mgrwt>
<rscale>  0 0.95967395E+02</rscale>
<asrwt>0</asrwt>
<pdfrwt beam="1">  1        1 0.80044959E-01 0.95967395E+02</pdfrwt>
<pdfrwt beam="2">  1       -1 0.68081124E-03 0.95967395E+02</pdfrwt>
<totfact> 0.12209780E+05</totfact>
</mgrwt>
</event>
<event>
 7    1  0.3345055E-009  0.9306592E+02  0.7818608E-02  0.1295592E+00
          1   -1    0    0  501    0  0.00000000000E+00  0.00000000000E+00  0.73159042537E+02  0.73159042711E+02  0.50400000000E-02 0. -1.
         -1   -1    0    0    0  501 -0.00000000000E+00 -0.00000000000E+00 -0.29597384625E+02  0.29597385054E+02  0.50400000000E-02 0.  1.
         23    2    1    2    0    0  0.00000000000E+00  0.17763568394E-14  0.43561657912E+02  0.10275642776E+03  0.93065919685E+02 0.  0.
    9000005    2    3    3    0    0 -0.33644635857E+02 -0.10881289106E+02 -0.92574149344E+01  0.39193715181E+02  0.14145091156E+02 0.  0.
         22    1    3    3    0    0  0.33644635857E+02  0.10881289106E+02  0.52819072847E+02  0.63562712583E+02  0.00000000000E+00 0. -1.
         22    1    4    4    0    0 -0.30585359778E+02 -0.14051285963E+02 -0.85954153949E+01  0.34738797270E+02  0.00000000000E+00 0. -1.
         22    1    4    4    0    0 -0.30592760799E+01  0.31699968567E+01 -0.66199953952E+00  0.44549179111E+01  0.00000000000E+00 0. -1.
<mgrwt>
<rscale>  0 0.93065920E+02</rscale>
<asrwt>0</asrwt>
<pdfrwt beam="1">  1        1 0.11255237E-01 0.93065920E+02</pdfrwt>
<pdfrwt beam="2">  1       -1 0.45534439E-02 0.93065920E+02</pdfrwt>
<totfact> 0.93876886E+04</totfact>
</mgrwt>
</event>
<event>
 7    1  0.3345055E-009  0.9045148E+02  0.7818608E-02  0.1301762E+00
          1   -1    0    0  501    0  0.00000000000E+00  0.00000000000E+00  0.49969469980E+01  0.49969495397E+01  0.50400000000E-02 0. -1.
         -1   -1    0    0    0  501 -0.00000000000E+00 -0.00000000000E+00 -0.40932332022E+03  0.40932332025E+03  0.50400000000E-02 0.  1.
         23    2    1    2    0    0  0.00000000000E+00  0.00000000000E+00 -0.40432637322E+03  0.41432026979E+03  0.90451478023E+02 0.  0.
    9000005    2    3    3    0    0  0.33886999448E+02  0.29492766690E+02 -0.20252582000E+03  0.20757981584E+03  0.73837767616E+01 0.  0.
         22    1    3    3    0    0 -0.33886999448E+02 -0.29492766690E+02 -0.20180055322E+03  0.20674045395E+03  0.00000000000E+00 0.  1.
         22    1    4    4    0    0  0.27288886214E+02  0.22541411693E+02 -0.14476198895E+03  0.14902627955E+03  0.00000000000E+00 0.  1.
         22    1    4    4    0    0  0.65981132344E+01  0.69513549973E+01 -0.57763831051E+02  0.58553536291E+02  0.00000000000E+00 0.  1.
<mgrwt>
<rscale>  0 0.90451478E+02</rscale>
<asrwt>0</asrwt>
<pdfrwt beam="1">  1        1 0.76876160E-03 0.90451478E+02</pdfrwt>
<pdfrwt beam="2">  1       -1 0.62972792E-01 0.90451478E+02</pdfrwt>
<totfact> 0.53780117E+04</totfact>
</mgrwt>
</event>
<event>
 7    1  0.3345055E-009  0.9121890E+02  0.7818608E-02  0.1299927E+00
          1   -1    0    0  501    0  0.00000000000E+00  0.00000000000E+00  0.17727589750E+02  0.17727590467E+02  0.50400000000E-02 0. -1.
         -1   -1    0    0    0  501 -0.00000000000E+00 -0.00000000000E+00 -0.11734374421E+03  0.11734374431E+03  0.50400000000E-02 0.  1.
         23    2    1    2    0    0 -0.35527136788E-14  0.00000000000E+00 -0.99616154455E+02  0.13507133478E+03  0.91218897444E+02 0.  0.
    9000005    2    3    3    0    0 -0.26969951896E+02  0.11163003000E+02 -0.51134565009E+00  0.31757472838E+02  0.12501386540E+02 0.  0.
         22    1    3    3    0    0  0.26969951896E+02 -0.11163003000E+02 -0.99104808805E+02  0.10331386194E+03  0.00000000000E+00 0.  1.
         22    1    4    4    0    0 -0.17947622353E+02  0.12604199692E+01  0.20835528530E+01  0.18112067776E+02  0.00000000000E+00 0. -1.
         22    1    4    4    0    0 -0.90223295432E+01  0.99025830308E+01 -0.25948985031E+01  0.13645405062E+02  0.00000000000E+00 0. -1.
<mgrwt>
<rscale>  0 0.91218897E+02</rscale>
<asrwt>0</asrwt>
<pdfrwt beam="1">  1        1 0.27273216E-02 0.91218897E+02</pdfrwt>
<pdfrwt beam="2">  1       -1 0.18052883E-01 0.91218897E+02</pdfrwt>
<totfact> 0.78794712E+04</totfact>
</mgrwt>
</event>
<event>
 7    1  0.3345055E-009  0.9326961E+02  0.7818608E-02  0.1295122E+00
         -1   -1    0    0    0  501 -0.00000000000E+00  0.00000000000E+00  0.43068297063E+02  0.43068297358E+02  0.50400000000E-02 0.  1.
          1   -1    0    0  501    0  0.00000000000E+00 -0.00000000000E+00 -0.50496653149E+02  0.50496653400E+02  0.50400000000E-02 0. -1.
         23    2    1    2    0    0  0.00000000000E+00  0.00000000000E+00 -0.74283560852E+01  0.93564950758E+02  0.93269606712E+02 0.  0.
    9000005    2    3    3    0    0 -0.37234329636E+02 -0.11985831391E+02  0.19526601137E+02  0.46061001697E+02  0.14500767834E+02 0.  0.
         22    1    3    3    0    0  0.37234329636E+02  0.11985831391E+02 -0.26954957223E+02  0.47503949061E+02  0.00000000000E+00 0. -1.
         22    1    4    4    0    0 -0.61951577070E+01 -0.45600204121E+01  0.10268389091E+02  0.12830182372E+02  0.00000000000E+00 0. -1.
         22    1    4    4    0    0 -0.31039171929E+02 -0.74258109791E+01  0.92582120466E+01  0.33230819325E+02  0.00000000000E+00 0. -1.
<mgrwt>
<rscale>  0 0.93269607E+02</rscale>
<asrwt>0</asrwt>
<pdfrwt beam="2">  1        1 0.77687159E-02 0.93269607E+02</pdfrwt>
<pdfrwt beam="1">  1       -1 0.66258919E-02 0.93269607E+02</pdfrwt>
<totfact> 0.88118574E+04</totfact>
</mgrwt>
</event>
<event>
 7    1  0.3345055E-009  0.9097884E+02  0.7818608E-02  0.1300498E+00
          1   -1    0    0  501    0  0.00000000000E+00  0.00000000000E+00  0.45765696994E+01  0.45765724746E+01  0.50400000000E-02 0. -1.
         -1   -1    0    0    0  501 -0.00000000000E+00 -0.00000000000E+00 -0.45214793657E+03  0.45214793659E+03  0.50400000000E-02 0.  1.
         23    2    1    2    0    0  0.35527136788E-14 -0.35527136788E-14 -0.44757136687E+03  0.45672450907E+03  0.90978836799E+02 0.  0.
    9000005    2    3    3    0    0  0.27151925998E+02 -0.17773510660E+02 -0.38237514884E+03  0.38389819781E+03  0.10674599030E+02 0.  0.
         22    1    3    3    0    0 -0.27151925998E+02  0.17773510660E+02 -0.65196218024E+02  0.72826311257E+02  0.00000000000E+00 0. -1.
         22    1    4    4    0    0  0.23518162039E+02 -0.18963116122E+02 -0.32777022309E+03  0.32915957052E+03  0.00000000000E+00 0.  1.
         22    1    4    4    0    0  0.36337639591E+01  0.11896054619E+01 -0.54604925755E+02  0.54738627297E+02  0.00000000000E+00 0.  1.
<mgrwt>
<rscale>  0 0.90978837E+02</rscale>
<asrwt>0</asrwt>
<pdfrwt beam="1">  1        1 0.70408822E-03 0.90978837E+02</pdfrwt>
<pdfrwt beam="2">  1       -1 0.69561186E-01 0.90978837E+02</pdfrwt>
<totfact> 0.50202298E+04</totfact>
</mgrwt>
</event>
<event>
 7    1  0.3446715E-009  0.9093334E+02  0.7818608E-02  0.1300607E+00
          1   -1    0    0  501    0  0.00000000000E+00  0.00000000000E+00  0.12929120351E+04  0.12929120351E+04  0.50400000000E-02 0. -1.
         -1   -1    0    0    0  501 -0.00000000000E+00 -0.00000000000E+00 -0.15988811875E+01  0.15988891310E+01  0.50400000000E-02 0.  1.
         23    2    1    2    0    0 -0.35527136788E-14  0.00000000000E+00  0.12913131539E+04  0.12945109242E+04  0.90933335534E+02 0.  0.
    9000005    2    3    3    0    0 -0.27011923069E+02  0.17466287843E+02  0.10973116139E+04  0.10978606949E+04  0.13061855138E+02 0.  0.
         22    1    3    3    0    0  0.27011923069E+02 -0.17466287843E+02  0.19400153999E+03  0.19665022938E+03  0.00000000000E+00 0.  1.
         22    1    4    4    0    0 -0.18105517677E+02  0.11943894328E+02  0.90817601968E+03  0.90843499993E+03  0.00000000000E+00 0. -1.
         22    1    4    4    0    0 -0.89064053919E+01  0.55223935148E+01  0.18913559425E+03  0.18942569493E+03  0.00000000000E+00 0. -1.
<mgrwt>
<rscale>  0 0.90933336E+02</rscale>
<asrwt>0</asrwt>
<pdfrwt beam="1">  1        1 0.19891014E+00 0.90933336E+02</pdfrwt>
<pdfrwt beam="2">  1       -1 0.24598159E-03 0.90933336E+02</pdfrwt>
<totfact> 0.12332287E+05</totfact>
</mgrwt>
</event>
<event>
 7    1  0.3345055E-009  0.8324055E+02  0.7818608E-02  0.1320099E+00
         -1   -1    0    0    0  501 -0.00000000000E+00  0.00000000000E+00  0.67129334589E+01  0.67129353509E+01  0.50400000000E-02 0.  1.
          1   -1    0    0  501    0  0.00000000000E+00 -0.00000000000E+00 -0.25804619839E+03  0.25804619844E+03  0.50400000000E-02 0. -1.
         23    2    1    2    0    0  0.00000000000E+00 -0.71054273576E-14 -0.25133326493E+03  0.26475913379E+03  0.83240548199E+02 0.  0.
    9000005    2    3    3    0    0  0.36786223380E+01 -0.38419547713E+02 -0.84645194916E+02  0.93661189343E+02  0.10863491975E+02 0.  0.
         22    1    3    3    0    0 -0.36786223380E+01  0.38419547713E+02 -0.16668807002E+03  0.17109794445E+03  0.00000000000E+00 0. -1.
         22    1    4    4    0    0  0.19547885940E+01 -0.34472377668E+02 -0.80874732075E+02  0.87936842727E+02  0.00000000000E+00 0. -1.
         22    1    4    4    0    0  0.17238337440E+01 -0.39471700454E+01 -0.37704628410E+01  0.57243466159E+01  0.00000000000E+00 0. -1.
<mgrwt>
<rscale>  0 0.83240548E+02</rscale>
<asrwt>0</asrwt>
<pdfrwt beam="2">  1        1 0.39699408E-01 0.83240548E+02</pdfrwt>
<pdfrwt beam="1">  1       -1 0.10327593E-02 0.83240548E+02</pdfrwt>
<totfact> 0.15848812E+05</totfact>
</mgrwt>
</event>
<event>
 7    1  0.3345055E-009  0.9277841E+02  0.7818608E-02  0.1296260E+00
          1   -1    0    0  501    0  0.00000000000E+00  0.00000000000E+00  0.11563658647E+03  0.11563658658E+03  0.50400000000E-02 0. -1.
         -1   -1    0    0    0  501 -0.00000000000E+00 -0.00000000000E+00 -0.18609668219E+02  0.18609668902E+02  0.50400000000E-02 0.  1.
         23    2    1    2    0    0  0.00000000000E+00  0.00000000000E+00  0.97026918255E+02  0.13424625549E+03  0.92778414762E+02 0.  0.
    9000005    2    3    3    0    0 -0.50289827086E+01 -0.30997939695E+02  0.97099093502E+02  0.10284294130E+03  0.12738668867E+02 0.  0.
         22    1    3    3    0    0  0.50289827086E+01  0.30997939695E+02 -0.72175246884E-01  0.31403314183E+02  0.00000000000E+00 0.  1.
         22    1    4    4    0    0  0.30392515747E+01 -0.11398050919E+02  0.46730126463E+02  0.48196030273E+02  0.00000000000E+00 0.  1.
         22    1    4    4    0    0 -0.80682342833E+01 -0.19599888775E+02  0.50368967040E+02  0.54646911030E+02  0.00000000000E+00 0.  1.
<mgrwt>
<rscale>  0 0.92778415E+02</rscale>
<asrwt>0</asrwt>
<pdfrwt beam="1">  1        1 0.17790244E-01 0.92778415E+02</pdfrwt>
<pdfrwt beam="2">  1       -1 0.28630259E-02 0.92778415E+02</pdfrwt>
<totfact> 0.10209861E+05</totfact>
</mgrwt>
</event>
<event>
 7    1  0.3345055E-009  0.9116223E+02  0.7818608E-02  0.1300061E+00
          1   -1    0    0  501    0  0.00000000000E+00  0.00000000000E+00  0.36442974824E+03  0.36442974828E+03  0.50400000000E-02 0. -1.
         -1   -1    0    0    0  501 -0.00000000000E+00 -0.00000000000E+00 -0.57010649212E+01  0.57010671490E+01  0.50400000000E-02 0.  1.
         23    2    1    2    0    0  0.11102230246E-15  0.00000000000E+00  0.35872868332E+03  0.37013081543E+03  0.91162230615E+02 0.  0.
    9000005    2    3    3    0    0  0.94504836727E+00 -0.36823960162E+02  0.28483760124E+03  0.28756696638E+03  0.14331919387E+02 0.  0.
         22    1    3    3    0    0 -0.94504836727E+00  0.36823960162E+02  0.73891082078E+02  0.82563849045E+02  0.00000000000E+00 0.  1.
         22    1    4    4    0    0 -0.51321655541E+01 -0.95264291821E+01  0.10673632135E+03  0.10728342962E+03  0.00000000000E+00 0.  1.
         22    1    4    4    0    0  0.60772139213E+01 -0.27297530980E+02  0.17810127989E+03  0.18028353676E+03  0.00000000000E+00 0.  1.
<mgrwt>
<rscale>  0 0.91162231E+02</rscale>
<asrwt>0</asrwt>
<pdfrwt beam="1">  1        1 0.56066105E-01 0.91162231E+02</pdfrwt>
<pdfrwt beam="2">  1       -1 0.87708724E-03 0.91162231E+02</pdfrwt>
<totfact> 0.13283221E+05</totfact>
</mgrwt>
</event>
<event>
 7    1  0.3345055E-009  0.9374588E+02  0.7818608E-02  0.1294026E+00
          1   -1    0    0  501    0  0.00000000000E+00  0.00000000000E+00  0.78899379947E+02  0.78899380108E+02  0.50400000000E-02 0. -1.
         -1   -1    0    0    0  501 -0.00000000000E+00 -0.00000000000E+00 -0.27846513464E+02  0.27846513920E+02  0.50400000000E-02 0.  1.
         23    2    1    2    0    0  0.00000000000E+00  0.17763568394E-14  0.51052866483E+02  0.10674589403E+03  0.93745883727E+02 0.  0.
    9000005    2    3    3    0    0  0.18988907017E+02 -0.11425069463E+02  0.72247422335E+02  0.76081256420E+02  0.88066305956E+01 0.  0.
         22    1    3    3    0    0 -0.18988907017E+02  0.11425069463E+02 -0.21194555852E+02  0.30664637609E+02  0.00000000000E+00 0.  1.
         22    1    4    4    0    0  0.23279076084E+01 -0.38685235348E+00  0.21569615941E+01  0.31970755222E+01  0.00000000000E+00 0.  1.
         22    1    4    4    0    0  0.16660999408E+02 -0.11038217110E+02  0.70090460741E+02  0.72884180898E+02  0.00000000000E+00 0.  1.
<mgrwt>
<rscale>  0 0.93745884E+02</rscale>
<asrwt>0</asrwt>
<pdfrwt beam="1">  1        1 0.12138366E-01 0.93745884E+02</pdfrwt>
<pdfrwt beam="2">  1       -1 0.42840791E-02 0.93745884E+02</pdfrwt>
<totfact> 0.93118955E+04</totfact>
</mgrwt>
</event>
<event>
 7    1  0.3345055E-009  0.9112473E+02  0.7818608E-02  0.1300151E+00
         -1   -1    0    0    0  501 -0.00000000000E+00  0.00000000000E+00  0.16177107902E+02  0.16177108687E+02  0.50400000000E-02 0.  1.
          1   -1    0    0  501    0  0.00000000000E+00 -0.00000000000E+00 -0.12832510735E+03  0.12832510745E+03  0.50400000000E-02 0. -1.
         23    2    1    2    0    0  0.35527136788E-14  0.36082248300E-15 -0.11214799945E+03  0.14450221613E+03  0.91124731483E+02 0.  0.
    9000005    2    3    3    0    0  0.23516877848E+02 -0.16956704146E+00 -0.11746882921E+03  0.12039032019E+03  0.11909284771E+02 0.  0.
         22    1    3    3    0    0 -0.23516877848E+02  0.16956704146E+00  0.53208297592E+01  0.24111895944E+02  0.00000000000E+00 0.  1.
         22    1    4    4    0    0  0.10677743159E+02 -0.59132521901E+01 -0.59560887841E+02  0.60798685108E+02  0.00000000000E+00 0.  1.
         22    1    4    4    0    0  0.12839134689E+02  0.57436851486E+01 -0.57907941364E+02  0.59591635081E+02  0.00000000000E+00 0.  1.
<mgrwt>
<rscale>  0 0.91124731E+02</rscale>
<asrwt>0</asrwt>
<pdfrwt beam="2">  1        1 0.19742324E-01 0.91124731E+02</pdfrwt>
<pdfrwt beam="1">  1       -1 0.24887860E-02 0.91124731E+02</pdfrwt>
<totfact> 0.10918485E+05</totfact>
</mgrwt>
</event>
<event>
 7    1  0.3345055E-009  0.9104221E+02  0.7818608E-02  0.1300347E+00
          1   -1    0    0  501    0  0.00000000000E+00  0.00000000000E+00  0.62516717377E+02  0.62516717580E+02  0.50400000000E-02 0. -1.
         -1   -1    0    0    0  501 -0.00000000000E+00 -0.00000000000E+00 -0.33145871228E+02  0.33145871611E+02  0.50400000000E-02 0.  1.
         23    2    1    2    0    0  0.00000000000E+00  0.00000000000E+00  0.29370846149E+02  0.95662589190E+02  0.91042212007E+02 0.  0.
    9000005    2    3    3    0    0 -0.41250245557E+02 -0.96588894829E+01  0.31556395012E+02  0.53240265723E+02  0.66213989145E+01 0.  0.
         22    1    3    3    0    0  0.41250245557E+02  0.96588894829E+01 -0.21855488631E+01  0.42422323467E+02  0.00000000000E+00 0.  1.
         22    1    4    4    0    0 -0.19757010753E+02 -0.20597005459E+01  0.12022997882E+02  0.23219266101E+02  0.00000000000E+00 0.  1.
         22    1    4    4    0    0 -0.21493234804E+02 -0.75991889370E+01  0.19533397131E+02  0.30020999622E+02  0.00000000000E+00 0.  1.
<mgrwt>
<rscale>  0 0.91042212E+02</rscale>
<asrwt>0</asrwt>
<pdfrwt beam="1">  1        1 0.96179565E-02 0.91042212E+02</pdfrwt>
<pdfrwt beam="2">  1       -1 0.50993649E-02 0.91042212E+02</pdfrwt>
<totfact> 0.97371709E+04</totfact>
</mgrwt>
</event>
<event>
 7    1  0.3345055E-009  0.9112732E+02  0.7818608E-02  0.1300144E+00
         -1   -1    0    0    0  501 -0.00000000000E+00  0.00000000000E+00  0.25497430000E+02  0.25497430498E+02  0.50400000000E-02 0.  1.
          1   -1    0    0  501    0  0.00000000000E+00 -0.00000000000E+00 -0.81421810144E+02  0.81421810300E+02  0.50400000000E-02 0. -1.
         23    2    1    2    0    0  0.00000000000E+00  0.00000000000E+00 -0.55924380144E+02  0.10691924080E+03  0.91127316204E+02 0.  0.
    9000005    2    3    3    0    0  0.22757772383E+02 -0.15160483302E+02 -0.70617390153E+02  0.75876673236E+02  0.47641674638E+01 0.  0.
         22    1    3    3    0    0 -0.22757772383E+02  0.15160483302E+02  0.14693010009E+02  0.31042567563E+02  0.00000000000E+00 0.  1.
         22    1    4    4    0    0  0.14217118234E+02 -0.67271241272E+01 -0.38415751948E+02  0.41510849758E+02  0.00000000000E+00 0.  1.
         22    1    4    4    0    0  0.85406541484E+01 -0.84333591743E+01 -0.32201638205E+02  0.34365823478E+02  0.00000000000E+00 0.  1.
<mgrwt>
<rscale>  0 0.91127316E+02</rscale>
<asrwt>0</asrwt>
<pdfrwt beam="2">  1        1 0.12526432E-01 0.91127316E+02</pdfrwt>
<pdfrwt beam="1">  1       -1 0.39226816E-02 0.91127316E+02</pdfrwt>
<totfact> 0.10117601E+05</totfact>
</mgrwt>
</event>
<event>
 7    1  0.3345055E-009  0.9311713E+02  0.7818608E-02  0.1295474E+00
          1   -1    0    0  501    0  0.00000000000E+00  0.00000000000E+00  0.11637059177E+03  0.11637059188E+03  0.50400000000E-02 0. -1.
         -1   -1    0    0    0  501 -0.00000000000E+00 -0.00000000000E+00 -0.18627556425E+02  0.18627557106E+02  0.50400000000E-02 0.  1.
         23    2    1    2    0    0  0.00000000000E+00  0.00000000000E+00  0.97743035343E+02  0.13499814898E+03  0.93117126625E+02 0.  0.
    9000005    2    3    3    0    0 -0.26448532869E+01 -0.43805023805E+02  0.70616031091E+02  0.83406001140E+02  0.66379077706E+01 0.  0.
         22    1    3    3    0    0  0.26448532869E+01  0.43805023805E+02  0.27127004251E+02  0.51592147843E+02  0.00000000000E+00 0.  1.
         22    1    4    4    0    0 -0.12944635959E+01 -0.38838272209E+02  0.65427359989E+02  0.76097479980E+02  0.00000000000E+00 0.  1.
         22    1    4    4    0    0 -0.13503896910E+01 -0.49667515961E+01  0.51886711022E+01  0.73085211597E+01  0.00000000000E+00 0.  1.
<mgrwt>
<rscale>  0 0.93117127E+02</rscale>
<asrwt>0</asrwt>
<pdfrwt beam="1">  1        1 0.17903168E-01 0.93117127E+02</pdfrwt>
<pdfrwt beam="2">  1       -1 0.28657780E-02 0.93117127E+02</pdfrwt>
<totfact> 0.10120155E+05</totfact>
</mgrwt>
</event>
<event>
 7    1  0.3345055E-009  0.9241421E+02  0.7818608E-02  0.1297108E+00
         -1   -1    0    0    0  501 -0.00000000000E+00  0.00000000000E+00  0.29616595656E+03  0.29616595660E+03  0.50400000000E-02 0.  1.
          1   -1    0    0  501    0  0.00000000000E+00 -0.00000000000E+00 -0.72091214213E+01  0.72091231830E+01  0.50400000000E-02 0. -1.
         23    2    1    2    0    0  0.71054273576E-14 -0.27755575616E-16  0.28895683514E+03  0.30337507979E+03  0.92414211362E+02 0.  0.
    9000005    2    3    3    0    0 -0.41349162432E+02  0.13005511785E+00  0.21110413960E+03  0.21522286852E+03  0.67937640777E+01 0.  0.
         22    1    3    3    0    0  0.41349162432E+02 -0.13005511785E+00  0.77852695542E+02  0.88152211268E+02  0.00000000000E+00 0.  1.
         22    1    4    4    0    0 -0.35461739245E+02 -0.10583598495E+01  0.16823911065E+03  0.17193909802E+03  0.00000000000E+00 0. -1.
         22    1    4    4    0    0 -0.58874231868E+01  0.11884149674E+01  0.42865028944E+02  0.43283770495E+02  0.00000000000E+00 0. -1.
<mgrwt>
<rscale>  0 0.92414211E+02</rscale>
<asrwt>0</asrwt>
<pdfrwt beam="2">  1        1 0.11090957E-02 0.92414211E+02</pdfrwt>
<pdfrwt beam="1">  1       -1 0.45563995E-01 0.92414211E+02</pdfrwt>
<totfact> 0.58780949E+04</totfact>
</mgrwt>
</event>
<event>
 7    1  0.3345055E-009  0.8982601E+02  0.7818608E-02  0.1303274E+00
          1   -1    0    0  501    0  0.00000000000E+00  0.00000000000E+00  0.42292403298E+01  0.42292433328E+01  0.50400000000E-02 0. -1.
         -1   -1    0    0    0  501 -0.00000000000E+00 -0.00000000000E+00 -0.47695971816E+03  0.47695971818E+03  0.50400000000E-02 0.  1.
         23    2    1    2    0    0  0.00000000000E+00  0.17763568394E-14 -0.47273047783E+03  0.48118896152E+03  0.89826009699E+02 0.  0.
    9000005    2    3    3    0    0 -0.16314298549E+02  0.13001521894E+02 -0.44850104424E+03  0.44921613930E+03  0.14379054632E+02 0.  0.
         22    1    3    3    0    0  0.16314298549E+02 -0.13001521894E+02 -0.24229433589E+02  0.31972822220E+02  0.00000000000E+00 0. -1.
         22    1    4    4    0    0 -0.13776196792E+02  0.15258482754E+02 -0.42169471107E+03  0.42219549292E+03  0.00000000000E+00 0. -1.
         22    1    4    4    0    0 -0.25381017576E+01 -0.22569608595E+01 -0.26806333164E+02  0.27020646376E+02  0.00000000000E+00 0. -1.
<mgrwt>
<rscale>  0 0.89826010E+02</rscale>
<asrwt>0</asrwt>
<pdfrwt beam="1">  1        1 0.65065297E-03 0.89826010E+02</pdfrwt>
<pdfrwt beam="2">  1       -1 0.73378376E-01 0.89826010E+02</pdfrwt>
<totfact> 0.50332268E+04</totfact>
</mgrwt>
</event>
<event>
 7    1  0.3345055E-009  0.9117862E+02  0.7818608E-02  0.1300022E+00
          1   -1    0    0  501    0  0.00000000000E+00  0.00000000000E+00  0.12812186658E+02  0.12812187649E+02  0.50400000000E-02 0. -1.
         -1   -1    0    0    0  501 -0.00000000000E+00 -0.00000000000E+00 -0.16221939612E+03  0.16221939620E+03  0.50400000000E-02 0.  1.
         23    2    1    2    0    0  0.00000000000E+00  0.00000000000E+00 -0.14940720946E+03  0.17503158385E+03  0.91178621975E+02 0.  0.
    9000005    2    3    3    0    0  0.20145288457E+02 -0.29151379741E+02 -0.23136271896E+02  0.43882869552E+02  0.11609632854E+02 0.  0.
         22    1    3    3    0    0 -0.20145288457E+02  0.29151379741E+02 -0.12627093757E+03  0.13114871430E+03  0.00000000000E+00 0.  1.
         22    1    4    4    0    0  0.80470532374E+01 -0.59802203203E+01 -0.19001442479E+01  0.10204344616E+02  0.00000000000E+00 0. -1.
         22    1    4    4    0    0  0.12098235220E+02 -0.23171159421E+02 -0.21236127648E+02  0.33678524935E+02  0.00000000000E+00 0. -1.
<mgrwt>
<rscale>  0 0.91178622E+02</rscale>
<asrwt>0</asrwt>
<pdfrwt beam="1">  1        1 0.19711058E-02 0.91178622E+02</pdfrwt>
<pdfrwt beam="2">  1       -1 0.24956829E-01 0.91178622E+02</pdfrwt>
<totfact> 0.73390919E+04</totfact>
</mgrwt>
</event>
<event>
 7    1  0.3345055E-009  0.1183711E+03  0.7818608E-02  0.1245809E+00
          1   -1    0    0  501    0  0.00000000000E+00  0.00000000000E+00  0.41509593170E+02  0.41509593476E+02  0.50400000000E-02 0. -1.
         -1   -1    0    0    0  501 -0.00000000000E+00 -0.00000000000E+00 -0.84388471195E+02  0.84388471346E+02  0.50400000000E-02 0.  1.
         23    2    1    2    0    0  0.00000000000E+00  0.00000000000E+00 -0.42878878025E+02  0.12589806482E+03  0.11837113054E+03 0.  0.
    9000005    2    3    3    0    0  0.79343557693E+01 -0.32260315520E+02 -0.73106145504E+02  0.80982926414E+02  0.10490181179E+02 0.  0.
         22    1    3    3    0    0 -0.79343557693E+01  0.32260315520E+02  0.30227267479E+02  0.44915138407E+02  0.00000000000E+00 0. -1.
         22    1    4    4    0    0 -0.75327127373E+00 -0.95924872829E+01 -0.30073641093E+02  0.31575419530E+02  0.00000000000E+00 0.  1.
         22    1    4    4    0    0  0.86876270430E+01 -0.22667828237E+02 -0.43032504411E+02  0.49407506884E+02  0.00000000000E+00 0.  1.
<mgrwt>
<rscale>  0 0.11837113E+03</rscale>
<asrwt>0</asrwt>
<pdfrwt beam="1">  1        1 0.63860913E-02 0.11837113E+03</pdfrwt>
<pdfrwt beam="2">  1       -1 0.12982842E-01 0.11837113E+03</pdfrwt>
<totfact> 0.42892398E+04</totfact>
</mgrwt>
</event>
<event>
 7    1  0.3345055E-009  0.9246631E+02  0.7818608E-02  0.1296987E+00
          1   -1    0    0  501    0  0.00000000000E+00  0.00000000000E+00  0.70981871631E+01  0.70981889524E+01  0.50400000000E-02 0. -1.
         -1   -1    0    0    0  501 -0.00000000000E+00 -0.00000000000E+00 -0.30113384895E+03  0.30113384899E+03  0.50400000000E-02 0.  1.
         23    2    1    2    0    0  0.22204460493E-15  0.00000000000E+00 -0.29403566178E+03  0.30823203794E+03  0.92466311773E+02 0.  0.
    9000005    2    3    3    0    0 -0.13044965127E+01  0.33560749828E+02 -0.25173632266E+03  0.25422037503E+03  0.11348889523E+02 0.  0.
         22    1    3    3    0    0  0.13044965127E+01 -0.33560749828E+02 -0.42299339119E+02  0.54011662908E+02  0.00000000000E+00 0. -1.
         22    1    4    4    0    0  0.43655030589E+01  0.21471240502E+02 -0.16877814159E+03  0.17019439728E+03  0.00000000000E+00 0.  1.
         22    1    4    4    0    0 -0.56699995715E+01  0.12089509326E+02 -0.82958181069E+02  0.84025977752E+02  0.00000000000E+00 0.  1.
<mgrwt>
<rscale>  0 0.92466312E+02</rscale>
<asrwt>0</asrwt>
<pdfrwt beam="1">  1        1 0.10920292E-02 0.92466312E+02</pdfrwt>
<pdfrwt beam="2">  1       -1 0.46328275E-01 0.92466312E+02</pdfrwt>
<totfact> 0.58312263E+04</totfact>
</mgrwt>
</event>
<event>
 7    1  0.3345055E-009  0.9017986E+02  0.7818608E-02  0.1302417E+00
          1   -1    0    0  501    0  0.00000000000E+00  0.00000000000E+00  0.39153093732E+03  0.39153093735E+03  0.50400000000E-02 0. -1.
         -1   -1    0    0    0  501 -0.00000000000E+00 -0.00000000000E+00 -0.51926965553E+01  0.51926990012E+01  0.50400000000E-02 0.  1.
         23    2    1    2    0    0  0.00000000000E+00 -0.17763568394E-14  0.38633824076E+03  0.39672363635E+03  0.90179861191E+02 0.  0.
    9000005    2    3    3    0    0 -0.43710223517E+02 -0.80462928513E+01  0.18927777394E+03  0.19471335430E+03  0.10577720366E+02 0.  0.
         22    1    3    3    0    0  0.43710223517E+02  0.80462928513E+01  0.19706046682E+03  0.20201028205E+03  0.00000000000E+00 0. -1.
         22    1    4    4    0    0 -0.32799876909E+02 -0.13190249264E+01  0.13229604401E+03  0.13630779513E+03  0.00000000000E+00 0.  1.
         22    1    4    4    0    0 -0.10910346607E+02 -0.67272679249E+01  0.56981729931E+02  0.58405559177E+02  0.00000000000E+00 0.  1.
<mgrwt>
<rscale>  0 0.90179861E+02</rscale>
<asrwt>0</asrwt>
<pdfrwt beam="1">  1        1 0.60235551E-01 0.90179861E+02</pdfrwt>
<pdfrwt beam="2">  1       -1 0.79887630E-03 0.90179861E+02</pdfrwt>
<totfact> 0.13839435E+05</totfact>
</mgrwt>
</event>
<event>
 7    1  0.3345055E-009  0.8985591E+02  0.7818608E-02  0.1303201E+00
          1   -1    0    0  501    0  0.00000000000E+00  0.00000000000E+00  0.79190797283E+02  0.79190797444E+02  0.50400000000E-02 0. -1.
         -1   -1    0    0    0  501 -0.00000000000E+00 -0.00000000000E+00 -0.25489338590E+02  0.25489339088E+02  0.50400000000E-02 0.  1.
         23    2    1    2    0    0  0.00000000000E+00  0.35527136788E-14  0.53701458694E+02  0.10468013653E+03  0.89855908645E+02 0.  0.
    9000005    2    3    3    0    0 -0.25852858316E+02  0.16606333287E+02 -0.88640807020E+01  0.34976569132E+02  0.14165022883E+02 0.  0.
         22    1    3    3    0    0  0.25852858316E+02 -0.16606333287E+02  0.62565539396E+02  0.69703567399E+02  0.00000000000E+00 0. -1.
         22    1    4    4    0    0 -0.11978974024E+02  0.44023241498E+00 -0.22748517038E+00  0.11989219022E+02  0.00000000000E+00 0.  1.
         22    1    4    4    0    0 -0.13873884291E+02  0.16166100872E+02 -0.86365955317E+01  0.22987350110E+02  0.00000000000E+00 0.  1.
<mgrwt>
<rscale>  0 0.89855909E+02</rscale>
<asrwt>0</asrwt>
<pdfrwt beam="1">  1        1 0.12183200E-01 0.89855909E+02</pdfrwt>
<pdfrwt beam="2">  1       -1 0.39214368E-02 0.89855909E+02</pdfrwt>
<totfact> 0.10468750E+05</totfact>
</mgrwt>
</event>
<event>
 7    1  0.3345055E-009  0.8819043E+02  0.7818608E-02  0.1307294E+00
         -1   -1    0    0    0  501 -0.00000000000E+00  0.00000000000E+00  0.11574242244E+02  0.11574243341E+02  0.50400000000E-02 0.  1.
          1   -1    0    0  501    0  0.00000000000E+00 -0.00000000000E+00 -0.16799266175E+03  0.16799266182E+03  0.50400000000E-02 0. -1.
         23    2    1    2    0    0  0.00000000000E+00 -0.35527136788E-14 -0.15641841950E+03  0.17956690516E+03  0.88190427317E+02 0.  0.
    9000005    2    3    3    0    0  0.18686671240E+02  0.24760669306E+02 -0.14199784580E+03  0.14535820200E+03  0.18265400681E+01 0.  0.
         22    1    3    3    0    0 -0.18686671240E+02 -0.24760669306E+02 -0.14420573699E+02  0.34208703166E+02  0.00000000000E+00 0.  1.
         22    1    4    4    0    0  0.17240680797E+02  0.21981657593E+02 -0.12684009043E+03  0.12988010966E+03  0.00000000000E+00 0. -1.
         22    1    4    4    0    0  0.14459904430E+01  0.27790117123E+01 -0.15157755377E+02  0.15478092341E+02  0.00000000000E+00 0. -1.
<mgrwt>
<rscale>  0 0.88190427E+02</rscale>
<asrwt>0</asrwt>
<pdfrwt beam="2">  1        1 0.25845023E-01 0.88190427E+02</pdfrwt>
<pdfrwt beam="1">  1       -1 0.17806529E-02 0.88190427E+02</pdfrwt>
<totfact> 0.12522652E+05</totfact>
</mgrwt>
</event>
<event>
 7    1  0.3345055E-009  0.9187460E+02  0.7818608E-02  0.1298375E+00
          1   -1    0    0  501    0  0.00000000000E+00  0.00000000000E+00  0.13051235234E+02  0.13051236208E+02  0.50400000000E-02 0. -1.
         -1   -1    0    0    0  501 -0.00000000000E+00 -0.00000000000E+00 -0.16168854877E+03  0.16168854884E+03  0.50400000000E-02 0.  1.
         23    2    1    2    0    0  0.35527136788E-14  0.00000000000E+00 -0.14863731353E+03  0.17473978505E+03  0.91874596631E+02 0.  0.
    9000005    2    3    3    0    0  0.25880504294E+02 -0.35847591636E+02 -0.92932911213E+02  0.10362135730E+03  0.12083433825E+02 0.  0.
         22    1    3    3    0    0 -0.25880504294E+02  0.35847591636E+02 -0.55704402319E+02  0.71118427755E+02  0.00000000000E+00 0. -1.
         22    1    4    4    0    0  0.38743084479E+01 -0.82700459629E+01 -0.31292076756E+02  0.32597515149E+02  0.00000000000E+00 0.  1.
         22    1    4    4    0    0  0.22006195847E+02 -0.27577545673E+02 -0.61640834458E+02  0.71023842149E+02  0.00000000000E+00 0.  1.
<mgrwt>
<rscale>  0 0.91874597E+02</rscale>
<asrwt>0</asrwt>
<pdfrwt beam="1">  1        1 0.20078825E-02 0.91874597E+02</pdfrwt>
<pdfrwt beam="2">  1       -1 0.24875160E-01 0.91874597E+02</pdfrwt>
<totfact> 0.72011725E+04</totfact>
</mgrwt>
</event>
<event>
 7    1  0.3345055E-009  0.9143787E+02  0.7818608E-02  0.1299407E+00
          1   -1    0    0  501    0  0.00000000000E+00  0.00000000000E+00  0.18198986301E+03  0.18198986308E+03  0.50400000000E-02 0. -1.
         -1   -1    0    0    0  501 -0.00000000000E+00 -0.00000000000E+00 -0.11485370440E+02  0.11485371546E+02  0.50400000000E-02 0.  1.
         23    2    1    2    0    0  0.00000000000E+00  0.17763568394E-14  0.17050449257E+03  0.19347523463E+03  0.91437871951E+02 0.  0.
    9000005    2    3    3    0    0  0.23490974425E+02 -0.15820027695E+02  0.10760126705E+02  0.31239721925E+02  0.76184475798E+01 0.  0.
         22    1    3    3    0    0 -0.23490974425E+02  0.15820027695E+02  0.15974436586E+03  0.16223551270E+03  0.00000000000E+00 0. -1.
         22    1    4    4    0    0  0.58532249891E+01 -0.79411616273E+01  0.51252936051E+01  0.11117145556E+02  0.00000000000E+00 0. -1.
         22    1    4    4    0    0  0.17637749436E+02 -0.78788660681E+01  0.56348331003E+01  0.20122576370E+02  0.00000000000E+00 0. -1.
<mgrwt>
<rscale>  0 0.91437872E+02</rscale>
<asrwt>0</asrwt>
<pdfrwt beam="1">  1        1 0.27998442E-01 0.91437872E+02</pdfrwt>
<pdfrwt beam="2">  1       -1 0.17669801E-02 0.91437872E+02</pdfrwt>
<totfact> 0.11538015E+05</totfact>
</mgrwt>
</event>
<event>
 7    1  0.3345055E-009  0.8714710E+02  0.7818608E-02  0.1309911E+00
          1   -1    0    0  501    0  0.00000000000E+00  0.00000000000E+00  0.48059153638E+01  0.48059180066E+01  0.50400000000E-02 0. -1.
         -1   -1    0    0    0  501 -0.00000000000E+00 -0.00000000000E+00 -0.39506597719E+03  0.39506597722E+03  0.50400000000E-02 0.  1.
         23    2    1    2    0    0  0.00000000000E+00  0.00000000000E+00 -0.39026006182E+03  0.39987189523E+03  0.87147098272E+02 0.  0.
    9000005    2    3    3    0    0 -0.42901570173E+02 -0.69936682120E+01 -0.20662853168E+03  0.21116578779E+03  0.24867072701E+01 0.  0.
         22    1    3    3    0    0  0.42901570173E+02  0.69936682120E+01 -0.18363153015E+03  0.18870610743E+03  0.00000000000E+00 0.  1.
         22    1    4    4    0    0 -0.42018332967E+02 -0.67074852583E+01 -0.20031457235E+03  0.20478393140E+03  0.00000000000E+00 0.  1.
         22    1    4    4    0    0 -0.88323720653E+00 -0.28618295374E+00 -0.63139593289E+01  0.63818563955E+01  0.00000000000E+00 0.  1.
<mgrwt>
<rscale>  0 0.87147098E+02</rscale>
<asrwt>0</asrwt>
<pdfrwt beam="1">  1        1 0.73937211E-03 0.87147098E+02</pdfrwt>
<pdfrwt beam="2">  1       -1 0.60779356E-01 0.87147098E+02</pdfrwt>
<totfact> 0.60349726E+04</totfact>
</mgrwt>
</event>
<event>
 7    1  0.3345055E-009  0.8937852E+02  0.7818608E-02  0.1304364E+00
         -1   -1    0    0    0  501 -0.00000000000E+00  0.00000000000E+00  0.12347362507E+02  0.12347363536E+02  0.50400000000E-02 0.  1.
          1   -1    0    0  501    0  0.00000000000E+00 -0.00000000000E+00 -0.16174546947E+03  0.16174546955E+03  0.50400000000E-02 0. -1.
         23    2    1    2    0    0  0.00000000000E+00  0.88817841970E-15 -0.14939810697E+03  0.17409283309E+03  0.89378521845E+02 0.  0.
    9000005    2    3    3    0    0 -0.32517408105E+02  0.42575764366E+01 -0.13248614008E+03  0.13719400640E+03  0.13932311078E+02 0.  0.
         22    1    3    3    0    0  0.32517408105E+02 -0.42575764366E+01 -0.16911966889E+02  0.36898826689E+02  0.00000000000E+00 0.  1.
         22    1    4    4    0    0 -0.73044696343E+01  0.47496090846E+01 -0.18463770730E+02  0.20416289885E+02  0.00000000000E+00 0. -1.
         22    1    4    4    0    0 -0.25212938471E+02 -0.49203264809E+00 -0.11402236935E+03  0.11677771651E+03  0.00000000000E+00 0. -1.
<mgrwt>
<rscale>  0 0.89378522E+02</rscale>
<asrwt>0</asrwt>
<pdfrwt beam="2">  1        1 0.24883917E-01 0.89378522E+02</pdfrwt>
<pdfrwt beam="1">  1       -1 0.18995944E-02 0.89378522E+02</pdfrwt>
<totfact> 0.11996459E+05</totfact>
</mgrwt>
</event>
<event>
 7    1  0.3345055E-009  0.9134318E+02  0.7818608E-02  0.1299631E+00
         -1   -1    0    0    0  501 -0.00000000000E+00  0.00000000000E+00  0.38635064054E+01  0.38635096927E+01  0.50400000000E-02 0.  1.
          1   -1    0    0  501    0  0.00000000000E+00 -0.00000000000E+00 -0.53989644992E+03  0.53989644994E+03  0.50400000000E-02 0. -1.
         23    2    1    2    0    0  0.00000000000E+00  0.00000000000E+00 -0.53603294351E+03  0.54375995963E+03  0.91343183493E+02 0.  0.
    9000005    2    3    3    0    0  0.38561032438E+02 -0.17333843088E+02 -0.36685490437E+03  0.36937927186E+03  0.84326913864E+01 0.  0.
         22    1    3    3    0    0 -0.38561032438E+02  0.17333843088E+02 -0.16917803914E+03  0.17438068777E+03  0.00000000000E+00 0. -1.
         22    1    4    4    0    0  0.35181444811E+00  0.75686304989E+00 -0.73479329362E+01  0.73951831293E+01  0.00000000000E+00 0. -1.
         22    1    4    4    0    0  0.38209217990E+02 -0.18090706138E+02 -0.35950697143E+03  0.36198408873E+03  0.00000000000E+00 0. -1.
<mgrwt>
<rscale>  0 0.91343183E+02</rscale>
<asrwt>0</asrwt>
<pdfrwt beam="2">  1        1 0.83060933E-01 0.91343183E+02</pdfrwt>
<pdfrwt beam="1">  1       -1 0.59438629E-03 0.91343183E+02</pdfrwt>
<totfact> 0.13974106E+05</totfact>
</mgrwt>
</event>
<event>
 7    1  0.3345055E-009  0.9192207E+02  0.7818608E-02  0.1298263E+00
         -1   -1    0    0    0  501 -0.00000000000E+00  0.00000000000E+00  0.19212613396E+03  0.19212613403E+03  0.50400000000E-02 0.  1.
          1   -1    0    0  501    0  0.00000000000E+00 -0.00000000000E+00 -0.10994946654E+02  0.10994947809E+02  0.50400000000E-02 0. -1.
         23    2    1    2    0    0  0.17763568394E-14 -0.27755575616E-16  0.18113118731E+03  0.20312108184E+03  0.91922069555E+02 0.  0.
    9000005    2    3    3    0    0 -0.15964681464E+02  0.20442435704E+00  0.18552482719E+03  0.18656158562E+03  0.11439006958E+02 0.  0.
         22    1    3    3    0    0  0.15964681464E+02 -0.20442435704E+00 -0.43936398846E+01  0.16559496219E+02  0.00000000000E+00 0. -1.
         22    1    4    4    0    0 -0.17019535894E+02  0.20170163789E+00  0.14090530800E+03  0.14192959912E+03  0.00000000000E+00 0.  1.
         22    1    4    4    0    0  0.10548544297E+01  0.27227191520E-02  0.44619519195E+02  0.44631986495E+02  0.00000000000E+00 0.  1.
<mgrwt>
<rscale>  0 0.91922070E+02</rscale>
<asrwt>0</asrwt>
<pdfrwt beam="2">  1        1 0.16915305E-02 0.91922070E+02</pdfrwt>
<pdfrwt beam="1">  1       -1 0.29557865E-01 0.91922070E+02</pdfrwt>
<totfact> 0.68740856E+04</totfact>
</mgrwt>
</event>
<event>
 7    1  0.3345055E-009  0.9120419E+02  0.7818608E-02  0.1299962E+00
          1   -1    0    0  501    0  0.00000000000E+00  0.00000000000E+00  0.14999990433E+03  0.14999990442E+03  0.50400000000E-02 0. -1.
         -1   -1    0    0    0  501 -0.00000000000E+00 -0.00000000000E+00 -0.13863681294E+02  0.13863682210E+02  0.50400000000E-02 0.  1.
         23    2    1    2    0    0  0.00000000000E+00  0.00000000000E+00  0.13613622304E+03  0.16386358663E+03  0.91204187400E+02 0.  0.
    9000005    2    3    3    0    0  0.20437514695E+02  0.32751929298E+02  0.27450530591E+02  0.48525125469E+02  0.10524984199E+02 0.  0.
         22    1    3    3    0    0 -0.20437514695E+02 -0.32751929298E+02  0.10868569245E+03  0.11533846116E+03  0.00000000000E+00 0. -1.
         22    1    4    4    0    0  0.53885378103E+01  0.30290889243E+01  0.16800203839E+01  0.64057933103E+01  0.00000000000E+00 0.  1.
         22    1    4    4    0    0  0.15048976885E+02  0.29722840373E+02  0.25770510207E+02  0.42119332159E+02  0.00000000000E+00 0.  1.
<mgrwt>
<rscale>  0 0.91204187E+02</rscale>
<asrwt>0</asrwt>
<pdfrwt beam="1">  1        1 0.23076908E-01 0.91204187E+02</pdfrwt>
<pdfrwt beam="2">  1       -1 0.21328742E-02 0.91204187E+02</pdfrwt>
<totfact> 0.11204192E+05</totfact>
</mgrwt>
</event>
<event>
 7    1  0.3345055E-009  0.9804205E+02  0.7818608E-02  0.1284468E+00
          1   -1    0    0  501    0  0.00000000000E+00  0.00000000000E+00  0.15107146033E+03  0.15107146041E+03  0.50400000000E-02 0. -1.
         -1   -1    0    0    0  501 -0.00000000000E+00 -0.00000000000E+00 -0.15906781663E+02  0.15906782462E+02  0.50400000000E-02 0.  1.
         23    2    1    2    0    0 -0.11102230246E-14  0.00000000000E+00  0.13516467866E+03  0.16697824287E+03  0.98042048299E+02 0.  0.
    9000005    2    3    3    0    0  0.37352393989E+00  0.41260885130E+02  0.11022057891E+03  0.11876197721E+03  0.15913235186E+02 0.  0.
         22    1    3    3    0    0 -0.37352393989E+00 -0.41260885130E+02  0.24944099755E+02  0.48216265662E+02  0.00000000000E+00 0.  1.
         22    1    4    4    0    0  0.81278963864E+01  0.21560016927E+02  0.58795125094E+02  0.63148743174E+02  0.00000000000E+00 0.  1.
         22    1    4    4    0    0 -0.77543724465E+01  0.19700868203E+02  0.51425453816E+02  0.55613234037E+02  0.00000000000E+00 0.  1.
<mgrwt>
<rscale>  0 0.98042048E+02</rscale>
<asrwt>0</asrwt>
<pdfrwt beam="1">  1        1 0.23241764E-01 0.98042048E+02</pdfrwt>
<pdfrwt beam="2">  1       -1 0.24471972E-02 0.98042048E+02</pdfrwt>
<totfact> 0.92222861E+04</totfact>
</mgrwt>
</event>
<event>
 7    1  0.3345055E-009  0.9274083E+02  0.7818608E-02  0.1296347E+00
         -1   -1    0    0    0  501 -0.00000000000E+00  0.00000000000E+00  0.48318711546E+02  0.48318711809E+02  0.50400000000E-02 0.  1.
          1   -1    0    0  501    0  0.00000000000E+00 -0.00000000000E+00 -0.44500674989E+02  0.44500675275E+02  0.50400000000E-02 0. -1.
         23    2    1    2    0    0  0.35527136788E-14  0.00000000000E+00  0.38180365572E+01  0.92819387084E+02  0.92740828201E+02 0.  0.
    9000005    2    3    3    0    0  0.23780421036E+02  0.10903699927E+02 -0.35895031485E+02  0.45263873523E+02  0.87158398488E+01 0.  0.
         22    1    3    3    0    0 -0.23780421036E+02 -0.10903699927E+02  0.39713068042E+02  0.47555513561E+02  0.00000000000E+00 0.  1.
         22    1    4    4    0    0  0.98832955160E+01  0.79069346384E+01 -0.11895112907E+02  0.17369307894E+02  0.00000000000E+00 0.  1.
         22    1    4    4    0    0  0.13897125520E+02  0.29967652883E+01 -0.23999918578E+02  0.27894565629E+02  0.00000000000E+00 0.  1.
<mgrwt>
<rscale>  0 0.92740828E+02</rscale>
<asrwt>0</asrwt>
<pdfrwt beam="2">  1        1 0.68462578E-02 0.92740828E+02</pdfrwt>
<pdfrwt beam="1">  1       -1 0.74336479E-02 0.92740828E+02</pdfrwt>
<totfact> 0.87826963E+04</totfact>
</mgrwt>
</event>
<event>
 7    1  0.3345055E-009  0.8937802E+02  0.7818608E-02  0.1304365E+00
          1   -1    0    0  501    0  0.00000000000E+00  0.00000000000E+00  0.48014277738E+01  0.48014304191E+01  0.50400000000E-02 0. -1.
         -1   -1    0    0    0  501 -0.00000000000E+00 -0.00000000000E+00 -0.41594027981E+03  0.41594027984E+03  0.50400000000E-02 0.  1.
         23    2    1    2    0    0  0.00000000000E+00  0.00000000000E+00 -0.41113885204E+03  0.42074171026E+03  0.89378023578E+02 0.  0.
    9000005    2    3    3    0    0  0.23019865065E+02  0.36169168046E+02 -0.26048779778E+03  0.26410881763E+03  0.78391232523E+01 0.  0.
         22    1    3    3    0    0 -0.23019865065E+02 -0.36169168046E+02 -0.15065105426E+03  0.15663289263E+03  0.00000000000E+00 0. -1.
         22    1    4    4    0    0 -0.19065421779E-01  0.40839922937E+01 -0.24541300194E+02  0.24878801655E+02  0.00000000000E+00 0.  1.
         22    1    4    4    0    0  0.23038930487E+02  0.32085175753E+02 -0.23594649759E+03  0.23923001598E+03  0.00000000000E+00 0.  1.
<mgrwt>
<rscale>  0 0.89378024E+02</rscale>
<asrwt>0</asrwt>
<pdfrwt beam="1">  1        1 0.73868173E-03 0.89378024E+02</pdfrwt>
<pdfrwt beam="2">  1       -1 0.63990784E-01 0.89378024E+02</pdfrwt>
<totfact> 0.55026700E+04</totfact>
</mgrwt>
</event>
<event>
 7    1  0.3345055E-009  0.9225887E+02  0.7818608E-02  0.1297472E+00
         -1   -1    0    0    0  501 -0.00000000000E+00  0.00000000000E+00  0.20078367070E+02  0.20078367703E+02  0.50400000000E-02 0.  1.
          1   -1    0    0  501    0  0.00000000000E+00 -0.00000000000E+00 -0.10598095600E+03  0.10598095612E+03  0.50400000000E-02 0. -1.
         23    2    1    2    0    0  0.00000000000E+00  0.17763568394E-14 -0.85902588925E+02  0.12605932382E+03  0.92258865901E+02 0.  0.
    9000005    2    3    3    0    0  0.26980196278E+02 -0.93655553797E+01  0.36185806296E+01  0.32092923348E+02  0.14185097268E+02 0.  0.
         22    1    3    3    0    0 -0.26980196278E+02  0.93655553797E+01 -0.89521169555E+02  0.93966400469E+02  0.00000000000E+00 0. -1.
         22    1    4    4    0    0 -0.96512270565E+00 -0.10370048918E+01  0.25455487577E+01  0.29131871653E+01  0.00000000000E+00 0. -1.
         22    1    4    4    0    0  0.27945318983E+02 -0.83285504879E+01  0.10730318720E+01  0.29179736183E+02  0.00000000000E+00 0. -1.
<mgrwt>
<rscale>  0 0.92258866E+02</rscale>
<asrwt>0</asrwt>
<pdfrwt beam="2">  1        1 0.16304762E-01 0.92258866E+02</pdfrwt>
<pdfrwt beam="1">  1       -1 0.30889797E-02 0.92258866E+02</pdfrwt>
<totfact> 0.10213445E+05</totfact>
</mgrwt>
</event>
<event>
 7    1  0.3345055E-009  0.9087424E+02  0.7818608E-02  0.1300748E+00
         -1   -1    0    0    0  501 -0.00000000000E+00  0.00000000000E+00  0.47705027784E+01  0.47705054408E+01  0.50400000000E-02 0. -1.
          1   -1    0    0  501    0  0.00000000000E+00 -0.00000000000E+00 -0.43277019263E+03  0.43277019265E+03  0.50400000000E-02 0.  1.
         23    2    1    2    0    0  0.00000000000E+00  0.00000000000E+00 -0.42799968985E+03  0.43754069810E+03  0.90874242670E+02 0.  0.
    9000005    2    3    3    0    0  0.87142564884E+01  0.21688366707E+02 -0.40157636241E+03  0.40226300331E+03  0.23718070689E+01 0.  0.
         22    1    3    3    0    0 -0.87142564884E+01 -0.21688366707E+02 -0.26423327436E+02  0.35277694785E+02  0.00000000000E+00 0. -1.
         22    1    4    4    0    0  0.33983872540E+01  0.67133776395E+01 -0.14488296134E+03  0.14507822360E+03  0.00000000000E+00 0. -1.
         22    1    4    4    0    0  0.53158692345E+01  0.14974989067E+02 -0.25669340107E+03  0.25718477971E+03  0.00000000000E+00 0. -1.
<mgrwt>
<rscale>  0 0.90874243E+02</rscale>
<asrwt>0</asrwt>
<pdfrwt beam="2">  1        1 0.66579999E-01 0.90874243E+02</pdfrwt>
<pdfrwt beam="1">  1       -1 0.73392405E-03 0.90874243E+02</pdfrwt>
<totfact> 0.13778285E+05</totfact>
</mgrwt>
</event>
<event>
 7    1  0.3345055E-009  0.9195376E+02  0.7818608E-02  0.1298188E+00
          1   -1    0    0  501    0  0.00000000000E+00  0.00000000000E+00  0.30483921115E+03  0.30483921119E+03  0.50400000000E-02 0. -1.
         -1   -1    0    0    0  501 -0.00000000000E+00 -0.00000000000E+00 -0.69343868196E+01  0.69343886512E+01  0.50400000000E-02 0.  1.
         23    2    1    2    0    0  0.00000000000E+00  0.00000000000E+00  0.29790482433E+03  0.31177359984E+03  0.91953755767E+02 0.  0.
    9000005    2    3    3    0    0 -0.10172208852E+02 -0.39765178860E+02  0.21532386547E+03  0.21955452346E+03  0.12453049734E+02 0.  0.
         22    1    3    3    0    0  0.10172208852E+02  0.39765178860E+02  0.82580958857E+02  0.92219076381E+02  0.00000000000E+00 0.  1.
         22    1    4    4    0    0 -0.57422136023E+01 -0.68554820323E+01  0.64603186074E+02  0.65219186608E+02  0.00000000000E+00 0.  1.
         22    1    4    4    0    0 -0.44299952500E+01 -0.32909696828E+02  0.15072067940E+03  0.15433533685E+03  0.00000000000E+00 0.  1.
<mgrwt>
<rscale>  0 0.91953756E+02</rscale>
<asrwt>0</asrwt>
<pdfrwt beam="1">  1        1 0.46898340E-01 0.91953756E+02</pdfrwt>
<pdfrwt beam="2">  1       -1 0.10668289E-02 0.91953756E+02</pdfrwt>
<totfact> 0.12563713E+05</totfact>
</mgrwt>
</event>
<event>
 7    1  0.3345055E-009  0.9078606E+02  0.7818608E-02  0.1300959E+00
          1   -1    0    0  501    0  0.00000000000E+00  0.00000000000E+00  0.11606900620E+02  0.11606901714E+02  0.50400000000E-02 0. -1.
         -1   -1    0    0    0  501 -0.00000000000E+00 -0.00000000000E+00 -0.17752603447E+03  0.17752603454E+03  0.50400000000E-02 0.  1.
         23    2    1    2    0    0  0.88817841970E-15  0.00000000000E+00 -0.16591913385E+03  0.18913293626E+03  0.90786059498E+02 0.  0.
    9000005    2    3    3    0    0 -0.53635540414E+01  0.38438287446E+02 -0.12909915204E+03  0.13563545300E+03  0.14970484322E+02 0.  0.
         22    1    3    3    0    0  0.53635540414E+01 -0.38438287446E+02 -0.36819981815E+02  0.53497483255E+02  0.00000000000E+00 0. -1.
         22    1    4    4    0    0 -0.68299311199E+01  0.79048805234E+01 -0.43661327149E+02  0.44893725437E+02  0.00000000000E+00 0.  1.
         22    1    4    4    0    0  0.14663770785E+01  0.30533406922E+02 -0.85437824886E+02  0.90741727564E+02  0.00000000000E+00 0.  1.
<mgrwt>
<rscale>  0 0.90786059E+02</rscale>
<asrwt>0</asrwt>
<pdfrwt beam="1">  1        1 0.17856772E-02 0.90786059E+02</pdfrwt>
<pdfrwt beam="2">  1       -1 0.27311696E-01 0.90786059E+02</pdfrwt>
<totfact> 0.72536735E+04</totfact>
</mgrwt>
</event>
<event>
 7    1  0.3345055E-009  0.9281135E+02  0.7818608E-02  0.1296183E+00
         -1   -1    0    0    0  501 -0.00000000000E+00  0.00000000000E+00  0.89168936100E+02  0.89168936242E+02  0.50400000000E-02 0.  1.
          1   -1    0    0  501    0  0.00000000000E+00 -0.00000000000E+00 -0.24150637425E+02  0.24150637951E+02  0.50400000000E-02 0. -1.
         23    2    1    2    0    0  0.00000000000E+00 -0.17763568394E-14  0.65018298675E+02  0.11331957419E+03  0.92811350237E+02 0.  0.
    9000005    2    3    3    0    0 -0.40519071786E+02  0.11552435456E+02  0.11949578907E+02  0.45558649161E+02  0.12551658615E+02 0.  0.
         22    1    3    3    0    0  0.40519071786E+02 -0.11552435456E+02  0.53068719768E+02  0.67760925032E+02  0.00000000000E+00 0.  1.
         22    1    4    4    0    0 -0.19512571778E+02 -0.77372007352E+00  0.66838458575E+01  0.20640079835E+02  0.00000000000E+00 0. -1.
         22    1    4    4    0    0 -0.21006500008E+02  0.12326155530E+02  0.52657330494E+01  0.24918569327E+02  0.00000000000E+00 0. -1.
<mgrwt>
<rscale>  0 0.92811350E+02</rscale>
<asrwt>0</asrwt>
<pdfrwt beam="2">  1        1 0.37154828E-02 0.92811350E+02</pdfrwt>
<pdfrwt beam="1">  1       -1 0.13718298E-01 0.92811350E+02</pdfrwt>
<totfact> 0.79368868E+04</totfact>
</mgrwt>
</event>
<event>
 7    1  0.3345055E-009  0.1033527E+03  0.7818608E-02  0.1273400E+00
         -1   -1    0    0    0  501 -0.00000000000E+00  0.00000000000E+00  0.17878693503E+02  0.17878694214E+02  0.50400000000E-02 0.  1.
          1   -1    0    0  501    0  0.00000000000E+00 -0.00000000000E+00 -0.14936468097E+03  0.14936468106E+03  0.50400000000E-02 0. -1.
         23    2    1    2    0    0  0.00000000000E+00  0.00000000000E+00 -0.13148598747E+03  0.16724337527E+03  0.10335270520E+03 0.  0.
    9000005    2    3    3    0    0  0.37481910139E+02 -0.34435438932E+02 -0.76441884406E+02  0.92273072323E+02  0.89590815538E+01 0.  0.
         22    1    3    3    0    0 -0.37481910139E+02  0.34435438932E+02 -0.55044103061E+02  0.74970302946E+02  0.00000000000E+00 0. -1.
         22    1    4    4    0    0  0.19138121232E+02 -0.21230453589E+02 -0.36269458589E+02  0.46178712306E+02  0.00000000000E+00 0. -1.
         22    1    4    4    0    0  0.18343788907E+02 -0.13204985343E+02 -0.40172425817E+02  0.46094360017E+02  0.00000000000E+00 0. -1.
<mgrwt>
<rscale>  0 0.10335271E+03</rscale>
<asrwt>0</asrwt>
<pdfrwt beam="2">  1        1 0.22979181E-01 0.10335271E+03</pdfrwt>
<pdfrwt beam="1">  1       -1 0.27505684E-02 0.10335271E+03</pdfrwt>
<totfact> 0.79680213E+04</totfact>
</mgrwt>
</event>
<event>
 7    1  0.3345055E-009  0.9739334E+02  0.7818608E-02  0.1285875E+00
         -1   -1    0    0    0  501 -0.00000000000E+00  0.00000000000E+00  0.24230436007E+04  0.24230436007E+04  0.50400000000E-02 0.  1.
          1   -1    0    0  501    0  0.00000000000E+00 -0.00000000000E+00 -0.97866571195E+00  0.97867868954E+00  0.50400000000E-02 0. -1.
         23    2    1    2    0    0  0.00000000000E+00  0.00000000000E+00  0.24220649350E+04  0.24240222794E+04  0.97393335007E+02 0.  0.
    9000005    2    3    3    0    0  0.11587877799E+02  0.81766142085E+01  0.23690957345E+04  0.23691873258E+04  0.15259414768E+02 0.  0.
         22    1    3    3    0    0 -0.11587877799E+02 -0.81766142085E+01  0.52969200549E+02  0.54834953621E+02  0.00000000000E+00 0. -1.
         22    1    4    4    0    0  0.39039889738E+01  0.33105558050E+01  0.18017206886E+03  0.18024476500E+03  0.00000000000E+00 0. -1.
         22    1    4    4    0    0  0.76838888250E+01  0.48660584035E+01  0.21889236656E+04  0.21889425608E+04  0.00000000000E+00 0. -1.
<mgrwt>
<rscale>  0 0.97393335E+02</rscale>
<asrwt>0</asrwt>
<pdfrwt beam="2">  1        1 0.15056452E-03 0.97393335E+02</pdfrwt>
<pdfrwt beam="1">  1       -1 0.37277702E+00 0.97393335E+02</pdfrwt>
<totfact> 0.29954796E+03</totfact>
</mgrwt>
</event>
<event>
 7    1  0.3345055E-009  0.9155258E+02  0.7818608E-02  0.1299135E+00
          1   -1    0    0  501    0  0.00000000000E+00  0.00000000000E+00  0.19563906790E+03  0.19563906796E+03  0.50400000000E-02 0. -1.
         -1   -1    0    0    0  501 -0.00000000000E+00 -0.00000000000E+00 -0.10710890843E+02  0.10710892028E+02  0.50400000000E-02 0.  1.
         23    2    1    2    0    0  0.00000000000E+00  0.11102230246E-15  0.18492817705E+03  0.20634995999E+03  0.91552582265E+02 0.  0.
    9000005    2    3    3    0    0  0.20037476045E+02  0.60207592601E+00  0.18499329216E+03  0.18630333480E+03  0.91951872781E+01 0.  0.
         22    1    3    3    0    0 -0.20037476045E+02 -0.60207592601E+00 -0.65115109443E-01  0.20046625194E+02  0.00000000000E+00 0.  1.
         22    1    4    4    0    0  0.99657911798E+01  0.44039242479E+01  0.11056045658E+03  0.11109602199E+03  0.00000000000E+00 0.  1.
         22    1    4    4    0    0  0.10071684865E+02 -0.38018483219E+01  0.74432835579E+02  0.75207312803E+02  0.00000000000E+00 0.  1.
<mgrwt>
<rscale>  0 0.91552582E+02</rscale>
<asrwt>0</asrwt>
<pdfrwt beam="1">  1        1 0.30098313E-01 0.91552582E+02</pdfrwt>
<pdfrwt beam="2">  1       -1 0.16478298E-02 0.91552582E+02</pdfrwt>
<totfact> 0.11660637E+05</totfact>
</mgrwt>
</event>
<event>
 7    1  0.3345055E-009  0.8892486E+02  0.7818608E-02  0.1305476E+00
          1   -1    0    0  501    0  0.00000000000E+00  0.00000000000E+00  0.52716938399E+01  0.52716962492E+01  0.50400000000E-02 0. -1.
         -1   -1    0    0    0  501 -0.00000000000E+00 -0.00000000000E+00 -0.37500417962E+03  0.37500417966E+03  0.50400000000E-02 0.  1.
         23    2    1    2    0    0  0.00000000000E+00  0.17763568394E-14 -0.36973248578E+03  0.38027587591E+03  0.88924860150E+02 0.  0.
    9000005    2    3    3    0    0  0.17343342521E+02  0.13847695469E+02 -0.34938314624E+03  0.35016531597E+03  0.73902256130E+01 0.  0.
         22    1    3    3    0    0 -0.17343342521E+02 -0.13847695469E+02 -0.20349339542E+02  0.30110559932E+02  0.00000000000E+00 0. -1.
         22    1    4    4    0    0  0.15151941046E+02  0.13461132204E+02 -0.33484745947E+03  0.33546028753E+03  0.00000000000E+00 0.  1.
         22    1    4    4    0    0  0.21914014753E+01  0.38656326490E+00 -0.14535686775E+02  0.14705028446E+02  0.00000000000E+00 0.  1.
<mgrwt>
<rscale>  0 0.88924860E+02</rscale>
<asrwt>0</asrwt>
<pdfrwt beam="1">  1        1 0.81103031E-03 0.88924860E+02</pdfrwt>
<pdfrwt beam="2">  1       -1 0.57692930E-01 0.88924860E+02</pdfrwt>
<totfact> 0.58723803E+04</totfact>
</mgrwt>
</event>
<event>
 7    1  0.3345055E-009  0.8952468E+02  0.7818608E-02  0.1304007E+00
         -1   -1    0    0    0  501 -0.00000000000E+00  0.00000000000E+00  0.41509269110E+01  0.41509299708E+01  0.50400000000E-02 0.  1.
          1   -1    0    0  501    0  0.00000000000E+00 -0.00000000000E+00 -0.48270332084E+03  0.48270332086E+03  0.50400000000E-02 0. -1.
         23    2    1    2    0    0  0.22204460493E-15 -0.71054273576E-14 -0.47855239393E+03  0.48685425083E+03  0.89524677173E+02 0.  0.
    9000005    2    3    3    0    0  0.15300748667E+01 -0.44455082198E+02 -0.22076998713E+03  0.22526226947E+03  0.50107250461E+01 0.  0.
         22    1    3    3    0    0 -0.15300748667E+01  0.44455082198E+02 -0.25778240679E+03  0.26159198136E+03  0.00000000000E+00 0. -1.
         22    1    4    4    0    0  0.24431962083E+01 -0.33607203759E+02 -0.17510338976E+03  0.17831604094E+03  0.00000000000E+00 0. -1.
         22    1    4    4    0    0 -0.91312134158E+00 -0.10847878439E+02 -0.45666597376E+02  0.46946228529E+02  0.00000000000E+00 0. -1.
<mgrwt>
<rscale>  0 0.89524677E+02</rscale>
<asrwt>0</asrwt>
<pdfrwt beam="2">  1        1 0.74262005E-01 0.89524677E+02</pdfrwt>
<pdfrwt beam="1">  1       -1 0.63860476E-03 0.89524677E+02</pdfrwt>
<totfact> 0.14554374E+05</totfact>
</mgrwt>
</event>
<event>
 7    1  0.3345055E-009  0.8705605E+02  0.7818608E-02  0.1310142E+00
         -1   -1    0    0    0  501 -0.00000000000E+00  0.00000000000E+00  0.47728253865E+02  0.47728254131E+02  0.50400000000E-02 0.  1.
          1   -1    0    0  501    0  0.00000000000E+00 -0.00000000000E+00 -0.39697428110E+02  0.39697428430E+02  0.50400000000E-02 0. -1.
         23    2    1    2    0    0  0.00000000000E+00 -0.88817841970E-15  0.80308257554E+01  0.87425682561E+02  0.87056049812E+02 0.  0.
    9000005    2    3    3    0    0 -0.38679554714E+02  0.37133737448E+01 -0.14840854590E+02  0.42336760870E+02  0.78900734174E+01 0.  0.
         22    1    3    3    0    0  0.38679554714E+02 -0.37133737448E+01  0.22871680345E+02  0.45088921691E+02  0.00000000000E+00 0. -1.
         22    1    4    4    0    0 -0.57767993537E+01 -0.13874259162E+01 -0.14718742371E+00  0.59428970699E+01  0.00000000000E+00 0.  1.
         22    1    4    4    0    0 -0.32902755360E+02  0.51007996610E+01 -0.14693667166E+02  0.36393863800E+02  0.00000000000E+00 0.  1.
<mgrwt>
<rscale>  0 0.87056050E+02</rscale>
<asrwt>0</asrwt>
<pdfrwt beam="2">  1        1 0.61072967E-02 0.87056050E+02</pdfrwt>
<pdfrwt beam="1">  1       -1 0.73428083E-02 0.87056050E+02</pdfrwt>
<totfact> 0.10313820E+05</totfact>
</mgrwt>
</event>
<event>
 7    1  0.3345055E-009  0.9068667E+02  0.7818608E-02  0.1301197E+00
         -1   -1    0    0    0  501 -0.00000000000E+00  0.00000000000E+00  0.24154347150E+02  0.24154347676E+02  0.50400000000E-02 0.  1.
          1   -1    0    0  501    0  0.00000000000E+00 -0.00000000000E+00 -0.85119994660E+02  0.85119994809E+02  0.50400000000E-02 0. -1.
         23    2    1    2    0    0  0.00000000000E+00  0.00000000000E+00 -0.60965647510E+02  0.10927434248E+03  0.90686667979E+02 0.  0.
    9000005    2    3    3    0    0 -0.17215920163E+02 -0.37800374760E+02 -0.10071473631E+02  0.43582081343E+02  0.85268396251E+01 0.  0.
         22    1    3    3    0    0  0.17215920163E+02  0.37800374760E+02 -0.50894173879E+02  0.65692261142E+02  0.00000000000E+00 0. -1.
         22    1    4    4    0    0 -0.14499843176E+02 -0.22201556883E+02 -0.52607254830E+01  0.27033864185E+02  0.00000000000E+00 0.  1.
         22    1    4    4    0    0 -0.27160769875E+01 -0.15598817877E+02 -0.48107481480E+01  0.16548217158E+02  0.00000000000E+00 0.  1.
<mgrwt>
<rscale>  0 0.90686668E+02</rscale>
<asrwt>0</asrwt>
<pdfrwt beam="2">  1        1 0.13095384E-01 0.90686668E+02</pdfrwt>
<pdfrwt beam="1">  1       -1 0.37160535E-02 0.90686668E+02</pdfrwt>
<totfact> 0.10325457E+05</totfact>
</mgrwt>
</event>
<event>
 7    1  0.3345055E-009  0.9601324E+02  0.7818608E-02  0.1288910E+00
         -1   -1    0    0    0  501 -0.00000000000E+00  0.00000000000E+00  0.13031405394E+03  0.13031405403E+03  0.50400000000E-02 0.  1.
          1   -1    0    0  501    0  0.00000000000E+00 -0.00000000000E+00 -0.17685242206E+02  0.17685242924E+02  0.50400000000E-02 0. -1.
         23    2    1    2    0    0  0.71054273576E-14  0.71054273576E-14  0.11262881173E+03  0.14799929696E+03  0.96013242150E+02 0.  0.
    9000005    2    3    3    0    0 -0.34907770786E+02 -0.32908772280E+02  0.56305708609E+02  0.74013949087E+02  0.24883897020E+01 0.  0.
         22    1    3    3    0    0  0.34907770786E+02  0.32908772280E+02  0.56323103121E+02  0.73985347870E+02  0.00000000000E+00 0.  1.
         22    1    4    4    0    0 -0.10068791383E+02 -0.10806653868E+02  0.18307200881E+02  0.23522710980E+02  0.00000000000E+00 0.  1.
         22    1    4    4    0    0 -0.24838979403E+02 -0.22102118412E+02  0.37998507727E+02  0.50491238107E+02  0.00000000000E+00 0.  1.
<mgrwt>
<rscale>  0 0.96013242E+02</rscale>
<asrwt>0</asrwt>
<pdfrwt beam="2">  1        1 0.27208066E-02 0.96013242E+02</pdfrwt>
<pdfrwt beam="1">  1       -1 0.20048316E-01 0.96013242E+02</pdfrwt>
<totfact> 0.67499739E+04</totfact>
</mgrwt>
</event>
<event>
 7    1  0.3345055E-009  0.9238753E+02  0.7818608E-02  0.1297171E+00
          1   -1    0    0  501    0  0.00000000000E+00  0.00000000000E+00  0.51548342467E+03  0.51548342470E+03  0.50400000000E-02 0. -1.
         -1   -1    0    0    0  501 -0.00000000000E+00 -0.00000000000E+00 -0.41395377812E+01  0.41395408494E+01  0.50400000000E-02 0.  1.
         23    2    1    2    0    0 -0.71054273576E-14  0.17763568394E-14  0.51134388689E+03  0.51962296555E+03  0.92387529799E+02 0.  0.
    9000005    2    3    3    0    0 -0.40180165467E+02  0.12275930692E+02  0.35706990991E+03  0.35973048872E+03  0.11914687661E+02 0.  0.
         22    1    3    3    0    0  0.40180165467E+02 -0.12275930692E+02  0.15427397698E+03  0.15989247682E+03  0.00000000000E+00 0.  1.
         22    1    4    4    0    0 -0.69970950530E+01  0.31279567560E+01  0.35168003356E+02  0.35993498200E+02  0.00000000000E+00 0. -1.
         22    1    4    4    0    0 -0.33183070414E+02  0.91479739356E+01  0.32190190656E+03  0.32373699052E+03  0.00000000000E+00 0. -1.
<mgrwt>
<rscale>  0 0.92387530E+02</rscale>
<asrwt>0</asrwt>
<pdfrwt beam="1">  1        1 0.79305134E-01 0.92387530E+02</pdfrwt>
<pdfrwt beam="2">  1       -1 0.63685227E-03 0.92387530E+02</pdfrwt>
<totfact> 0.13494556E+05</totfact>
</mgrwt>
</event>
<event>
 7    1  0.3345055E-009  0.1065884E+03  0.7818608E-02  0.1267021E+00
         -1   -1    0    0    0  501 -0.00000000000E+00  0.00000000000E+00  0.30448703384E+02  0.30448703801E+02  0.50400000000E-02 0.  1.
          1   -1    0    0  501    0  0.00000000000E+00 -0.00000000000E+00 -0.93280595862E+02  0.93280595998E+02  0.50400000000E-02 0. -1.
         23    2    1    2    0    0  0.00000000000E+00  0.00000000000E+00 -0.62831892478E+02  0.12372929980E+03  0.10658842769E+03 0.  0.
    9000005    2    3    3    0    0 -0.19287441767E+02 -0.81190445849E+01 -0.88256310397E+02  0.90800204437E+02  0.41924343785E+01 0.  0.
         22    1    3    3    0    0  0.19287441767E+02  0.81190445849E+01  0.25424417919E+02  0.32929095362E+02  0.00000000000E+00 0.  1.
         22    1    4    4    0    0 -0.14372305529E+02 -0.70541341243E+01 -0.73048463888E+02  0.74782364571E+02  0.00000000000E+00 0. -1.
         22    1    4    4    0    0 -0.49151362373E+01 -0.10649104606E+01 -0.15207846509E+02  0.16017839866E+02  0.00000000000E+00 0. -1.
<mgrwt>
<rscale>  0 0.10658843E+03</rscale>
<asrwt>0</asrwt>
<pdfrwt beam="2">  1        1 0.14350861E-01 0.10658843E+03</pdfrwt>
<pdfrwt beam="1">  1       -1 0.46844160E-02 0.10658843E+03</pdfrwt>
<totfact> 0.67082552E+04</totfact>
</mgrwt>
</event>
<event>
 7    1  0.3345055E-009  0.9276702E+02  0.7818608E-02  0.1296286E+00
          1   -1    0    0  501    0  0.00000000000E+00  0.00000000000E+00  0.13125468264E+03  0.13125468274E+03  0.50400000000E-02 0. -1.
         -1   -1    0    0    0  501 -0.00000000000E+00 -0.00000000000E+00 -0.16391263625E+02  0.16391264400E+02  0.50400000000E-02 0.  1.
         23    2    1    2    0    0  0.00000000000E+00  0.35527136788E-14  0.11486341902E+03  0.14764594714E+03  0.92767023658E+02 0.  0.
    9000005    2    3    3    0    0  0.33664938162E+02  0.26920907817E+02  0.32446102768E+02  0.54636929529E+02  0.86244503831E+01 0.  0.
         22    1    3    3    0    0 -0.33664938162E+02 -0.26920907817E+02  0.82417316252E+02  0.93009017613E+02  0.00000000000E+00 0. -1.
         22    1    4    4    0    0  0.83147394552E+00  0.12302971296E+01 -0.42761494768E+00  0.15452619495E+01  0.00000000000E+00 0.  1.
         22    1    4    4    0    0  0.32833464216E+02  0.25690610687E+02  0.32873717715E+02  0.53091667579E+02  0.00000000000E+00 0.  1.
<mgrwt>
<rscale>  0 0.92767024E+02</rscale>
<asrwt>0</asrwt>
<pdfrwt beam="1">  1        1 0.20193028E-01 0.92767024E+02</pdfrwt>
<pdfrwt beam="2">  1       -1 0.25217330E-02 0.92767024E+02</pdfrwt>
<totfact> 0.10444153E+05</totfact>
</mgrwt>
</event>
<event>
 7    1  0.3345055E-009  0.9316467E+02  0.7818608E-02  0.1295364E+00
          1   -1    0    0  501    0  0.00000000000E+00  0.00000000000E+00  0.10643359512E+02  0.10643360705E+02  0.50400000000E-02 0. -1.
         -1   -1    0    0    0  501 -0.00000000000E+00 -0.00000000000E+00 -0.20387490955E+03  0.20387490961E+03  0.50400000000E-02 0.  1.
         23    2    1    2    0    0  0.00000000000E+00  0.00000000000E+00 -0.19323155004E+03  0.21451827032E+03  0.93164673401E+02 0.  0.
    9000005    2    3    3    0    0  0.12887574299E+02  0.10343406613E+02 -0.19644412148E+03  0.19768389338E+03  0.14681730330E+02 0.  0.
         22    1    3    3    0    0 -0.12887574299E+02 -0.10343406613E+02  0.32125714421E+01  0.16834376939E+02  0.00000000000E+00 0. -1.
         22    1    4    4    0    0  0.49123307779E+00 -0.21669904474E+01 -0.55383051296E+01  0.59674099276E+01  0.00000000000E+00 0.  1.
         22    1    4    4    0    0  0.12396341221E+02  0.12510397060E+02 -0.19090581635E+03  0.19171648345E+03  0.00000000000E+00 0.  1.
<mgrwt>
<rscale>  0 0.93164673E+02</rscale>
<asrwt>0</asrwt>
<pdfrwt beam="1">  1        1 0.16374402E-02 0.93164673E+02</pdfrwt>
<pdfrwt beam="2">  1       -1 0.31365368E-01 0.93164673E+02</pdfrwt>
<totfact> 0.65263124E+04</totfact>
</mgrwt>
</event>
<event>
 7    1  0.3345055E-009  0.9127570E+02  0.7818608E-02  0.1299791E+00
          1   -1    0    0  501    0  0.00000000000E+00  0.00000000000E+00  0.14764496721E+02  0.14764497581E+02  0.50400000000E-02 0. -1.
         -1   -1    0    0    0  501 -0.00000000000E+00 -0.00000000000E+00 -0.14106903268E+03  0.14106903277E+03  0.50400000000E-02 0.  1.
         23    2    1    2    0    0  0.00000000000E+00  0.71054273576E-14 -0.12630453596E+03  0.15583353035E+03  0.91275699820E+02 0.  0.
    9000005    2    3    3    0    0  0.10782979087E+02 -0.42407376830E+02 -0.52053325796E+02  0.69648262129E+02  0.15055678121E+02 0.  0.
         22    1    3    3    0    0 -0.10782979087E+02  0.42407376830E+02 -0.74251210160E+02  0.86185268218E+02  0.00000000000E+00 0.  1.
         22    1    4    4    0    0  0.42617728303E+01 -0.33833118131E+02 -0.31403711124E+02  0.46357692593E+02  0.00000000000E+00 0. -1.
         22    1    4    4    0    0  0.65212062562E+01 -0.85742586988E+01 -0.20649614671E+02  0.23290569537E+02  0.00000000000E+00 0. -1.
<mgrwt>
<rscale>  0 0.91275700E+02</rscale>
<asrwt>0</asrwt>
<pdfrwt beam="1">  1        1 0.22714612E-02 0.91275700E+02</pdfrwt>
<pdfrwt beam="2">  1       -1 0.21702927E-01 0.91275700E+02</pdfrwt>
<totfact> 0.75637255E+04</totfact>
</mgrwt>
</event>
<event>
 7    1  0.3345055E-009  0.8582417E+02  0.7818608E-02  0.1313291E+00
          1   -1    0    0  501    0  0.00000000000E+00  0.00000000000E+00  0.37215514283E+01  0.37215548410E+01  0.50400000000E-02 0. -1.
         -1   -1    0    0    0  501 -0.00000000000E+00 -0.00000000000E+00 -0.49480607545E+03  0.49480607547E+03  0.50400000000E-02 0.  1.
         23    2    1    2    0    0  0.00000000000E+00  0.00000000000E+00 -0.49108452402E+03  0.49852763032E+03  0.85824171744E+02 0.  0.
    9000005    2    3    3    0    0  0.24807889189E+02  0.21008000018E+02 -0.40396787329E+03  0.40554333990E+03  0.14784804723E+02 0.  0.
         22    1    3    3    0    0 -0.24807889189E+02 -0.21008000018E+02 -0.87116650729E+02  0.92984290420E+02  0.00000000000E+00 0. -1.
         22    1    4    4    0    0  0.17578370585E+02  0.21695028592E+02 -0.28879155524E+03  0.29013830453E+03  0.00000000000E+00 0. -1.
         22    1    4    4    0    0  0.72295186040E+01 -0.68702857428E+00 -0.11517631805E+03  0.11540503536E+03  0.00000000000E+00 0. -1.
<mgrwt>
<rscale>  0 0.85824172E+02</rscale>
<asrwt>0</asrwt>
<pdfrwt beam="1">  1        1 0.57254703E-03 0.85824172E+02</pdfrwt>
<pdfrwt beam="2">  1       -1 0.76123960E-01 0.85824172E+02</pdfrwt>
<totfact> 0.55463291E+04</totfact>
</mgrwt>
</event>
<event>
 7    1  0.3345055E-009  0.9379643E+02  0.7818608E-02  0.1293910E+00
          1   -1    0    0  501    0  0.00000000000E+00  0.00000000000E+00  0.37779538156E+02  0.37779538493E+02  0.50400000000E-02 0. -1.
         -1   -1    0    0    0  501 -0.00000000000E+00 -0.00000000000E+00 -0.58217821379E+02  0.58217821597E+02  0.50400000000E-02 0.  1.
         23    2    1    2    0    0 -0.17763568394E-14  0.00000000000E+00 -0.20438283222E+02  0.95997360089E+02  0.93796427027E+02 0.  0.
    9000005    2    3    3    0    0  0.15255513490E+02 -0.35509301209E+02 -0.36539515014E+02  0.54129821000E+02  0.10062812722E+02 0.  0.
         22    1    3    3    0    0 -0.15255513490E+02  0.35509301209E+02  0.16101231791E+02  0.41867539089E+02  0.00000000000E+00 0. -1.
         22    1    4    4    0    0  0.80139197295E+01 -0.27927519808E+02 -0.23309807788E+02  0.37249381353E+02  0.00000000000E+00 0. -1.
         22    1    4    4    0    0  0.72415937604E+01 -0.75817814006E+01 -0.13229707226E+02  0.16880439647E+02  0.00000000000E+00 0. -1.
<mgrwt>
<rscale>  0 0.93796427E+02</rscale>
<asrwt>0</asrwt>
<pdfrwt beam="1">  1        1 0.58122367E-02 0.93796427E+02</pdfrwt>
<pdfrwt beam="2">  1       -1 0.89565880E-02 0.93796427E+02</pdfrwt>
<totfact> 0.82923396E+04</totfact>
</mgrwt>
</event>
<event>
 7    1  0.3345055E-009  0.9221044E+02  0.7818608E-02  0.1297585E+00
         -1   -1    0    0    0  501 -0.00000000000E+00  0.00000000000E+00  0.37608156789E+02  0.37608157127E+02  0.50400000000E-02 0.  1.
          1   -1    0    0  501    0  0.00000000000E+00 -0.00000000000E+00 -0.56522079446E+02  0.56522079671E+02  0.50400000000E-02 0. -1.
         23    2    1    2    0    0  0.00000000000E+00  0.00000000000E+00 -0.18913922657E+02  0.94130236798E+02  0.92210438723E+02 0.  0.
    9000005    2    3    3    0    0  0.37214238144E+02 -0.14186798913E+02 -0.32130519045E+02  0.52167834530E+02  0.10146325512E+02 0.  0.
         22    1    3    3    0    0 -0.37214238144E+02  0.14186798913E+02  0.13216596388E+02  0.41962402268E+02  0.00000000000E+00 0.  1.
         22    1    4    4    0    0  0.59259757834E+00  0.11781194042E+01 -0.16067945916E+01  0.20786837374E+01  0.00000000000E+00 0. -1.
         22    1    4    4    0    0  0.36621640565E+02 -0.15364918317E+02 -0.30523724454E+02  0.50089150793E+02  0.00000000000E+00 0. -1.
<mgrwt>
<rscale>  0 0.92210439E+02</rscale>
<asrwt>0</asrwt>
<pdfrwt beam="2">  1        1 0.86957046E-02 0.92210439E+02</pdfrwt>
<pdfrwt beam="1">  1       -1 0.57858703E-02 0.92210439E+02</pdfrwt>
<totfact> 0.92554303E+04</totfact>
</mgrwt>
</event>
<event>
 7    1  0.3345055E-009  0.9479961E+02  0.7818608E-02  0.1291628E+00
          1   -1    0    0  501    0  0.00000000000E+00  0.00000000000E+00  0.69235076867E+02  0.69235077050E+02  0.50400000000E-02 0. -1.
         -1   -1    0    0    0  501 -0.00000000000E+00 -0.00000000000E+00 -0.32450916439E+02  0.32450916831E+02  0.50400000000E-02 0.  1.
         23    2    1    2    0    0  0.35527136788E-14 -0.17763568394E-14  0.36784160428E+02  0.10168599388E+03  0.94799614415E+02 0.  0.
    9000005    2    3    3    0    0  0.24431136449E+02 -0.12498287056E+02  0.58956685849E+02  0.66405567423E+02  0.13443250016E+02 0.  0.
         22    1    3    3    0    0 -0.24431136449E+02  0.12498287056E+02 -0.22172525421E+02  0.35280426458E+02  0.00000000000E+00 0.  1.
         22    1    4    4    0    0  0.84887412827E+01 -0.17929981098E+01  0.74506230671E+01  0.11436142482E+02  0.00000000000E+00 0. -1.
         22    1    4    4    0    0  0.15942395166E+02 -0.10705288946E+02  0.51506062782E+02  0.54969424941E+02  0.00000000000E+00 0. -1.
<mgrwt>
<rscale>  0 0.94799614E+02</rscale>
<asrwt>0</asrwt>
<pdfrwt beam="1">  1        1 0.10651550E-01 0.94799614E+02</pdfrwt>
<pdfrwt beam="2">  1       -1 0.49924488E-02 0.94799614E+02</pdfrwt>
<totfact> 0.88425238E+04</totfact>
</mgrwt>
</event>
<event>
 7    1  0.3345055E-009  0.9239153E+02  0.7818608E-02  0.1297161E+00
          1   -1    0    0  501    0  0.00000000000E+00  0.00000000000E+00  0.68997912215E+02  0.68997912400E+02  0.50400000000E-02 0. -1.
         -1   -1    0    0    0  501 -0.00000000000E+00 -0.00000000000E+00 -0.30929176720E+02  0.30929177131E+02  0.50400000000E-02 0.  1.
         23    2    1    2    0    0  0.71054273576E-14  0.00000000000E+00  0.38068735495E+02  0.99927089530E+02  0.92391528831E+02 0.  0.
    9000005    2    3    3    0    0 -0.44667266929E+02 -0.76372801384E+01  0.25694294455E+02  0.52952420038E+02  0.95010124446E+01 0.  0.
         22    1    3    3    0    0  0.44667266929E+02  0.76372801384E+01  0.12374441040E+02  0.46974669492E+02  0.00000000000E+00 0.  1.
         22    1    4    4    0    0 -0.32223858880E+01 -0.17730690723E+01 -0.28320347906E+00  0.36888682487E+01  0.00000000000E+00 0.  1.
         22    1    4    4    0    0 -0.41444881041E+02 -0.58642110662E+01  0.25977497934E+02  0.49263551789E+02  0.00000000000E+00 0.  1.
<mgrwt>
<rscale>  0 0.92391529E+02</rscale>
<asrwt>0</asrwt>
<pdfrwt beam="1">  1        1 0.10615063E-01 0.92391529E+02</pdfrwt>
<pdfrwt beam="2">  1       -1 0.47583349E-02 0.92391529E+02</pdfrwt>
<totfact> 0.94910980E+04</totfact>
</mgrwt>
</event>
<event>
 7    1  0.3345055E-009  0.9252894E+02  0.7818608E-02  0.1296841E+00
          1   -1    0    0  501    0  0.00000000000E+00  0.00000000000E+00  0.22037983749E+02  0.22037984325E+02  0.50400000000E-02 0.  1.
         -1   -1    0    0    0  501 -0.00000000000E+00 -0.00000000000E+00 -0.97123265502E+02  0.97123265633E+02  0.50400000000E-02 0. -1.
         23    2    1    2    0    0  0.00000000000E+00  0.00000000000E+00 -0.75085281754E+02  0.11916124996E+03  0.92528935774E+02 0.  0.
    9000005    2    3    3    0    0 -0.14402222489E+02 -0.14833419538E+02  0.13372015940E+02  0.28319916508E+02  0.13991158383E+02 0.  0.
         22    1    3    3    0    0  0.14402222489E+02  0.14833419538E+02 -0.88457297694E+02  0.90841333450E+02  0.00000000000E+00 0. -1.
         22    1    4    4    0    0 -0.10675129461E+01  0.26869000080E+01  0.96953965035E+00  0.30494298937E+01  0.00000000000E+00 0. -1.
         22    1    4    4    0    0 -0.13334709543E+02 -0.17520319546E+02  0.12402476290E+02  0.25270486614E+02  0.00000000000E+00 0. -1.
<mgrwt>
<rscale>  0 0.92528936E+02</rscale>
<asrwt>0</asrwt>
<pdfrwt beam="1">  1        1 0.33904591E-02 0.92528936E+02</pdfrwt>
<pdfrwt beam="2">  1       -1 0.14942041E-01 0.92528936E+02</pdfrwt>
<totfact> 0.78765724E+04</totfact>
</mgrwt>
</event>
<event>
 7    1  0.3345055E-009  0.9403069E+02  0.7818608E-02  0.1293374E+00
          1   -1    0    0  501    0  0.00000000000E+00  0.00000000000E+00  0.37154902776E+03  0.37154902780E+03  0.50400000000E-02 0. -1.
         -1   -1    0    0    0  501 -0.00000000000E+00 -0.00000000000E+00 -0.59492612529E+01  0.59492633878E+01  0.50400000000E-02 0.  1.
         23    2    1    2    0    0 -0.71054273576E-14  0.00000000000E+00  0.36559976651E+03  0.37749829118E+03  0.94030689540E+02 0.  0.
    9000005    2    3    3    0    0  0.37620794457E+02  0.17385457687E+02  0.26862814954E+03  0.27204179393E+03  0.11317093590E+02 0.  0.
         22    1    3    3    0    0 -0.37620794457E+02 -0.17385457687E+02  0.96971616970E+02  0.10545649725E+03  0.00000000000E+00 0.  1.
         22    1    4    4    0    0  0.35091542101E+02  0.12157580912E+02  0.22971986365E+03  0.23270246852E+03  0.00000000000E+00 0.  1.
         22    1    4    4    0    0  0.25292523554E+01  0.52278767746E+01  0.38908285888E+02  0.39339325411E+02  0.00000000000E+00 0.  1.
<mgrwt>
<rscale>  0 0.94030690E+02</rscale>
<asrwt>0</asrwt>
<pdfrwt beam="1">  1        1 0.57161406E-01 0.94030690E+02</pdfrwt>
<pdfrwt beam="2">  1       -1 0.91527085E-03 0.94030690E+02</pdfrwt>
<totfact> 0.12272449E+05</totfact>
</mgrwt>
</event>
<event>
 7    1  0.3345055E-009  0.9167160E+02  0.7818608E-02  0.1298853E+00
          1   -1    0    0  501    0  0.00000000000E+00  0.00000000000E+00  0.90073245026E+02  0.90073245167E+02  0.50400000000E-02 0. -1.
         -1   -1    0    0    0  501 -0.00000000000E+00 -0.00000000000E+00 -0.23324581276E+02  0.23324581820E+02  0.50400000000E-02 0.  1.
         23    2    1    2    0    0  0.00000000000E+00  0.00000000000E+00  0.66748663750E+02  0.11339782699E+03  0.91671604398E+02 0.  0.
    9000005    2    3    3    0    0 -0.35836378663E+02 -0.26744605622E+02  0.36192833469E+02  0.59238998253E+02  0.14135690786E+02 0.  0.
         22    1    3    3    0    0  0.35836378663E+02  0.26744605622E+02  0.30555830282E+02  0.54158828733E+02  0.00000000000E+00 0.  1.
         22    1    4    4    0    0 -0.17499908719E+01 -0.57057939150E+01  0.12815803669E+01  0.61041789365E+01  0.00000000000E+00 0.  1.
         22    1    4    4    0    0 -0.34086387792E+02 -0.21038811707E+02  0.34911253102E+02  0.53134819317E+02  0.00000000000E+00 0.  1.
<mgrwt>
<rscale>  0 0.91671604E+02</rscale>
<asrwt>0</asrwt>
<pdfrwt beam="1">  1        1 0.13857422E-01 0.91671604E+02</pdfrwt>
<pdfrwt beam="2">  1       -1 0.35883972E-02 0.91671604E+02</pdfrwt>
<totfact> 0.10116372E+05</totfact>
</mgrwt>
</event>
<event>
 7    1  0.3345055E-009  0.9097811E+02  0.7818608E-02  0.1300500E+00
         -1   -1    0    0    0  501 -0.00000000000E+00  0.00000000000E+00  0.58055535612E+02  0.58055535831E+02  0.50400000000E-02 0.  1.
          1   -1    0    0  501    0  0.00000000000E+00 -0.00000000000E+00 -0.35642667198E+02  0.35642667555E+02  0.50400000000E-02 0. -1.
         23    2    1    2    0    0  0.00000000000E+00  0.00000000000E+00  0.22412868414E+02  0.93698203386E+02  0.90978110813E+02 0.  0.
    9000005    2    3    3    0    0  0.25163912011E+02 -0.29201804012E+02 -0.11135922496E+02  0.42595471592E+02  0.14296769043E+02 0.  0.
         22    1    3    3    0    0 -0.25163912011E+02  0.29201804012E+02  0.33548790910E+02  0.51102731793E+02  0.00000000000E+00 0.  1.
         22    1    4    4    0    0  0.12586400099E+02 -0.52759431545E+01 -0.67005333137E+01  0.15203624249E+02  0.00000000000E+00 0.  1.
         22    1    4    4    0    0  0.12577511912E+02 -0.23925860858E+02 -0.44353891819E+01  0.27391847343E+02  0.00000000000E+00 0.  1.
<mgrwt>
<rscale>  0 0.90978111E+02</rscale>
<asrwt>0</asrwt>
<pdfrwt beam="2">  1        1 0.54834873E-02 0.90978111E+02</pdfrwt>
<pdfrwt beam="1">  1       -1 0.89316209E-02 0.90978111E+02</pdfrwt>
<totfact> 0.89629396E+04</totfact>
</mgrwt>
</event>
<event>
 7    1  0.3345055E-009  0.9068306E+02  0.7818608E-02  0.1301206E+00
          1   -1    0    0  501    0  0.00000000000E+00  0.00000000000E+00  0.31305093472E+03  0.31305093476E+03  0.50400000000E-02 0. -1.
         -1   -1    0    0    0  501 -0.00000000000E+00 -0.00000000000E+00 -0.65671556329E+01  0.65671575669E+01  0.50400000000E-02 0.  1.
         23    2    1    2    0    0  0.00000000000E+00  0.00000000000E+00  0.30648377909E+03  0.31961809233E+03  0.90683064017E+02 0.  0.
    9000005    2    3    3    0    0 -0.14091418384E+02 -0.32920463904E+02  0.25086534608E+03  0.25346875291E+03  0.55373116464E+01 0.  0.
         22    1    3    3    0    0  0.14091418384E+02  0.32920463904E+02  0.55618433007E+02  0.66149339421E+02  0.00000000000E+00 0.  1.
         22    1    4    4    0    0 -0.93252139411E+01 -0.27391811402E+02  0.20044939487E+03  0.20252711140E+03  0.00000000000E+00 0. -1.
         22    1    4    4    0    0 -0.47662044425E+01 -0.55286525017E+01  0.50415951212E+02  0.50941641512E+02  0.00000000000E+00 0. -1.
<mgrwt>
<rscale>  0 0.90683064E+02</rscale>
<asrwt>0</asrwt>
<pdfrwt beam="1">  1        1 0.48161674E-01 0.90683064E+02</pdfrwt>
<pdfrwt beam="2">  1       -1 0.10103320E-02 0.90683064E+02</pdfrwt>
<totfact> 0.13103958E+05</totfact>
</mgrwt>
</event>
<event>
 7    1  0.3345055E-009  0.9525066E+02  0.7818608E-02  0.1290613E+00
         -1   -1    0    0    0  501 -0.00000000000E+00  0.00000000000E+00  0.86349046142E+01  0.86349060851E+01  0.50400000000E-02 0.  1.
          1   -1    0    0  501    0  0.00000000000E+00 -0.00000000000E+00 -0.26267479647E+03  0.26267479651E+03  0.50400000000E-02 0. -1.
         23    2    1    2    0    0  0.00000000000E+00 -0.44408920985E-15 -0.25403989185E+03  0.27130970260E+03  0.95250659171E+02 0.  0.
    9000005    2    3    3    0    0  0.37987372594E+02  0.25826298298E+01 -0.20636758419E+03  0.21029856123E+03  0.13718403619E+02 0.  0.
         22    1    3    3    0    0 -0.37987372594E+02 -0.25826298298E+01 -0.47672307666E+02  0.61011141373E+02  0.00000000000E+00 0.  1.
         22    1    4    4    0    0  0.31536057162E+02 -0.22138598528E+01 -0.17917424627E+03  0.18194184401E+03  0.00000000000E+00 0.  1.
         22    1    4    4    0    0  0.64513154318E+01  0.47964896826E+01 -0.27193337918E+02  0.28356717215E+02  0.00000000000E+00 0.  1.
<mgrwt>
<rscale>  0 0.95250659E+02</rscale>
<asrwt>0</asrwt>
<pdfrwt beam="2">  1        1 0.40411501E-01 0.95250659E+02</pdfrwt>
<pdfrwt beam="1">  1       -1 0.13284472E-02 0.95250659E+02</pdfrwt>
<totfact> 0.11107943E+05</totfact>
</mgrwt>
</event>
<event>
 7    1  0.4694286E-009  0.9447226E+02  0.7818608E-02  0.1292369E+00
         -1   -1    0    0    0  501 -0.00000000000E+00  0.00000000000E+00  0.14884502347E+03  0.14884502356E+03  0.50400000000E-02 0.  1.
          1   -1    0    0  501    0  0.00000000000E+00 -0.00000000000E+00 -0.14990436826E+02  0.14990437673E+02  0.50400000000E-02 0. -1.
         23    2    1    2    0    0  0.00000000000E+00  0.00000000000E+00  0.13385458665E+03  0.16383546123E+03  0.94472260429E+02 0.  0.
    9000005    2    3    3    0    0 -0.45415166096E+02 -0.11118264265E+01  0.80868287899E+02  0.94040609526E+02  0.15497831552E+02 0.  0.
         22    1    3    3    0    0  0.45415166096E+02  0.11118264265E+01  0.52986298748E+02  0.69794851705E+02  0.00000000000E+00 0. -1.
         22    1    4    4    0    0 -0.85946388387E+01 -0.23881626225E+01  0.64700174713E+01  0.11019630827E+02  0.00000000000E+00 0. -1.
         22    1    4    4    0    0 -0.36820527257E+02  0.12763361960E+01  0.74398270428E+02  0.83020978700E+02  0.00000000000E+00 0. -1.
<mgrwt>
<rscale>  0 0.94472260E+02</rscale>
<asrwt>0</asrwt>
<pdfrwt beam="2">  1        1 0.23062212E-02 0.94472260E+02</pdfrwt>
<pdfrwt beam="1">  1       -1 0.22899234E-01 0.94472260E+02</pdfrwt>
<totfact> 0.68317848E+04</totfact>
</mgrwt>
</event>
<event>
 7    1  0.3345055E-009  0.8977594E+02  0.7818608E-02  0.1303395E+00
          1   -1    0    0  501    0  0.00000000000E+00  0.00000000000E+00  0.10314352491E+02  0.10314353723E+02  0.50400000000E-02 0. -1.
         -1   -1    0    0    0  501 -0.00000000000E+00 -0.00000000000E+00 -0.19535205084E+03  0.19535205091E+03  0.50400000000E-02 0.  1.
         23    2    1    2    0    0  0.00000000000E+00 -0.71054273576E-14 -0.18503769835E+03  0.20566640463E+03  0.89775944342E+02 0.  0.
    9000005    2    3    3    0    0 -0.91685855016E+01 -0.41126701109E+02 -0.12009551634E+03  0.12825222305E+03  0.15818696850E+02 0.  0.
         22    1    3    3    0    0  0.91685855016E+01  0.41126701109E+02 -0.64942182017E+02  0.77414181578E+02  0.00000000000E+00 0. -1.
         22    1    4    4    0    0  0.16360212707E+01 -0.26386660461E+02 -0.78068182947E+02  0.82423137556E+02  0.00000000000E+00 0.  1.
         22    1    4    4    0    0 -0.10804606772E+02 -0.14740040648E+02 -0.42027333388E+02  0.45829085497E+02  0.00000000000E+00 0.  1.
<mgrwt>
<rscale>  0 0.89775944E+02</rscale>
<asrwt>0</asrwt>
<pdfrwt beam="1">  1        1 0.15868237E-02 0.89775944E+02</pdfrwt>
<pdfrwt beam="2">  1       -1 0.30054159E-01 0.89775944E+02</pdfrwt>
<totfact> 0.72762180E+04</totfact>
</mgrwt>
</event>
<event>
 7    1  0.3345055E-009  0.9014123E+02  0.7818608E-02  0.1302510E+00
          1   -1    0    0  501    0  0.00000000000E+00  0.00000000000E+00  0.97778795441E+02  0.97778795571E+02  0.50400000000E-02 0. -1.
         -1   -1    0    0    0  501 -0.00000000000E+00 -0.00000000000E+00 -0.20775057344E+02  0.20775057955E+02  0.50400000000E-02 0.  1.
         23    2    1    2    0    0  0.00000000000E+00 -0.71054273576E-14  0.77003738097E+02  0.11855385353E+03  0.90141225335E+02 0.  0.
    9000005    2    3    3    0    0  0.61260147720E+01 -0.41295132172E+02  0.20857034341E+02  0.48587659255E+02  0.13525115611E+02 0.  0.
         22    1    3    3    0    0 -0.61260147720E+01  0.41295132172E+02  0.56146703757E+02  0.69966194271E+02  0.00000000000E+00 0. -1.
         22    1    4    4    0    0  0.31599103513E+01 -0.29640300440E+02  0.77500222282E+01  0.30799274150E+02  0.00000000000E+00 0.  1.
         22    1    4    4    0    0  0.29661044208E+01 -0.11654831732E+02  0.13107012112E+02  0.17788385105E+02  0.00000000000E+00 0.  1.
<mgrwt>
<rscale>  0 0.90141225E+02</rscale>
<asrwt>0</asrwt>
<pdfrwt beam="1">  1        1 0.15042891E-01 0.90141225E+02</pdfrwt>
<pdfrwt beam="2">  1       -1 0.31961628E-02 0.90141225E+02</pdfrwt>
<totfact> 0.10735237E+05</totfact>
</mgrwt>
</event>
<event>
 7    1  0.3345055E-009  0.8990208E+02  0.7818608E-02  0.1303089E+00
          1   -1    0    0  501    0  0.00000000000E+00  0.00000000000E+00  0.12486481530E+02  0.12486482547E+02  0.50400000000E-02 0. -1.
         -1   -1    0    0    0  501 -0.00000000000E+00 -0.00000000000E+00 -0.16182269630E+03  0.16182269638E+03  0.50400000000E-02 0.  1.
         23    2    1    2    0    0  0.00000000000E+00  0.00000000000E+00 -0.14933621477E+03  0.17430917892E+03  0.89902084601E+02 0.  0.
    9000005    2    3    3    0    0 -0.59073317963E+01  0.36596019739E+02 -0.12199677867E+03  0.12824824107E+03  0.13792465421E+02 0.  0.
         22    1    3    3    0    0  0.59073317963E+01 -0.36596019739E+02 -0.27339436101E+02  0.46060937854E+02  0.00000000000E+00 0. -1.
         22    1    4    4    0    0 -0.16424248966E+01  0.23076213078E+02 -0.53304233646E+02  0.58108093190E+02  0.00000000000E+00 0. -1.
         22    1    4    4    0    0 -0.42649068997E+01  0.13519806661E+02 -0.68692545022E+02  0.70140147880E+02  0.00000000000E+00 0. -1.
<mgrwt>
<rscale>  0 0.89902085E+02</rscale>
<asrwt>0</asrwt>
<pdfrwt beam="1">  1        1 0.19209974E-02 0.89902085E+02</pdfrwt>
<pdfrwt beam="2">  1       -1 0.24895798E-01 0.89902085E+02</pdfrwt>
<totfact> 0.76172219E+04</totfact>
</mgrwt>
</event>
<event>
 7    1  0.3345055E-009  0.9129800E+02  0.7818608E-02  0.1299739E+00
         -1   -1    0    0    0  501 -0.00000000000E+00  0.00000000000E+00  0.22654381765E+02  0.22654382326E+02  0.50400000000E-02 0.  1.
          1   -1    0    0  501    0  0.00000000000E+00 -0.00000000000E+00 -0.91983572983E+02  0.91983573121E+02  0.50400000000E-02 0. -1.
         23    2    1    2    0    0  0.00000000000E+00  0.00000000000E+00 -0.69329191218E+02  0.11463795545E+03  0.91297996002E+02 0.  0.
    9000005    2    3    3    0    0  0.95661302848E+01  0.25929305017E+02  0.90234194555E+01  0.31553833578E+02  0.12263058653E+02 0.  0.
         22    1    3    3    0    0 -0.95661302848E+01 -0.25929305017E+02 -0.78352610673E+02  0.83084121868E+02  0.00000000000E+00 0. -1.
         22    1    4    4    0    0  0.11094862430E+02  0.23524901465E+02  0.47845044892E+01  0.26446331400E+02  0.00000000000E+00 0. -1.
         22    1    4    4    0    0 -0.15287321456E+01  0.24044035514E+01  0.42389149664E+01  0.51075021785E+01  0.00000000000E+00 0. -1.
<mgrwt>
<rscale>  0 0.91297996E+02</rscale>
<asrwt>0</asrwt>
<pdfrwt beam="2">  1        1 0.14151319E-01 0.91297996E+02</pdfrwt>
<pdfrwt beam="1">  1       -1 0.34852896E-02 0.91297996E+02</pdfrwt>
<totfact> 0.10265129E+05</totfact>
</mgrwt>
</event>
<event>
 7    1  0.3345055E-009  0.8022154E+02  0.7818608E-02  0.1328424E+00
         -1   -1    0    0    0  501 -0.00000000000E+00  0.00000000000E+00  0.42882369254E+02  0.42882369550E+02  0.50400000000E-02 0.  1.
          1   -1    0    0  501    0  0.00000000000E+00 -0.00000000000E+00 -0.37518309658E+02  0.37518309997E+02  0.50400000000E-02 0. -1.
         23    2    1    2    0    0  0.00000000000E+00  0.17763568394E-14  0.53640595959E+01  0.80400679547E+02  0.80221544091E+02 0.  0.
    9000005    2    3    3    0    0  0.12904409402E+02 -0.11539579071E+02 -0.32135993507E+02  0.39097657262E+02  0.14007821298E+02 0.  0.
         22    1    3    3    0    0 -0.12904409402E+02  0.11539579071E+02  0.37500053103E+02  0.41303022285E+02  0.00000000000E+00 0.  1.
         22    1    4    4    0    0  0.33481865805E+01 -0.12237156415E+02 -0.18414355077E+02  0.22361726753E+02  0.00000000000E+00 0.  1.
         22    1    4    4    0    0  0.95562228218E+01  0.69757734409E+00 -0.13721638431E+02  0.16735930509E+02  0.00000000000E+00 0.  1.
<mgrwt>
<rscale>  0 0.80221544E+02</rscale>
<asrwt>0</asrwt>
<pdfrwt beam="2">  1        1 0.57720477E-02 0.80221544E+02</pdfrwt>
<pdfrwt beam="1">  1       -1 0.65972876E-02 0.80221544E+02</pdfrwt>
<totfact> 0.12850728E+05</totfact>
</mgrwt>
</event>
<event>
 7    1  0.3345055E-009  0.9194920E+02  0.7818608E-02  0.1298199E+00
          1   -1    0    0  501    0  0.00000000000E+00  0.00000000000E+00  0.57181608488E+02  0.57181608710E+02  0.50400000000E-02 0. -1.
         -1   -1    0    0    0  501 -0.00000000000E+00 -0.00000000000E+00 -0.36964051528E+02  0.36964051872E+02  0.50400000000E-02 0.  1.
         23    2    1    2    0    0  0.00000000000E+00  0.44408920985E-15  0.20217556960E+02  0.94145660582E+02  0.91949202264E+02 0.  0.
    9000005    2    3    3    0    0 -0.44472463287E+02 -0.29037653580E+01  0.20383181405E+02  0.49578191779E+02  0.75027442876E+01 0.  0.
         22    1    3    3    0    0  0.44472463287E+02  0.29037653580E+01 -0.16562444461E+00  0.44567468803E+02  0.00000000000E+00 0.  1.
         22    1    4    4    0    0 -0.22731572531E+02 -0.52265152453E+01  0.10153010123E+02  0.25438641196E+02  0.00000000000E+00 0.  1.
         22    1    4    4    0    0 -0.21740890756E+02  0.23227498873E+01  0.10230171281E+02  0.24139550583E+02  0.00000000000E+00 0.  1.
<mgrwt>
<rscale>  0 0.91949202E+02</rscale>
<asrwt>0</asrwt>
<pdfrwt beam="1">  1        1 0.87971705E-02 0.91949202E+02</pdfrwt>
<pdfrwt beam="2">  1       -1 0.56867772E-02 0.91949202E+02</pdfrwt>
<totfact> 0.93453273E+04</totfact>
</mgrwt>
</event>
<event>
 7    1  0.3345055E-009  0.9220759E+02  0.7818608E-02  0.1297592E+00
          1   -1    0    0  501    0  0.00000000000E+00  0.00000000000E+00  0.87584257262E+01  0.87584271763E+01  0.50400000000E-02 0. -1.
         -1   -1    0    0    0  501 -0.00000000000E+00 -0.00000000000E+00 -0.24268743463E+03  0.24268743468E+03  0.50400000000E-02 0.  1.
         23    2    1    2    0    0  0.00000000000E+00  0.00000000000E+00 -0.23392900891E+03  0.25144586186E+03  0.92207593176E+02 0.  0.
    9000005    2    3    3    0    0  0.28359269225E+02  0.23822080860E+01 -0.21536850465E+03  0.21746917302E+03  0.99662105736E+01 0.  0.
         22    1    3    3    0    0 -0.28359269225E+02 -0.23822080860E+01 -0.18560504260E+02  0.33976688843E+02  0.00000000000E+00 0. -1.
         22    1    4    4    0    0  0.13955704528E+02  0.59631858694E+01 -0.11916374934E+03  0.12012626869E+03  0.00000000000E+00 0. -1.
         22    1    4    4    0    0  0.14403564697E+02 -0.35809777834E+01 -0.96204755310E+02  0.97342904323E+02  0.00000000000E+00 0. -1.
<mgrwt>
<rscale>  0 0.92207593E+02</rscale>
<asrwt>0</asrwt>
<pdfrwt beam="1">  1        1 0.13474504E-02 0.92207593E+02</pdfrwt>
<pdfrwt beam="2">  1       -1 0.37336523E-01 0.92207593E+02</pdfrwt>
<totfact> 0.63518402E+04</totfact>
</mgrwt>
</event>
<event>
 7    1  0.3345055E-009  0.8820816E+02  0.7818608E-02  0.1307250E+00
         -1   -1    0    0    0  501 -0.00000000000E+00  0.00000000000E+00  0.18507821527E+03  0.18507821534E+03  0.50400000000E-02 0.  1.
          1   -1    0    0  501    0  0.00000000000E+00 -0.00000000000E+00 -0.10509988252E+02  0.10509989461E+02  0.50400000000E-02 0. -1.
         23    2    1    2    0    0  0.00000000000E+00  0.71054273576E-14  0.17456822702E+03  0.19558820480E+03  0.88208162733E+02 0.  0.
    9000005    2    3    3    0    0  0.16246208897E+02 -0.39130254778E+02  0.10165340161E+03  0.11125738062E+03  0.15801093038E+02 0.  0.
         22    1    3    3    0    0 -0.16246208897E+02  0.39130254778E+02  0.72914825408E+02  0.84330824180E+02  0.00000000000E+00 0. -1.
         22    1    4    4    0    0  0.14742708262E+02 -0.40375957299E+02  0.99270622791E+02  0.10817680862E+03  0.00000000000E+00 0. -1.
         22    1    4    4    0    0  0.15035006343E+01  0.12457025208E+01  0.23827788182E+01  0.30805719962E+01  0.00000000000E+00 0. -1.
<mgrwt>
<rscale>  0 0.88208163E+02</rscale>
<asrwt>0</asrwt>
<pdfrwt beam="2">  1        1 0.16169214E-02 0.88208163E+02</pdfrwt>
<pdfrwt beam="1">  1       -1 0.28473571E-01 0.88208163E+02</pdfrwt>
<totfact> 0.77310667E+04</totfact>
</mgrwt>
</event>
<event>
 7    1  0.3345055E-009  0.9065029E+02  0.7818608E-02  0.1301285E+00
         -1   -1    0    0    0  501 -0.00000000000E+00  0.00000000000E+00  0.51112532378E+01  0.51112557226E+01  0.50400000000E-02 0.  1.
          1   -1    0    0  501    0  0.00000000000E+00 -0.00000000000E+00 -0.40193045522E+03  0.40193045525E+03  0.50400000000E-02 0. -1.
         23    2    1    2    0    0  0.00000000000E+00  0.14210854715E-13 -0.39681920198E+03  0.40704171097E+03  0.90650291841E+02 0.  0.
    9000005    2    3    3    0    0 -0.94030878927E+01 -0.42602211060E+02 -0.24337762296E+03  0.24751840665E+03  0.11372239205E+02 0.  0.
         22    1    3    3    0    0  0.94030878927E+01  0.42602211060E+02 -0.15344157902E+03  0.15952330432E+03  0.00000000000E+00 0.  1.
         22    1    4    4    0    0  0.11790206869E+01  0.85439570084E-02 -0.60755794557E+01  0.61889278960E+01  0.00000000000E+00 0. -1.
         22    1    4    4    0    0 -0.10582108580E+02 -0.42610755017E+02 -0.23730204350E+03  0.24132947875E+03  0.00000000000E+00 0. -1.
<mgrwt>
<rscale>  0 0.90650292E+02</rscale>
<asrwt>0</asrwt>
<pdfrwt beam="2">  1        1 0.61835430E-01 0.90650292E+02</pdfrwt>
<pdfrwt beam="1">  1       -1 0.78634716E-03 0.90650292E+02</pdfrwt>
<totfact> 0.13708864E+05</totfact>
</mgrwt>
</event>
<event>
 7    1  0.3345055E-009  0.1025180E+03  0.7818608E-02  0.1275088E+00
          1   -1    0    0  501    0  0.00000000000E+00  0.00000000000E+00  0.33269471495E+03  0.33269471499E+03  0.50400000000E-02 0. -1.
         -1   -1    0    0    0  501 -0.00000000000E+00 -0.00000000000E+00 -0.78975844614E+01  0.78975860696E+01  0.50400000000E-02 0.  1.
         23    2    1    2    0    0  0.00000000000E+00  0.00000000000E+00  0.32479713049E+03  0.34059230106E+03  0.10251799630E+03 0.  0.
    9000005    2    3    3    0    0  0.10788880900E+02 -0.22860277366E+02  0.31008533242E+03  0.31134457918E+03  0.11980875348E+02 0.  0.
         22    1    3    3    0    0 -0.10788880900E+02  0.22860277366E+02  0.14711798070E+02  0.29247721873E+02  0.00000000000E+00 0.  1.
         22    1    4    4    0    0  0.24019540517E+01 -0.37410217643E+01  0.12612131217E+03  0.12619964346E+03  0.00000000000E+00 0.  1.
         22    1    4    4    0    0  0.83869268481E+01 -0.19119255601E+02  0.18396402025E+03  0.18514493572E+03  0.00000000000E+00 0.  1.
<mgrwt>
<rscale>  0 0.10251800E+03</rscale>
<asrwt>0</asrwt>
<pdfrwt beam="1">  1        1 0.51183787E-01 0.10251800E+03</pdfrwt>
<pdfrwt beam="2">  1       -1 0.12150135E-02 0.10251800E+03</pdfrwt>
<totfact> 0.95431168E+04</totfact>
</mgrwt>
</event>
<event>
 7    1  0.3345055E-009  0.8290985E+02  0.7818608E-02  0.1320991E+00
          1   -1    0    0  501    0  0.00000000000E+00  0.00000000000E+00  0.12404966953E+03  0.12404966964E+03  0.50400000000E-02 0. -1.
         -1   -1    0    0    0  501 -0.00000000000E+00 -0.00000000000E+00 -0.13853409167E+02  0.13853410084E+02  0.50400000000E-02 0.  1.
         23    2    1    2    0    0  0.00000000000E+00  0.35527136788E-14  0.11019626037E+03  0.13790307972E+03  0.82909852234E+02 0.  0.
    9000005    2    3    3    0    0 -0.16046593446E+02  0.22334740529E+02  0.52128349625E+01  0.29377260647E+02  0.89171743875E+01 0.  0.
         22    1    3    3    0    0  0.16046593446E+02 -0.22334740529E+02  0.10498342541E+03  0.10852581907E+03  0.00000000000E+00 0. -1.
         22    1    4    4    0    0 -0.13015895341E+01 -0.15992418020E-02  0.20478496223E+01  0.24264842774E+01  0.00000000000E+00 0. -1.
         22    1    4    4    0    0 -0.14745003912E+02  0.22336339771E+02  0.31649853402E+01  0.26950776370E+02  0.00000000000E+00 0. -1.
<mgrwt>
<rscale>  0 0.82909852E+02</rscale>
<asrwt>0</asrwt>
<pdfrwt beam="1">  1        1 0.19084564E-01 0.82909852E+02</pdfrwt>
<pdfrwt beam="2">  1       -1 0.21312939E-02 0.82909852E+02</pdfrwt>
<totfact> 0.13997055E+05</totfact>
</mgrwt>
</event>
<event>
 7    1  0.3345055E-009  0.9055757E+02  0.7818608E-02  0.1301507E+00
          1   -1    0    0  501    0  0.00000000000E+00  0.00000000000E+00  0.23150044068E+03  0.23150044073E+03  0.50400000000E-02 0. -1.
         -1   -1    0    0    0  501 -0.00000000000E+00 -0.00000000000E+00 -0.88560007620E+01  0.88560021962E+01  0.50400000000E-02 0.  1.
         23    2    1    2    0    0  0.00000000000E+00  0.88817841970E-15  0.22264443991E+03  0.24035644293E+03  0.90557567502E+02 0.  0.
    9000005    2    3    3    0    0 -0.42954781518E+02  0.57703491948E+01  0.82459109362E+02  0.93624247799E+02  0.93586790786E+01 0.  0.
         22    1    3    3    0    0  0.42954781518E+02 -0.57703491948E+01  0.14018533055E+03  0.14673219513E+03  0.00000000000E+00 0. -1.
         22    1    4    4    0    0 -0.36988151419E+02  0.80614207908E+01  0.68306661521E+02  0.78095517532E+02  0.00000000000E+00 0. -1.
         22    1    4    4    0    0 -0.59666300994E+01 -0.22910715960E+01  0.14152447841E+02  0.15528730267E+02  0.00000000000E+00 0. -1.
<mgrwt>
<rscale>  0 0.90557568E+02</rscale>
<asrwt>0</asrwt>
<pdfrwt beam="1">  1        1 0.35615454E-01 0.90557568E+02</pdfrwt>
<pdfrwt beam="2">  1       -1 0.13624617E-02 0.90557568E+02</pdfrwt>
<totfact> 0.12406901E+05</totfact>
</mgrwt>
</event>
<event>
 7    1  0.3345055E-009  0.1078171E+03  0.7818608E-02  0.1264666E+00
          1   -1    0    0  501    0  0.00000000000E+00  0.00000000000E+00  0.41255870392E+03  0.41255870395E+03  0.50400000000E-02 0. -1.
         -1   -1    0    0    0  501 -0.00000000000E+00 -0.00000000000E+00 -0.70441691145E+01  0.70441709176E+01  0.50400000000E-02 0.  1.
         23    2    1    2    0    0  0.00000000000E+00 -0.35527136788E-14  0.40551453480E+03  0.41960287487E+03  0.10781713528E+03 0.  0.
    9000005    2    3    3    0    0  0.27415352877E+01  0.21378095793E+02  0.39485804608E+03  0.39555916992E+03  0.94679122280E+01 0.  0.
         22    1    3    3    0    0 -0.27415352877E+01 -0.21378095793E+02  0.10656488726E+02  0.24043704944E+02  0.00000000000E+00 0.  1.
         22    1    4    4    0    0  0.28587609300E+01  0.18783640447E+02  0.38008364099E+03  0.38055823709E+03  0.00000000000E+00 0. -1.
         22    1    4    4    0    0 -0.11722564234E+00  0.25944553465E+01  0.14774405083E+02  0.15000932836E+02  0.00000000000E+00 0. -1.
<mgrwt>
<rscale>  0 0.10781714E+03</rscale>
<asrwt>0</asrwt>
<pdfrwt beam="1">  1        1 0.63470561E-01 0.10781714E+03</pdfrwt>
<pdfrwt beam="2">  1       -1 0.10837186E-02 0.10781714E+03</pdfrwt>
<totfact> 0.86544073E+04</totfact>
</mgrwt>
</event>
<event>
 7    1  0.3345055E-009  0.9245210E+02  0.7818608E-02  0.1297020E+00
         -1   -1    0    0    0  501 -0.00000000000E+00  0.00000000000E+00  0.88715580114E+02  0.88715580257E+02  0.50400000000E-02 0.  1.
          1   -1    0    0  501    0  0.00000000000E+00 -0.00000000000E+00 -0.24086499551E+02  0.24086500078E+02  0.50400000000E-02 0. -1.
         23    2    1    2    0    0  0.00000000000E+00  0.00000000000E+00  0.64629080563E+02  0.11280208034E+03  0.92452102591E+02 0.  0.
    9000005    2    3    3    0    0  0.14917297406E+02  0.25402240724E+02  0.75327547176E+02  0.81461104225E+02  0.96887843587E+01 0.  0.
         22    1    3    3    0    0 -0.14917297406E+02 -0.25402240724E+02 -0.10698466613E+02  0.31340976110E+02  0.00000000000E+00 0. -1.
         22    1    4    4    0    0  0.10367483496E+02  0.12411885501E+02  0.51084226926E+02  0.53582999695E+02  0.00000000000E+00 0. -1.
         22    1    4    4    0    0  0.45498139097E+01  0.12990355223E+02  0.24243320250E+02  0.27878104529E+02  0.00000000000E+00 0. -1.
<mgrwt>
<rscale>  0 0.92452103E+02</rscale>
<asrwt>0</asrwt>
<pdfrwt beam="2">  1        1 0.37056153E-02 0.92452103E+02</pdfrwt>
<pdfrwt beam="1">  1       -1 0.13648551E-01 0.92452103E+02</pdfrwt>
<totfact> 0.80236797E+04</totfact>
</mgrwt>
</event>
<event>
 7    1  0.3345055E-009  0.9014416E+02  0.7818608E-02  0.1302503E+00
          1   -1    0    0  501    0  0.00000000000E+00  0.00000000000E+00  0.68828049210E+02  0.68828049394E+02  0.50400000000E-02 0. -1.
         -1   -1    0    0    0  501 -0.00000000000E+00 -0.00000000000E+00 -0.29515474186E+02  0.29515474617E+02  0.50400000000E-02 0.  1.
         23    2    1    2    0    0  0.00000000000E+00  0.00000000000E+00  0.39312575023E+02  0.98343524011E+02  0.90144163205E+02 0.  0.
    9000005    2    3    3    0    0  0.68248577732E+01 -0.27517199576E+02  0.57051221287E+02  0.64900519849E+02  0.12387924369E+02 0.  0.
         22    1    3    3    0    0 -0.68248577732E+01  0.27517199576E+02 -0.17738646264E+02  0.33443004162E+02  0.00000000000E+00 0.  1.
         22    1    4    4    0    0  0.89333029755E+01 -0.19597178696E+02  0.48441817874E+02  0.53013800409E+02  0.00000000000E+00 0.  1.
         22    1    4    4    0    0 -0.21084452023E+01 -0.79200208796E+01  0.86094034136E+01  0.11886719440E+02  0.00000000000E+00 0.  1.
<mgrwt>
<rscale>  0 0.90144163E+02</rscale>
<asrwt>0</asrwt>
<pdfrwt beam="1">  1        1 0.10588931E-01 0.90144163E+02</pdfrwt>
<pdfrwt beam="2">  1       -1 0.45408422E-02 0.90144163E+02</pdfrwt>
<totfact> 0.10154808E+05</totfact>
</mgrwt>
</event>
<event>
 7    1  0.3345055E-009  0.8960351E+02  0.7818608E-02  0.1303815E+00
          1   -1    0    0  501    0  0.00000000000E+00  0.00000000000E+00  0.41909477298E+02  0.41909477601E+02  0.50400000000E-02 0. -1.
         -1   -1    0    0    0  501 -0.00000000000E+00 -0.00000000000E+00 -0.47893632393E+02  0.47893632659E+02  0.50400000000E-02 0.  1.
         23    2    1    2    0    0  0.00000000000E+00  0.00000000000E+00 -0.59841550959E+01  0.89803110259E+02  0.89603507186E+02 0.  0.
    9000005    2    3    3    0    0 -0.38604810985E+02  0.18271547800E+02 -0.12335698217E+02  0.46622987630E+02  0.14048225327E+02 0.  0.
         22    1    3    3    0    0  0.38604810985E+02 -0.18271547800E+02  0.63515431216E+01  0.43180122629E+02  0.00000000000E+00 0. -1.
         22    1    4    4    0    0 -0.23959397344E+02  0.44882691665E+01 -0.33861256168E+01  0.24610224052E+02  0.00000000000E+00 0.  1.
         22    1    4    4    0    0 -0.14645413641E+02  0.13783278633E+02 -0.89495726006E+01  0.22012763578E+02  0.00000000000E+00 0.  1.
<mgrwt>
<rscale>  0 0.89603507E+02</rscale>
<asrwt>0</asrwt>
<pdfrwt beam="1">  1        1 0.64476120E-02 0.89603507E+02</pdfrwt>
<pdfrwt beam="2">  1       -1 0.73682512E-02 0.89603507E+02</pdfrwt>
<totfact> 0.95886849E+04</totfact>
</mgrwt>
</event>
<event>
 7    1  0.3647105E-009  0.9218775E+02  0.7818608E-02  0.1297639E+00
          1   -1    0    0  501    0  0.00000000000E+00  0.00000000000E+00  0.18272043675E+04  0.18272043675E+04  0.50400000000E-02 0. -1.
         -1   -1    0    0    0  501 -0.00000000000E+00 -0.00000000000E+00 -0.11627791835E+01  0.11627901063E+01  0.50400000000E-02 0.  1.
         23    2    1    2    0    0  0.17763568394E-14  0.00000000000E+00  0.18260415883E+04  0.18283671576E+04  0.92187747436E+02 0.  0.
    9000005    2    3    3    0    0 -0.14417030760E+02 -0.20404397530E+02  0.16764364207E+04  0.16766902102E+04  0.15059812202E+02 0.  0.
         22    1    3    3    0    0  0.14417030760E+02  0.20404397530E+02  0.14960516757E+03  0.15167694742E+03  0.00000000000E+00 0.  1.
         22    1    4    4    0    0 -0.13031135952E+02 -0.58071138773E+01  0.71911018477E+03  0.71925168816E+03  0.00000000000E+00 0.  1.
         22    1    4    4    0    0 -0.13858948082E+01 -0.14597283653E+02  0.95732623597E+03  0.95743852203E+03  0.00000000000E+00 0.  1.
<mgrwt>
<rscale>  0 0.92187747E+02</rscale>
<asrwt>0</asrwt>
<pdfrwt beam="1">  1        1 0.28110838E+00 0.92187747E+02</pdfrwt>
<pdfrwt beam="2">  1       -1 0.17888994E-03 0.92187747E+02</pdfrwt>
<totfact> 0.87688265E+04</totfact>
</mgrwt>
</event>
<event>
 7    1  0.3345055E-009  0.8738586E+02  0.7818608E-02  0.1309309E+00
         -1   -1    0    0    0  501 -0.00000000000E+00  0.00000000000E+00  0.58204202040E+02  0.58204202258E+02  0.50400000000E-02 0.  1.
          1   -1    0    0  501    0  0.00000000000E+00 -0.00000000000E+00 -0.32799555766E+02  0.32799556153E+02  0.50400000000E-02 0. -1.
         23    2    1    2    0    0  0.00000000000E+00  0.00000000000E+00  0.25404646274E+02  0.91003758412E+02  0.87385856938E+02 0.  0.
    9000005    2    3    3    0    0 -0.23285489757E+02  0.32433086951E+02  0.28563645742E+02  0.50952560677E+02  0.13644134971E+02 0.  0.
         22    1    3    3    0    0  0.23285489757E+02 -0.32433086951E+02 -0.31589994681E+01  0.40051197735E+02  0.00000000000E+00 0. -1.
         22    1    4    4    0    0 -0.10824197006E+02  0.25696741789E+02  0.16917563189E+02  0.32614256448E+02  0.00000000000E+00 0. -1.
         22    1    4    4    0    0 -0.12461292751E+02  0.67363451612E+01  0.11646082553E+02  0.18338304229E+02  0.00000000000E+00 0. -1.
<mgrwt>
<rscale>  0 0.87385857E+02</rscale>
<asrwt>0</asrwt>
<pdfrwt beam="2">  1        1 0.50460855E-02 0.87385857E+02</pdfrwt>
<pdfrwt beam="1">  1       -1 0.89544927E-02 0.87385857E+02</pdfrwt>
<totfact> 0.99205622E+04</totfact>
</mgrwt>
</event>
<event>
 7    1  0.5701558E-009  0.8546056E+02  0.7818608E-02  0.1314233E+00
          1   -1    0    0  501    0  0.00000000000E+00  0.00000000000E+00  0.14141769028E+03  0.14141769037E+03  0.50400000000E-02 0. -1.
         -1   -1    0    0    0  501 -0.00000000000E+00 -0.00000000000E+00 -0.12911231465E+02  0.12911232449E+02  0.50400000000E-02 0.  1.
         23    2    1    2    0    0  0.00000000000E+00  0.00000000000E+00  0.12850645882E+03  0.15432892282E+03  0.85460555002E+02 0.  0.
    9000005    2    3    3    0    0 -0.20619850184E+02 -0.65550367764E+01  0.13006329768E+03  0.13263628637E+03  0.14414448721E+02 0.  0.
         22    1    3    3    0    0  0.20619850184E+02  0.65550367764E+01 -0.15568388598E+01  0.21692636446E+02  0.00000000000E+00 0.  1.
         22    1    4    4    0    0 -0.13311893424E+02  0.23674106349E+01  0.52161418981E+02  0.53885292704E+02  0.00000000000E+00 0. -1.
         22    1    4    4    0    0 -0.73079567595E+01 -0.89224474113E+01  0.77901878695E+02  0.78750993670E+02  0.00000000000E+00 0. -1.
<mgrwt>
<rscale>  0 0.85460555E+02</rscale>
<asrwt>0</asrwt>
<pdfrwt beam="1">  1        1 0.21756568E-01 0.85460555E+02</pdfrwt>
<pdfrwt beam="2">  1       -1 0.19863434E-02 0.85460555E+02</pdfrwt>
<totfact> 0.13203071E+05</totfact>
</mgrwt>
</event>
<event>
 7    1  0.3345055E-009  0.9128655E+02  0.7818608E-02  0.1299766E+00
          1   -1    0    0  501    0  0.00000000000E+00  0.00000000000E+00  0.10236695318E+02  0.10236696559E+02  0.50400000000E-02 0. -1.
         -1   -1    0    0    0  501 -0.00000000000E+00 -0.00000000000E+00 -0.20351374994E+03  0.20351375001E+03  0.50400000000E-02 0.  1.
         23    2    1    2    0    0  0.00000000000E+00  0.00000000000E+00 -0.19327705463E+03  0.21375044656E+03  0.91286546445E+02 0.  0.
    9000005    2    3    3    0    0  0.19137695531E+02 -0.35102495874E+02 -0.14526290064E+03  0.15127008493E+03  0.13523745271E+02 0.  0.
         22    1    3    3    0    0 -0.19137695531E+02  0.35102495874E+02 -0.48014153987E+02  0.62480361634E+02  0.00000000000E+00 0. -1.
         22    1    4    4    0    0  0.13145045393E+01 -0.13575381798E+02 -0.36226091754E+02  0.38708508586E+02  0.00000000000E+00 0. -1.
         22    1    4    4    0    0  0.17823190991E+02 -0.21527114076E+02 -0.10903680888E+03  0.11256157635E+03  0.00000000000E+00 0. -1.
<mgrwt>
<rscale>  0 0.91286546E+02</rscale>
<asrwt>0</asrwt>
<pdfrwt beam="1">  1        1 0.15748765E-02 0.91286546E+02</pdfrwt>
<pdfrwt beam="2">  1       -1 0.31309805E-01 0.91286546E+02</pdfrwt>
<totfact> 0.68861043E+04</totfact>
</mgrwt>
</event>
<event>
 7    1  0.3345055E-009  0.8596308E+02  0.7818608E-02  0.1312933E+00
          1   -1    0    0  501    0  0.00000000000E+00  0.00000000000E+00  0.20073590732E+02  0.20073591365E+02  0.50400000000E-02 0. -1.
         -1   -1    0    0    0  501 -0.00000000000E+00 -0.00000000000E+00 -0.92031994155E+02  0.92031994293E+02  0.50400000000E-02 0.  1.
         23    2    1    2    0    0  0.17763568394E-14  0.00000000000E+00 -0.71958403423E+02  0.11210558566E+03  0.85963076450E+02 0.  0.
    9000005    2    3    3    0    0 -0.15224456860E+02 -0.17533966247E+02 -0.82949572728E+02  0.86414539325E+02  0.69005022925E+01 0.  0.
         22    1    3    3    0    0  0.15224456860E+02  0.17533966247E+02  0.10991169305E+02  0.25691046334E+02  0.00000000000E+00 0. -1.
         22    1    4    4    0    0 -0.35963904683E+01 -0.58796270176E+01 -0.36214554080E+02  0.36864589588E+02  0.00000000000E+00 0.  1.
         22    1    4    4    0    0 -0.11628066392E+02 -0.11654339230E+02 -0.46735018648E+02  0.49549949737E+02  0.00000000000E+00 0.  1.
<mgrwt>
<rscale>  0 0.85963076E+02</rscale>
<asrwt>0</asrwt>
<pdfrwt beam="1">  1        1 0.30882449E-02 0.85963076E+02</pdfrwt>
<pdfrwt beam="2">  1       -1 0.14158768E-01 0.85963076E+02</pdfrwt>
<totfact> 0.96083884E+04</totfact>
</mgrwt>
</event>
<event>
 7    1  0.3345055E-009  0.9074621E+02  0.7818608E-02  0.1301055E+00
          1   -1    0    0  501    0  0.00000000000E+00  0.00000000000E+00  0.14091032143E+03  0.14091032152E+03  0.50400000000E-02 0. -1.
         -1   -1    0    0    0  501 -0.00000000000E+00 -0.00000000000E+00 -0.14610133947E+02  0.14610134816E+02  0.50400000000E-02 0.  1.
         23    2    1    2    0    0 -0.71054273576E-14  0.35527136788E-14  0.12630018749E+03  0.15552045634E+03  0.90746211938E+02 0.  0.
    9000005    2    3    3    0    0 -0.34245873995E+02  0.28085123970E+02  0.66543410126E+02  0.81140173236E+02  0.13933707602E+02 0.  0.
         22    1    3    3    0    0  0.34245873995E+02 -0.28085123970E+02  0.59756777359E+02  0.74380283103E+02  0.00000000000E+00 0.  1.
         22    1    4    4    0    0  0.21877747083E+00  0.45718126982E+01  0.49019778308E+01  0.67066177454E+01  0.00000000000E+00 0. -1.
         22    1    4    4    0    0 -0.34464651465E+02  0.23513311272E+02  0.61641432295E+02  0.74433555491E+02  0.00000000000E+00 0. -1.
<mgrwt>
<rscale>  0 0.90746212E+02</rscale>
<asrwt>0</asrwt>
<pdfrwt beam="1">  1        1 0.21678511E-01 0.90746212E+02</pdfrwt>
<pdfrwt beam="2">  1       -1 0.22477130E-02 0.90746212E+02</pdfrwt>
<totfact> 0.11228628E+05</totfact>
</mgrwt>
</event>
<event>
 7    1  0.3345055E-009  0.9188425E+02  0.7818608E-02  0.1298352E+00
         -1   -1    0    0    0  501 -0.00000000000E+00  0.00000000000E+00  0.20472145012E+02  0.20472145633E+02  0.50400000000E-02 0.  1.
          1   -1    0    0  501    0  0.00000000000E+00 -0.00000000000E+00 -0.10310002879E+03  0.10310002891E+03  0.50400000000E-02 0. -1.
         23    2    1    2    0    0  0.00000000000E+00  0.00000000000E+00 -0.82627883776E+02  0.12357217454E+03  0.91884248619E+02 0.  0.
    9000005    2    3    3    0    0  0.10697472970E+02 -0.39641781581E+02 -0.14446458322E+02  0.43981889007E+02  0.63086946134E+01 0.  0.
         22    1    3    3    0    0 -0.10697472970E+02  0.39641781581E+02 -0.68181425454E+02  0.79590285537E+02  0.00000000000E+00 0.  1.
         22    1    4    4    0    0  0.45014308973E+01 -0.15584636413E+02 -0.24886304871E+01  0.16411491522E+02  0.00000000000E+00 0. -1.
         22    1    4    4    0    0  0.61960420724E+01 -0.24057145168E+02 -0.11957827835E+02  0.27570397486E+02  0.00000000000E+00 0. -1.
<mgrwt>
<rscale>  0 0.91884249E+02</rscale>
<asrwt>0</asrwt>
<pdfrwt beam="2">  1        1 0.15861543E-01 0.91884249E+02</pdfrwt>
<pdfrwt beam="1">  1       -1 0.31495609E-02 0.91884249E+02</pdfrwt>
<totfact> 0.10279523E+05</totfact>
</mgrwt>
</event>
<event>
 7    1  0.3345055E-009  0.9158755E+02  0.7818608E-02  0.1299052E+00
          1   -1    0    0  501    0  0.00000000000E+00  0.00000000000E+00  0.22432993118E+02  0.22432993684E+02  0.50400000000E-02 0. -1.
         -1   -1    0    0    0  501 -0.00000000000E+00 -0.00000000000E+00 -0.93481500231E+02  0.93481500367E+02  0.50400000000E-02 0.  1.
         23    2    1    2    0    0 -0.44408920985E-15  0.00000000000E+00 -0.71048507113E+02  0.11591449405E+03  0.91587551382E+02 0.  0.
    9000005    2    3    3    0    0 -0.28846593873E+01 -0.20145496753E+02  0.13988545681E+02  0.28476157796E+02  0.14179204961E+02 0.  0.
         22    1    3    3    0    0  0.28846593873E+01  0.20145496753E+02 -0.85037052794E+02  0.87438336256E+02  0.00000000000E+00 0.  1.
         22    1    4    4    0    0 -0.34841689130E+00 -0.15374383503E+02  0.16467270595E+02  0.22531401716E+02  0.00000000000E+00 0. -1.
         22    1    4    4    0    0 -0.25362424960E+01 -0.47711132508E+01 -0.24787249145E+01  0.59447560801E+01  0.00000000000E+00 0. -1.
<mgrwt>
<rscale>  0 0.91587551E+02</rscale>
<asrwt>0</asrwt>
<pdfrwt beam="1">  1        1 0.34512298E-02 0.91587551E+02</pdfrwt>
<pdfrwt beam="2">  1       -1 0.14381769E-01 0.91587551E+02</pdfrwt>
<totfact> 0.81433608E+04</totfact>
</mgrwt>
</event>
<event>
 7    1  0.3345055E-009  0.9137304E+02  0.7818608E-02  0.1299560E+00
          1   -1    0    0  501    0  0.00000000000E+00  0.00000000000E+00  0.38168135777E+03  0.38168135780E+03  0.50400000000E-02 0. -1.
         -1   -1    0    0    0  501 -0.00000000000E+00 -0.00000000000E+00 -0.54685867701E+01  0.54685890926E+01  0.50400000000E-02 0.  1.
         23    2    1    2    0    0  0.17763568394E-14 -0.44408920985E-15  0.37621277100E+03  0.38714994690E+03  0.91373039339E+02 0.  0.
    9000005    2    3    3    0    0 -0.10676593063E+02  0.27771696292E+01  0.37584509856E+03  0.37611194465E+03  0.88856338587E+01 0.  0.
         22    1    3    3    0    0  0.10676593063E+02 -0.27771696292E+01  0.36767244527E+00  0.11038002247E+02  0.00000000000E+00 0.  1.
         22    1    4    4    0    0 -0.61175532616E+01  0.44218382370E+01  0.12992013702E+03  0.13013922973E+03  0.00000000000E+00 0. -1.
         22    1    4    4    0    0 -0.45590398017E+01 -0.16446686078E+01  0.24592496154E+03  0.24597271492E+03  0.00000000000E+00 0. -1.
<mgrwt>
<rscale>  0 0.91373039E+02</rscale>
<asrwt>0</asrwt>
<pdfrwt beam="1">  1        1 0.58720210E-01 0.91373039E+02</pdfrwt>
<pdfrwt beam="2">  1       -1 0.84132121E-03 0.91373039E+02</pdfrwt>
<totfact> 0.13307630E+05</totfact>
</mgrwt>
</event>
<event>
 7    1  0.3345055E-009  0.9170347E+02  0.7818608E-02  0.1298778E+00
          1   -1    0    0  501    0  0.00000000000E+00  0.00000000000E+00  0.31499563119E+02  0.31499563522E+02  0.50400000000E-02 0. -1.
         -1   -1    0    0    0  501 -0.00000000000E+00 -0.00000000000E+00 -0.66743198697E+02  0.66743198887E+02  0.50400000000E-02 0.  1.
         23    2    1    2    0    0 -0.35527136788E-14  0.00000000000E+00 -0.35243635577E+02  0.98242762409E+02  0.91703470584E+02 0.  0.
    9000005    2    3    3    0    0 -0.27518708538E+02  0.13221603999E+02  0.18781814189E+02  0.36187630837E+02  0.49697031539E+01 0.  0.
         22    1    3    3    0    0  0.27518708538E+02 -0.13221603999E+02 -0.54025449767E+02  0.62055131572E+02  0.00000000000E+00 0.  1.
         22    1    4    4    0    0 -0.23750554725E+02  0.10450893487E+02  0.13939707651E+02  0.29455482916E+02  0.00000000000E+00 0.  1.
         22    1    4    4    0    0 -0.37681538131E+01  0.27707105127E+01  0.48421065381E+01  0.67321479211E+01  0.00000000000E+00 0.  1.
<mgrwt>
<rscale>  0 0.91703471E+02</rscale>
<asrwt>0</asrwt>
<pdfrwt beam="1">  1        1 0.48460867E-02 0.91703471E+02</pdfrwt>
<pdfrwt beam="2">  1       -1 0.10268184E-01 0.91703471E+02</pdfrwt>
<totfact> 0.85933939E+04</totfact>
</mgrwt>
</event>
<event>
 7    1  0.3345055E-009  0.9027833E+02  0.7818608E-02  0.1302179E+00
          1   -1    0    0  501    0  0.00000000000E+00  0.00000000000E+00  0.39880859184E+03  0.39880859187E+03  0.50400000000E-02 0. -1.
         -1   -1    0    0    0  501 -0.00000000000E+00 -0.00000000000E+00 -0.51090768185E+01  0.51090793044E+01  0.50400000000E-02 0.  1.
         23    2    1    2    0    0  0.00000000000E+00  0.00000000000E+00  0.39369951502E+03  0.40391767118E+03  0.90278330513E+02 0.  0.
    9000005    2    3    3    0    0 -0.30070048706E+02  0.14653055232E+01  0.34666657817E+03  0.34807456866E+03  0.84754929460E+01 0.  0.
         22    1    3    3    0    0  0.30070048706E+02 -0.14653055232E+01  0.47032936856E+02  0.55843102518E+02  0.00000000000E+00 0.  1.
         22    1    4    4    0    0 -0.11953431555E+02  0.47487490294E+01  0.14456162211E+03  0.14513269008E+03  0.00000000000E+00 0.  1.
         22    1    4    4    0    0 -0.18116617151E+02 -0.32834435062E+01  0.20210495606E+03  0.20294187858E+03  0.00000000000E+00 0.  1.
<mgrwt>
<rscale>  0 0.90278331E+02</rscale>
<asrwt>0</asrwt>
<pdfrwt beam="1">  1        1 0.61355167E-01 0.90278331E+02</pdfrwt>
<pdfrwt beam="2">  1       -1 0.78601202E-03 0.90278331E+02</pdfrwt>
<totfact> 0.13841512E+05</totfact>
</mgrwt>
</event>
<event>
 7    1  0.3345055E-009  0.9267999E+02  0.7818608E-02  0.1296488E+00
          1   -1    0    0  501    0  0.00000000000E+00  0.00000000000E+00  0.64838585403E+03  0.64838585405E+03  0.50400000000E-02 0. -1.
         -1   -1    0    0    0  501 -0.00000000000E+00 -0.00000000000E+00 -0.33119074437E+01  0.33119112785E+01  0.50400000000E-02 0.  1.
         23    2    1    2    0    0 -0.44408920985E-15  0.00000000000E+00  0.64507394658E+03  0.65169776533E+03  0.92679991202E+02 0.  0.
    9000005    2    3    3    0    0 -0.37516325383E+01  0.34979762062E+02  0.53407130279E+03  0.53525359231E+03  0.51568511723E+01 0.  0.
         22    1    3    3    0    0  0.37516325383E+01 -0.34979762062E+02  0.11100264380E+03  0.11644417302E+03  0.00000000000E+00 0.  1.
         22    1    4    4    0    0 -0.50099618503E+01  0.25044982809E+02  0.38545284824E+03  0.38629813499E+03  0.00000000000E+00 0. -1.
         22    1    4    4    0    0  0.12583293119E+01  0.99347792531E+01  0.14861845455E+03  0.14895545732E+03  0.00000000000E+00 0. -1.
<mgrwt>
<rscale>  0 0.92679991E+02</rscale>
<asrwt>0</asrwt>
<pdfrwt beam="1">  1        1 0.99751552E-01 0.92679991E+02</pdfrwt>
<pdfrwt beam="2">  1       -1 0.50952512E-03 0.92679991E+02</pdfrwt>
<totfact> 0.13605146E+05</totfact>
</mgrwt>
</event>
<event>
 7    1  0.3345055E-009  0.9219161E+02  0.7818608E-02  0.1297630E+00
         -1   -1    0    0    0  501 -0.00000000000E+00  0.00000000000E+00  0.56163590253E+02  0.56163590480E+02  0.50400000000E-02 0.  1.
          1   -1    0    0  501    0  0.00000000000E+00 -0.00000000000E+00 -0.37832748903E+02  0.37832749239E+02  0.50400000000E-02 0. -1.
         23    2    1    2    0    0  0.00000000000E+00 -0.88817841970E-15  0.18330841350E+02  0.93996339719E+02  0.92191605561E+02 0.  0.
    9000005    2    3    3    0    0  0.44668747399E+02 -0.70116794849E+01  0.10615917044E+01  0.45595021279E+02  0.57722045263E+01 0.  0.
         22    1    3    3    0    0 -0.44668747399E+02  0.70116794849E+01  0.17269249646E+02  0.48401318440E+02  0.00000000000E+00 0. -1.
         22    1    4    4    0    0  0.13194388361E+02 -0.45232219164E+01  0.14212789451E+01  0.14020394237E+02  0.00000000000E+00 0. -1.
         22    1    4    4    0    0  0.31474359038E+02 -0.24884575686E+01 -0.35968724074E+00  0.31574627042E+02  0.00000000000E+00 0. -1.
<mgrwt>
<rscale>  0 0.92191606E+02</rscale>
<asrwt>0</asrwt>
<pdfrwt beam="2">  1        1 0.58204230E-02 0.92191606E+02</pdfrwt>
<pdfrwt beam="1">  1       -1 0.86405524E-02 0.92191606E+02</pdfrwt>
<totfact> 0.87116189E+04</totfact>
</mgrwt>
</event>
<event>
 7    1  0.3345055E-009  0.8981916E+02  0.7818608E-02  0.1303290E+00
          1   -1    0    0  501    0  0.00000000000E+00  0.00000000000E+00  0.67772666520E+02  0.67772666708E+02  0.50400000000E-02 0. -1.
         -1   -1    0    0    0  501 -0.00000000000E+00 -0.00000000000E+00 -0.29759348173E+02  0.29759348600E+02  0.50400000000E-02 0.  1.
         23    2    1    2    0    0  0.00000000000E+00  0.00000000000E+00  0.38013318347E+02  0.97532015307E+02  0.89819160752E+02 0.  0.
    9000005    2    3    3    0    0  0.20549934462E+02 -0.36785773870E+02  0.24287496254E+01  0.42379912023E+02  0.38295107704E+01 0.  0.
         22    1    3    3    0    0 -0.20549934462E+02  0.36785773870E+02  0.35584568722E+02  0.55152103284E+02  0.00000000000E+00 0. -1.
         22    1    4    4    0    0  0.18332204465E+02 -0.30289930959E+02  0.13462240545E+01  0.35431087440E+02  0.00000000000E+00 0. -1.
         22    1    4    4    0    0  0.22177299978E+01 -0.64958429110E+01  0.10825255709E+01  0.69488245826E+01  0.00000000000E+00 0. -1.
<mgrwt>
<rscale>  0 0.89819161E+02</rscale>
<asrwt>0</asrwt>
<pdfrwt beam="1">  1        1 0.10426564E-01 0.89819161E+02</pdfrwt>
<pdfrwt beam="2">  1       -1 0.45783614E-02 0.89819161E+02</pdfrwt>
<totfact> 0.10232130E+05</totfact>
</mgrwt>
</event>
<event>
 7    1  0.3345055E-009  0.9014200E+02  0.7818608E-02  0.1302508E+00
         -1   -1    0    0    0  501 -0.00000000000E+00  0.00000000000E+00  0.11329074448E+03  0.11329074459E+03  0.50400000000E-02 0.  1.
          1   -1    0    0  501    0  0.00000000000E+00 -0.00000000000E+00 -0.17930812267E+02  0.17930812975E+02  0.50400000000E-02 0. -1.
         23    2    1    2    0    0  0.00000000000E+00  0.00000000000E+00  0.95359932212E+02  0.13122155757E+03  0.90142001857E+02 0.  0.
    9000005    2    3    3    0    0  0.24104177646E+01 -0.34517190590E+02  0.85935780660E+01  0.37810387079E+02  0.12590839013E+02 0.  0.
         22    1    3    3    0    0 -0.24104177646E+01  0.34517190590E+02  0.86766354146E+02  0.93411170488E+02  0.00000000000E+00 0.  1.
         22    1    4    4    0    0 -0.39868213585E+01 -0.16667196259E+02  0.78082948989E+01  0.18832409429E+02  0.00000000000E+00 0. -1.
         22    1    4    4    0    0  0.63972391231E+01 -0.17849994331E+02  0.78528316710E+00  0.18977977650E+02  0.00000000000E+00 0. -1.
<mgrwt>
<rscale>  0 0.90142002E+02</rscale>
<asrwt>0</asrwt>
<pdfrwt beam="2">  1        1 0.27585866E-02 0.90142002E+02</pdfrwt>
<pdfrwt beam="1">  1       -1 0.17429345E-01 0.90142002E+02</pdfrwt>
<totfact> 0.81819612E+04</totfact>
</mgrwt>
</event>
<event>
 7    1  0.3345055E-009  0.9099868E+02  0.7818608E-02  0.1300451E+00
          1   -1    0    0  501    0  0.00000000000E+00  0.00000000000E+00  0.13041438675E+03  0.13041438685E+03  0.50400000000E-02 0. -1.
         -1   -1    0    0    0  501 -0.00000000000E+00 -0.00000000000E+00 -0.15873938548E+02  0.15873939348E+02  0.50400000000E-02 0.  1.
         23    2    1    2    0    0  0.17763568394E-14  0.00000000000E+00  0.11454044820E+03  0.14628832619E+03  0.90998681896E+02 0.  0.
    9000005    2    3    3    0    0 -0.13141724177E+02  0.33257274975E+02  0.10227299703E+03  0.10848301425E+03  0.54815331200E+01 0.  0.
         22    1    3    3    0    0  0.13141724177E+02 -0.33257274975E+02  0.12267451166E+02  0.37805311944E+02  0.00000000000E+00 0.  1.
         22    1    4    4    0    0 -0.61756485032E+01  0.21965481264E+02  0.68339725561E+02  0.72048172019E+02  0.00000000000E+00 0.  1.
         22    1    4    4    0    0 -0.69660756739E+01  0.11291793711E+02  0.33933271474E+02  0.36434842231E+02  0.00000000000E+00 0.  1.
<mgrwt>
<rscale>  0 0.90998682E+02</rscale>
<asrwt>0</asrwt>
<pdfrwt beam="1">  1        1 0.20063751E-01 0.90998682E+02</pdfrwt>
<pdfrwt beam="2">  1       -1 0.24421445E-02 0.90998682E+02</pdfrwt>
<totfact> 0.10990960E+05</totfact>
</mgrwt>
</event>
<event>
 7    1  0.3345055E-009  0.9180796E+02  0.7818608E-02  0.1298532E+00
          1   -1    0    0  501    0  0.00000000000E+00  0.00000000000E+00  0.19002363622E+02  0.19002364290E+02  0.50400000000E-02 0. -1.
         -1   -1    0    0    0  501 -0.00000000000E+00 -0.00000000000E+00 -0.11089016451E+03  0.11089016463E+03  0.50400000000E-02 0.  1.
         23    2    1    2    0    0  0.00000000000E+00  0.00000000000E+00 -0.91887800890E+02  0.12989252892E+03  0.91807957802E+02 0.  0.
    9000005    2    3    3    0    0  0.17032730635E+02  0.27213892245E+02 -0.24682569544E+01  0.34884294106E+02  0.13420575207E+02 0.  0.
         22    1    3    3    0    0 -0.17032730635E+02 -0.27213892245E+02 -0.89419543935E+02  0.95008234810E+02  0.00000000000E+00 0.  1.
         22    1    4    4    0    0  0.11384162319E+02  0.26411286918E+02 -0.24567402268E+00  0.28761355742E+02  0.00000000000E+00 0. -1.
         22    1    4    4    0    0  0.56485683158E+01  0.80260532716E+00 -0.22225829317E+01  0.61229383647E+01  0.00000000000E+00 0. -1.
<mgrwt>
<rscale>  0 0.91807958E+02</rscale>
<asrwt>0</asrwt>
<pdfrwt beam="1">  1        1 0.29234407E-02 0.91807958E+02</pdfrwt>
<pdfrwt beam="2">  1       -1 0.17060025E-01 0.91807958E+02</pdfrwt>
<totfact> 0.78372104E+04</totfact>
</mgrwt>
</event>
<event>
 7    1  0.3345055E-009  0.8755719E+02  0.7818608E-02  0.1308878E+00
         -1   -1    0    0    0  501 -0.00000000000E+00  0.00000000000E+00  0.17305567665E+03  0.17305567672E+03  0.50400000000E-02 0.  1.
          1   -1    0    0  501    0  0.00000000000E+00 -0.00000000000E+00 -0.11074846823E+02  0.11074847970E+02  0.50400000000E-02 0. -1.
         23    2    1    2    0    0  0.00000000000E+00  0.00000000000E+00  0.16198082982E+03  0.18413052469E+03  0.87557186411E+02 0.  0.
    9000005    2    3    3    0    0  0.42206600789E+02  0.10408407771E+02  0.88033075245E+02  0.98351724805E+02  0.57885518547E+01 0.  0.
         22    1    3    3    0    0 -0.42206600789E+02 -0.10408407771E+02  0.73947754577E+02  0.85778799883E+02  0.00000000000E+00 0.  1.
         22    1    4    4    0    0  0.16057853121E+02  0.67182427091E+01  0.37053638963E+02  0.40938509894E+02  0.00000000000E+00 0. -1.
         22    1    4    4    0    0  0.26148747668E+02  0.36901650617E+01  0.50979436283E+02  0.57413214912E+02  0.00000000000E+00 0. -1.
<mgrwt>
<rscale>  0 0.87557186E+02</rscale>
<asrwt>0</asrwt>
<pdfrwt beam="2">  1        1 0.17038227E-02 0.87557186E+02</pdfrwt>
<pdfrwt beam="1">  1       -1 0.26623950E-01 0.87557186E+02</pdfrwt>
<totfact> 0.80214824E+04</totfact>
</mgrwt>
</event>
<event>
 7    1  0.3345055E-009  0.9336784E+02  0.7818608E-02  0.1294895E+00
         -1   -1    0    0    0  501 -0.00000000000E+00  0.00000000000E+00  0.86487100597E+01  0.86487115282E+01  0.50400000000E-02 0. -1.
          1   -1    0    0  501    0  0.00000000000E+00 -0.00000000000E+00 -0.25198999356E+03  0.25198999361E+03  0.50400000000E-02 0.  1.
         23    2    1    2    0    0  0.55511151231E-16 -0.71054273576E-14 -0.24334128350E+03  0.26063870514E+03  0.93367844362E+02 0.  0.
    9000005    2    3    3    0    0 -0.18115035821E+00  0.42301653111E+02 -0.77968063522E+02  0.89940830057E+02  0.14861739826E+02 0.  0.
         22    1    3    3    0    0  0.18115035821E+00 -0.42301653111E+02 -0.16537321998E+03  0.17069787508E+03  0.00000000000E+00 0.  1.
         22    1    4    4    0    0 -0.73572299926E+01  0.22146581845E+02 -0.43750759942E+02  0.49585571652E+02  0.00000000000E+00 0.  1.
         22    1    4    4    0    0  0.71760796343E+01  0.20155071266E+02 -0.34217303580E+02  0.40355258405E+02  0.00000000000E+00 0.  1.
<mgrwt>
<rscale>  0 0.93367844E+02</rscale>
<asrwt>0</asrwt>
<pdfrwt beam="2">  1        1 0.38767686E-01 0.93367844E+02</pdfrwt>
<pdfrwt beam="1">  1       -1 0.13305711E-02 0.93367844E+02</pdfrwt>
<totfact> 0.11623437E+05</totfact>
</mgrwt>
</event>
<event>
 7    1  0.3345055E-009  0.9205295E+02  0.7818608E-02  0.1297955E+00
          1   -1    0    0  501    0  0.00000000000E+00  0.00000000000E+00  0.27970713737E+02  0.27970714191E+02  0.50400000000E-02 0. -1.
         -1   -1    0    0    0  501 -0.00000000000E+00 -0.00000000000E+00 -0.75737660005E+02  0.75737660173E+02  0.50400000000E-02 0.  1.
         23    2    1    2    0    0  0.71054273576E-14  0.44408920985E-15 -0.47766946268E+02  0.10370837436E+03  0.92052950835E+02 0.  0.
    9000005    2    3    3    0    0 -0.44344945701E+02 -0.37511470815E+01 -0.18522288627E+02  0.50456188360E+02  0.14906590965E+02 0.  0.
         22    1    3    3    0    0  0.44344945701E+02  0.37511470815E+01 -0.29244657640E+02  0.53252186004E+02  0.00000000000E+00 0. -1.
         22    1    4    4    0    0 -0.35108837018E+02 -0.67844748420E+01 -0.90561507573E+01  0.36887306790E+02  0.00000000000E+00 0.  1.
         22    1    4    4    0    0 -0.92361086828E+01  0.30333277605E+01 -0.94661378700E+01  0.13568881571E+02  0.00000000000E+00 0.  1.
<mgrwt>
<rscale>  0 0.92052951E+02</rscale>
<asrwt>0</asrwt>
<pdfrwt beam="1">  1        1 0.43031868E-02 0.92052951E+02</pdfrwt>
<pdfrwt beam="2">  1       -1 0.11651948E-01 0.92052951E+02</pdfrwt>
<totfact> 0.83365293E+04</totfact>
</mgrwt>
</event>
<event>
 7    1  0.3345055E-009  0.9052356E+02  0.7818608E-02  0.1301589E+00
         -1   -1    0    0    0  501 -0.00000000000E+00  0.00000000000E+00  0.10141864420E+02  0.10141865672E+02  0.50400000000E-02 0.  1.
          1   -1    0    0  501    0  0.00000000000E+00 -0.00000000000E+00 -0.20199722358E+03  0.20199722364E+03  0.50400000000E-02 0. -1.
         23    2    1    2    0    0 -0.35527136788E-14 -0.17763568394E-14 -0.19185535916E+03  0.21213908931E+03  0.90523557028E+02 0.  0.
    9000005    2    3    3    0    0  0.29334141743E+02  0.81238537801E+01 -0.17339755437E+03  0.17654162550E+03  0.13181229156E+02 0.  0.
         22    1    3    3    0    0 -0.29334141743E+02 -0.81238537801E+01 -0.18457804787E+02  0.35597463809E+02  0.00000000000E+00 0.  1.
         22    1    4    4    0    0  0.35001786289E+01  0.12561759389E+00 -0.57945949036E+01  0.67708463512E+01  0.00000000000E+00 0.  1.
         22    1    4    4    0    0  0.25833963114E+02  0.79982361862E+01 -0.16760295947E+03  0.16977077915E+03  0.00000000000E+00 0.  1.
<mgrwt>
<rscale>  0 0.90523557E+02</rscale>
<asrwt>0</asrwt>
<pdfrwt beam="2">  1        1 0.31076493E-01 0.90523557E+02</pdfrwt>
<pdfrwt beam="1">  1       -1 0.15602871E-02 0.90523557E+02</pdfrwt>
<totfact> 0.12094218E+05</totfact>
</mgrwt>
</event>
<event>
 7    1  0.3345055E-009  0.9176672E+02  0.7818608E-02  0.1298629E+00
          1   -1    0    0  501    0  0.00000000000E+00  0.00000000000E+00  0.32808525727E+02  0.32808526114E+02  0.50400000000E-02 0. -1.
         -1   -1    0    0    0  501 -0.00000000000E+00 -0.00000000000E+00 -0.64168766734E+02  0.64168766931E+02  0.50400000000E-02 0.  1.
         23    2    1    2    0    0  0.00000000000E+00  0.00000000000E+00 -0.31360241006E+02  0.96977293046E+02  0.91766718643E+02 0.  0.
    9000005    2    3    3    0    0  0.52320255985E+01  0.23500928133E+02 -0.56523888943E+02  0.62150910913E+02  0.93871183619E+01 0.  0.
         22    1    3    3    0    0 -0.52320255985E+01 -0.23500928133E+02  0.25163647936E+02  0.34826382133E+02  0.00000000000E+00 0. -1.
         22    1    4    4    0    0 -0.13382074634E+01  0.14734892356E+02 -0.29870094335E+02  0.33333622479E+02  0.00000000000E+00 0. -1.
         22    1    4    4    0    0  0.65702330619E+01  0.87660357770E+01 -0.26653794607E+02  0.28817288434E+02  0.00000000000E+00 0. -1.
<mgrwt>
<rscale>  0 0.91766719E+02</rscale>
<asrwt>0</asrwt>
<pdfrwt beam="1">  1        1 0.50474656E-02 0.91766719E+02</pdfrwt>
<pdfrwt beam="2">  1       -1 0.98721179E-02 0.91766719E+02</pdfrwt>
<totfact> 0.86322781E+04</totfact>
</mgrwt>
</event>
<event>
 7    1  0.3345055E-009  0.9055852E+02  0.7818608E-02  0.1301505E+00
         -1   -1    0    0    0  501 -0.00000000000E+00  0.00000000000E+00  0.42699529142E+01  0.42699558887E+01  0.50400000000E-02 0.  1.
          1   -1    0    0  501    0  0.00000000000E+00 -0.00000000000E+00 -0.48014832884E+03  0.48014832886E+03  0.50400000000E-02 0. -1.
         23    2    1    2    0    0  0.71054273576E-14  0.35527136788E-14 -0.47587837592E+03  0.48441828475E+03  0.90558522135E+02 0.  0.
    9000005    2    3    3    0    0  0.39365159775E+02  0.18704642817E+02 -0.21220403005E+03  0.21716626860E+03  0.15203893588E+02 0.  0.
         22    1    3    3    0    0 -0.39365159775E+02 -0.18704642817E+02 -0.26367434587E+03  0.26725201615E+03  0.00000000000E+00 0.  1.
         22    1    4    4    0    0  0.51491317435E+01 -0.20462976490E+01 -0.16271255170E+02  0.17188793925E+02  0.00000000000E+00 0. -1.
         22    1    4    4    0    0  0.34216028032E+02  0.20750940466E+02 -0.19593277488E+03  0.19997747467E+03  0.00000000000E+00 0. -1.
<mgrwt>
<rscale>  0 0.90558522E+02</rscale>
<asrwt>0</asrwt>
<pdfrwt beam="2">  1        1 0.73868931E-01 0.90558522E+02</pdfrwt>
<pdfrwt beam="1">  1       -1 0.65691644E-03 0.90558522E+02</pdfrwt>
<totfact> 0.14109246E+05</totfact>
</mgrwt>
</event>
<event>
 7    1  0.4621706E-009  0.9175765E+02  0.7818608E-02  0.1298650E+00
         -1   -1    0    0    0  501 -0.00000000000E+00  0.00000000000E+00  0.14745273132E+02  0.14745273993E+02  0.50400000000E-02 0.  1.
          1   -1    0    0  501    0  0.00000000000E+00 -0.00000000000E+00 -0.14274857437E+03  0.14274857446E+03  0.50400000000E-02 0. -1.
         23    2    1    2    0    0  0.00000000000E+00  0.00000000000E+00 -0.12800330124E+03  0.15749384846E+03  0.91757654571E+02 0.  0.
    9000005    2    3    3    0    0  0.54213622074E+00 -0.28659048389E+02 -0.74611720495E+01  0.33590499524E+02  0.15843535075E+02 0.  0.
         22    1    3    3    0    0 -0.54213622074E+00  0.28659048389E+02 -0.12054212919E+03  0.12390334893E+03  0.00000000000E+00 0. -1.
         22    1    4    4    0    0  0.37713441215E+00 -0.29489015082E+02 -0.98208723863E+01  0.31083657688E+02  0.00000000000E+00 0. -1.
         22    1    4    4    0    0  0.16500180859E+00  0.82996669286E+00  0.23597003368E+01  0.25068418354E+01  0.00000000000E+00 0. -1.
<mgrwt>
<rscale>  0 0.91757655E+02</rscale>
<asrwt>0</asrwt>
<pdfrwt beam="2">  1        1 0.21961318E-01 0.91757655E+02</pdfrwt>
<pdfrwt beam="1">  1       -1 0.22685037E-02 0.91757655E+02</pdfrwt>
<totfact> 0.10922949E+05</totfact>
</mgrwt>
</event>
<event>
 7    1  0.3345055E-009  0.9232480E+02  0.7818608E-02  0.1297318E+00
          1   -1    0    0  501    0  0.00000000000E+00  0.00000000000E+00  0.30439742551E+03  0.30439742555E+03  0.50400000000E-02 0. -1.
         -1   -1    0    0    0  501 -0.00000000000E+00 -0.00000000000E+00 -0.70006079221E+01  0.70006097363E+01  0.50400000000E-02 0.  1.
         23    2    1    2    0    0  0.17763568394E-14 -0.17763568394E-14  0.29739681759E+03  0.31139803529E+03  0.92324803113E+02 0.  0.
    9000005    2    3    3    0    0 -0.15885118562E+02  0.94446887298E+01  0.29113902115E+03  0.29188652194E+03  0.97094240909E+01 0.  0.
         22    1    3    3    0    0  0.15885118562E+02 -0.94446887298E+01  0.62577964378E+01  0.19511513350E+02  0.00000000000E+00 0.  1.
         22    1    4    4    0    0 -0.18376564014E+01 -0.19204719297E+01  0.27139138348E+02  0.27268993816E+02  0.00000000000E+00 0. -1.
         22    1    4    4    0    0 -0.14047462161E+02  0.11365160659E+02  0.26399988280E+03  0.26461752812E+03  0.00000000000E+00 0. -1.
<mgrwt>
<rscale>  0 0.92324803E+02</rscale>
<asrwt>0</asrwt>
<pdfrwt beam="1">  1        1 0.46830375E-01 0.92324803E+02</pdfrwt>
<pdfrwt beam="2">  1       -1 0.10770167E-02 0.92324803E+02</pdfrwt>
<totfact> 0.12425999E+05</totfact>
</mgrwt>
</event>
<event>
 7    1  0.3345055E-009  0.9088762E+02  0.7818608E-02  0.1300716E+00
          1   -1    0    0  501    0  0.00000000000E+00  0.00000000000E+00  0.33566235005E+02  0.33566235383E+02  0.50400000000E-02 0. -1.
         -1   -1    0    0    0  501 -0.00000000000E+00 -0.00000000000E+00 -0.61524315696E+02  0.61524315903E+02  0.50400000000E-02 0.  1.
         23    2    1    2    0    0  0.00000000000E+00  0.00000000000E+00 -0.27958080692E+02  0.95090551286E+02  0.90887615591E+02 0.  0.
    9000005    2    3    3    0    0 -0.34963326060E+02  0.26304905805E+02 -0.20543019289E+02  0.50713018973E+02  0.15343155257E+02 0.  0.
         22    1    3    3    0    0  0.34963326060E+02 -0.26304905805E+02 -0.74150614029E+01  0.44377532313E+02  0.00000000000E+00 0. -1.
         22    1    4    4    0    0 -0.17645649463E+02  0.10977461499E+02 -0.16438830548E+01  0.20846485494E+02  0.00000000000E+00 0. -1.
         22    1    4    4    0    0 -0.17317676598E+02  0.15327444305E+02 -0.18899136234E+02  0.29866533479E+02  0.00000000000E+00 0. -1.
<mgrwt>
<rscale>  0 0.90887616E+02</rscale>
<asrwt>0</asrwt>
<pdfrwt beam="1">  1        1 0.51640362E-02 0.90887616E+02</pdfrwt>
<pdfrwt beam="2">  1       -1 0.94652794E-02 0.90887616E+02</pdfrwt>
<totfact> 0.89048909E+04</totfact>
</mgrwt>
</event>
<event>
 7    1  0.3345055E-009  0.9037173E+02  0.7818608E-02  0.1301954E+00
          1   -1    0    0  501    0  0.00000000000E+00  0.00000000000E+00  0.14889319267E+02  0.14889320120E+02  0.50400000000E-02 0. -1.
         -1   -1    0    0    0  501 -0.00000000000E+00 -0.00000000000E+00 -0.13712933047E+03  0.13712933056E+03  0.50400000000E-02 0.  1.
         23    2    1    2    0    0  0.00000000000E+00  0.00000000000E+00 -0.12224001120E+03  0.15201865068E+03  0.90371731290E+02 0.  0.
    9000005    2    3    3    0    0 -0.43144711153E+02  0.12217832288E+02 -0.60170120640E+02  0.75445725697E+02  0.78020882995E+01 0.  0.
         22    1    3    3    0    0  0.43144711153E+02 -0.12217832288E+02 -0.62069890563E+02  0.76572924986E+02  0.00000000000E+00 0. -1.
         22    1    4    4    0    0 -0.14449515542E+02  0.78043411131E+01 -0.19901300460E+02  0.25802286713E+02  0.00000000000E+00 0.  1.
         22    1    4    4    0    0 -0.28695195611E+02  0.44134911752E+01 -0.40268820180E+02  0.49643438984E+02  0.00000000000E+00 0.  1.
<mgrwt>
<rscale>  0 0.90371731E+02</rscale>
<asrwt>0</asrwt>
<pdfrwt beam="1">  1        1 0.22906647E-02 0.90371731E+02</pdfrwt>
<pdfrwt beam="2">  1       -1 0.21096819E-01 0.90371731E+02</pdfrwt>
<totfact> 0.78105042E+04</totfact>
</mgrwt>
</event>
<event>
 7    1  0.3345055E-009  0.9003035E+02  0.7818608E-02  0.1302778E+00
          1   -1    0    0  501    0  0.00000000000E+00  0.00000000000E+00  0.14471390854E+04  0.14471390854E+04  0.50400000000E-02 0. -1.
         -1   -1    0    0    0  501 -0.00000000000E+00 -0.00000000000E+00 -0.14002519698E+01  0.14002610401E+01  0.50400000000E-02 0.  1.
         23    2    1    2    0    0  0.00000000000E+00 -0.35527136788E-14  0.14457388335E+04  0.14485393465E+04  0.90030348898E+02 0.  0.
    9000005    2    3    3    0    0 -0.13930602534E+02  0.21165591718E+02  0.13170532594E+04  0.13173828715E+04  0.15043205937E+02 0.  0.
         22    1    3    3    0    0  0.13930602534E+02 -0.21165591718E+02  0.12868557405E+03  0.13115647498E+03  0.00000000000E+00 0.  1.
         22    1    4    4    0    0 -0.15749200171E+02  0.22305811302E+02  0.12092618049E+04  0.12095700473E+04  0.00000000000E+00 0. -1.
         22    1    4    4    0    0  0.18185976371E+01 -0.11402195849E+01  0.10779145450E+03  0.10781282419E+03  0.00000000000E+00 0. -1.
<mgrwt>
<rscale>  0 0.90030349E+02</rscale>
<asrwt>0</asrwt>
<pdfrwt beam="1">  1        1 0.22263738E+00 0.90030349E+02</pdfrwt>
<pdfrwt beam="2">  1       -1 0.21542351E-03 0.90030349E+02</pdfrwt>
<totfact> 0.11754143E+05</totfact>
</mgrwt>
</event>
<event>
 7    1  0.3345055E-009  0.8928222E+02  0.7818608E-02  0.1304599E+00
         -1   -1    0    0    0  501 -0.00000000000E+00  0.00000000000E+00  0.72313922531E+03  0.72313922533E+03  0.50400000000E-02 0.  1.
          1   -1    0    0  501    0  0.00000000000E+00 -0.00000000000E+00 -0.27558000363E+01  0.27558046450E+01  0.50400000000E-02 0. -1.
         23    2    1    2    0    0  0.00000000000E+00  0.00000000000E+00  0.72038342528E+03  0.72589502997E+03  0.89282221802E+02 0.  0.
    9000005    2    3    3    0    0  0.33649113646E+02  0.19338426743E+02  0.53117975323E+03  0.53275190400E+03  0.12900518184E+02 0.  0.
         22    1    3    3    0    0 -0.33649113646E+02 -0.19338426743E+02  0.18920367204E+03  0.19314312598E+03  0.00000000000E+00 0. -1.
         22    1    4    4    0    0  0.21257420448E+02  0.48633043264E+01  0.27217361616E+03  0.27304579650E+03  0.00000000000E+00 0.  1.
         22    1    4    4    0    0  0.12391693199E+02  0.14475122416E+02  0.25900613708E+03  0.25970610750E+03  0.00000000000E+00 0.  1.
<mgrwt>
<rscale>  0 0.89282222E+02</rscale>
<asrwt>0</asrwt>
<pdfrwt beam="2">  1        1 0.42396974E-03 0.89282222E+02</pdfrwt>
<pdfrwt beam="1">  1       -1 0.11125215E+00 0.89282222E+02</pdfrwt>
<totfact> 0.37857459E+04</totfact>
</mgrwt>
</event>
<event>
 7    1  0.3345055E-009  0.9163314E+02  0.7818608E-02  0.1298944E+00
         -1   -1    0    0    0  501 -0.00000000000E+00  0.00000000000E+00  0.46658912025E+01  0.46658939246E+01  0.50400000000E-02 0.  1.
          1   -1    0    0  501    0  0.00000000000E+00 -0.00000000000E+00 -0.44989416831E+03  0.44989416833E+03  0.50400000000E-02 0. -1.
         23    2    1    2    0    0  0.00000000000E+00  0.88817841970E-15 -0.44522827710E+03  0.45456006226E+03  0.91633135209E+02 0.  0.
    9000005    2    3    3    0    0 -0.21254214885E+02  0.65446361950E+01 -0.42077694702E+03  0.42150796011E+03  0.11006697205E+02 0.  0.
         22    1    3    3    0    0  0.21254214885E+02 -0.65446361950E+01 -0.24451330084E+02  0.33052102145E+02  0.00000000000E+00 0.  1.
         22    1    4    4    0    0 -0.11592166049E+02 -0.20858654428E+01 -0.18354391476E+03  0.18392144463E+03  0.00000000000E+00 0.  1.
         22    1    4    4    0    0 -0.96620488358E+01  0.86305016378E+01 -0.23723303225E+03  0.23758651548E+03  0.00000000000E+00 0.  1.
<mgrwt>
<rscale>  0 0.91633135E+02</rscale>
<asrwt>0</asrwt>
<pdfrwt beam="2">  1        1 0.69214453E-01 0.91633135E+02</pdfrwt>
<pdfrwt beam="1">  1       -1 0.71782998E-03 0.91633135E+02</pdfrwt>
<totfact> 0.13554490E+05</totfact>
</mgrwt>
</event>
<event>
 7    1  0.3345055E-009  0.9214424E+02  0.7818608E-02  0.1297741E+00
          1   -1    0    0  501    0  0.00000000000E+00  0.00000000000E+00  0.25480990442E+02  0.25480990940E+02  0.50400000000E-02 0. -1.
         -1   -1    0    0    0  501 -0.00000000000E+00 -0.00000000000E+00 -0.83302899171E+02  0.83302899323E+02  0.50400000000E-02 0.  1.
         23    2    1    2    0    0  0.00000000000E+00  0.00000000000E+00 -0.57821908729E+02  0.10878389026E+03  0.92144243726E+02 0.  0.
    9000005    2    3    3    0    0 -0.24202167682E+02 -0.11716604603E+02  0.14438759486E+02  0.31682477081E+02  0.85016371700E+01 0.  0.
         22    1    3    3    0    0  0.24202167682E+02  0.11716604603E+02 -0.72260668215E+02  0.77101413183E+02  0.00000000000E+00 0.  1.
         22    1    4    4    0    0 -0.11405187775E+02 -0.27917958241E+01  0.24212729285E+01  0.11988953028E+02  0.00000000000E+00 0. -1.
         22    1    4    4    0    0 -0.12796979907E+02 -0.89248087791E+01  0.12017486557E+02  0.19693524053E+02  0.00000000000E+00 0. -1.
<mgrwt>
<rscale>  0 0.92144244E+02</rscale>
<asrwt>0</asrwt>
<pdfrwt beam="1">  1        1 0.39201525E-02 0.92144244E+02</pdfrwt>
<pdfrwt beam="2">  1       -1 0.12815831E-01 0.92144244E+02</pdfrwt>
<totfact> 0.81823127E+04</totfact>
</mgrwt>
</event>
<event>
 7    1  0.3345055E-009  0.9660349E+02  0.7818608E-02  0.1287605E+00
         -1   -1    0    0    0  501 -0.00000000000E+00  0.00000000000E+00  0.59146063947E+01  0.59146085421E+01  0.50400000000E-02 0.  1.
          1   -1    0    0  501    0  0.00000000000E+00 -0.00000000000E+00 -0.39445705294E+03  0.39445705297E+03  0.50400000000E-02 0. -1.
         23    2    1    2    0    0  0.00000000000E+00  0.00000000000E+00 -0.38854244655E+03  0.40037166152E+03  0.96603491533E+02 0.  0.
    9000005    2    3    3    0    0  0.37626769320E+02  0.16989219817E+02 -0.29800897988E+03  0.30086932010E+03  0.29305856497E+01 0.  0.
         22    1    3    3    0    0 -0.37626769320E+02 -0.16989219817E+02 -0.90533466669E+02  0.99502341413E+02  0.00000000000E+00 0.  1.
         22    1    4    4    0    0  0.21092013020E+02  0.10266141756E+02 -0.15981998411E+03  0.16153233114E+03  0.00000000000E+00 0. -1.
         22    1    4    4    0    0  0.16534756300E+02  0.67230780611E+01 -0.13818899576E+03  0.13933698897E+03  0.00000000000E+00 0. -1.
<mgrwt>
<rscale>  0 0.96603492E+02</rscale>
<asrwt>0</asrwt>
<pdfrwt beam="2">  1        1 0.60685680E-01 0.96603492E+02</pdfrwt>
<pdfrwt beam="1">  1       -1 0.90993992E-03 0.96603492E+02</pdfrwt>
<totfact> 0.11536813E+05</totfact>
</mgrwt>
</event>
<event>
 7    1  0.3345055E-009  0.9864625E+02  0.7818608E-02  0.1283169E+00
          1   -1    0    0  501    0  0.00000000000E+00  0.00000000000E+00  0.10570999880E+03  0.10570999892E+03  0.50400000000E-02 0. -1.
         -1   -1    0    0    0  501 -0.00000000000E+00 -0.00000000000E+00 -0.23013628697E+02  0.23013629249E+02  0.50400000000E-02 0.  1.
         23    2    1    2    0    0  0.00000000000E+00  0.00000000000E+00  0.82696370104E+02  0.12872362817E+03  0.98646250922E+02 0.  0.
    9000005    2    3    3    0    0  0.32948330172E+02  0.13516584118E+02 -0.28120620597E+01  0.36095433335E+02  0.51654726077E+01 0.  0.
         22    1    3    3    0    0 -0.32948330172E+02 -0.13516584118E+02  0.85508432163E+02  0.92628194835E+02  0.00000000000E+00 0. -1.
         22    1    4    4    0    0  0.12211003029E+02  0.59387637043E+01 -0.34417122386E+01  0.14007958183E+02  0.00000000000E+00 0.  1.
         22    1    4    4    0    0  0.20737327143E+02  0.75778204139E+01  0.62965017891E+00  0.22087475152E+02  0.00000000000E+00 0.  1.
<mgrwt>
<rscale>  0 0.98646251E+02</rscale>
<asrwt>0</asrwt>
<pdfrwt beam="1">  1        1 0.16263077E-01 0.98646251E+02</pdfrwt>
<pdfrwt beam="2">  1       -1 0.35405583E-02 0.98646251E+02</pdfrwt>
<totfact> 0.84984438E+04</totfact>
</mgrwt>
</event>
<event>
 7    1  0.3345055E-009  0.8881604E+02  0.7818608E-02  0.1305744E+00
          1   -1    0    0  501    0  0.00000000000E+00  0.00000000000E+00  0.12531711648E+03  0.12531711658E+03  0.50400000000E-02 0. -1.
         -1   -1    0    0    0  501 -0.00000000000E+00 -0.00000000000E+00 -0.15736654661E+02  0.15736655468E+02  0.50400000000E-02 0.  1.
         23    2    1    2    0    0  0.00000000000E+00  0.00000000000E+00  0.10958046182E+03  0.14105377205E+03  0.88816040201E+02 0.  0.
    9000005    2    3    3    0    0 -0.26017310789E+02 -0.33426732132E+02  0.73430994080E+02  0.85366871440E+02  0.10057085370E+02 0.  0.
         22    1    3    3    0    0  0.26017310789E+02  0.33426732132E+02  0.36149467737E+02  0.55686900608E+02  0.00000000000E+00 0.  1.
         22    1    4    4    0    0 -0.15736922845E+02 -0.23473785892E+02  0.39748726736E+02  0.48771207098E+02  0.00000000000E+00 0. -1.
         22    1    4    4    0    0 -0.10280387943E+02 -0.99529462399E+01  0.33682267345E+02  0.36595664342E+02  0.00000000000E+00 0. -1.
<mgrwt>
<rscale>  0 0.88816040E+02</rscale>
<asrwt>0</asrwt>
<pdfrwt beam="1">  1        1 0.19279556E-01 0.88816040E+02</pdfrwt>
<pdfrwt beam="2">  1       -1 0.24210239E-02 0.88816040E+02</pdfrwt>
<totfact> 0.11653643E+05</totfact>
</mgrwt>
</event>
<event>
 7    1  0.3345055E-009  0.9062260E+02  0.7818608E-02  0.1301351E+00
         -1   -1    0    0    0  501 -0.00000000000E+00  0.00000000000E+00  0.21665512498E+03  0.21665512504E+03  0.50400000000E-02 0.  1.
          1   -1    0    0  501    0  0.00000000000E+00 -0.00000000000E+00 -0.94764143076E+01  0.94764156479E+01  0.50400000000E-02 0. -1.
         23    2    1    2    0    0  0.35527136788E-14  0.00000000000E+00  0.20717871067E+03  0.22613154068E+03  0.90622599484E+02 0.  0.
    9000005    2    3    3    0    0 -0.25033760136E+02 -0.37066083597E+02  0.95361663192E+02  0.10570049898E+03  0.88410959567E+01 0.  0.
         22    1    3    3    0    0  0.25033760136E+02  0.37066083597E+02  0.11181704748E+03  0.12043104171E+03  0.00000000000E+00 0. -1.
         22    1    4    4    0    0 -0.85035231181E+01 -0.17401805995E+02  0.33147765047E+02  0.38391497560E+02  0.00000000000E+00 0.  1.
         22    1    4    4    0    0 -0.16530237018E+02 -0.19664277602E+02  0.62213898145E+02  0.67309001418E+02  0.00000000000E+00 0.  1.
<mgrwt>
<rscale>  0 0.90622599E+02</rscale>
<asrwt>0</asrwt>
<pdfrwt beam="2">  1        1 0.14579099E-02 0.90622599E+02</pdfrwt>
<pdfrwt beam="1">  1       -1 0.33331559E-01 0.90622599E+02</pdfrwt>
<totfact> 0.68893678E+04</totfact>
</mgrwt>
</event>
<event>
 7    1  0.3345055E-009  0.6892024E+02  0.7818608E-02  0.1363804E+00
         -1   -1    0    0    0  501 -0.00000000000E+00  0.00000000000E+00  0.19691996606E+01  0.19692061103E+01  0.50400000000E-02 0.  1.
          1   -1    0    0  501    0  0.00000000000E+00 -0.00000000000E+00 -0.60303582911E+03  0.60303582913E+03  0.50400000000E-02 0. -1.
         23    2    1    2    0    0  0.35527136788E-14  0.00000000000E+00 -0.60106662945E+03  0.60500503524E+03  0.68920241075E+02 0.  0.
    9000005    2    3    3    0    0  0.22676094140E+02  0.34974367482E+01 -0.52214277255E+03  0.52281371880E+03  0.13216366298E+02 0.  0.
         22    1    3    3    0    0 -0.22676094140E+02 -0.34974367482E+01 -0.78923856907E+02  0.82191316441E+02  0.00000000000E+00 0.  1.
         22    1    4    4    0    0  0.80558906171E+01 -0.13487255564E+01 -0.83004954259E+02  0.83405868293E+02  0.00000000000E+00 0.  1.
         22    1    4    4    0    0  0.14620203523E+02  0.48461623045E+01 -0.43913781829E+03  0.43940785051E+03  0.00000000000E+00 0.  1.
<mgrwt>
<rscale>  0 0.68920241E+02</rscale>
<asrwt>0</asrwt>
<pdfrwt beam="2">  1        1 0.92774596E-01 0.68920241E+02</pdfrwt>
<pdfrwt beam="1">  1       -1 0.30295477E-03 0.68920241E+02</pdfrwt>
<totfact> 0.29399500E+05</totfact>
</mgrwt>
</event>
<event>
 7    1  0.3345055E-009  0.9266466E+02  0.7818608E-02  0.1296524E+00
          1   -1    0    0  501    0  0.00000000000E+00  0.00000000000E+00  0.54646235813E+01  0.54646259055E+01  0.50400000000E-02 0. -1.
         -1   -1    0    0    0  501 -0.00000000000E+00 -0.00000000000E+00 -0.39283297139E+03  0.39283297143E+03  0.50400000000E-02 0.  1.
         23    2    1    2    0    0  0.00000000000E+00 -0.35527136788E-14 -0.38736834781E+03  0.39829759733E+03  0.92664659678E+02 0.  0.
    9000005    2    3    3    0    0 -0.25075343449E+02 -0.29893146486E+02 -0.29778107283E+03  0.30058243528E+03  0.12404031897E+02 0.  0.
         22    1    3    3    0    0  0.25075343449E+02  0.29893146486E+02 -0.89587274982E+02  0.97715162051E+02  0.00000000000E+00 0. -1.
         22    1    4    4    0    0 -0.41330493830E+01 -0.14087818599E+02 -0.11173315203E+03  0.11269359340E+03  0.00000000000E+00 0. -1.
         22    1    4    4    0    0 -0.20942294066E+02 -0.15805327886E+02 -0.18604792080E+03  0.18788884188E+03  0.00000000000E+00 0. -1.
<mgrwt>
<rscale>  0 0.92664660E+02</rscale>
<asrwt>0</asrwt>
<pdfrwt beam="1">  1        1 0.84071181E-03 0.92664660E+02</pdfrwt>
<pdfrwt beam="2">  1       -1 0.60435820E-01 0.92664660E+02</pdfrwt>
<totfact> 0.51539859E+04</totfact>
</mgrwt>
</event>
<event>
 7    1  0.3345055E-009  0.8711207E+02  0.7818608E-02  0.1310000E+00
          1   -1    0    0  501    0  0.00000000000E+00  0.00000000000E+00  0.58806613132E+03  0.58806613135E+03  0.50400000000E-02 0. -1.
         -1   -1    0    0    0  501 -0.00000000000E+00 -0.00000000000E+00 -0.32260433771E+01  0.32260473141E+01  0.50400000000E-02 0.  1.
         23    2    1    2    0    0  0.00000000000E+00  0.00000000000E+00  0.58484008795E+03  0.59129217866E+03  0.87112066181E+02 0.  0.
    9000005    2    3    3    0    0  0.31234772592E+02  0.26995922917E+02  0.37238584522E+03  0.37486390850E+03  0.12138422476E+02 0.  0.
         22    1    3    3    0    0 -0.31234772592E+02 -0.26995922917E+02  0.21245424272E+03  0.21642827016E+03  0.00000000000E+00 0.  1.
         22    1    4    4    0    0  0.14256746628E+02  0.80878999179E+01  0.19175701254E+03  0.19245628285E+03  0.00000000000E+00 0.  1.
         22    1    4    4    0    0  0.16978025965E+02  0.18908022999E+02  0.18062883268E+03  0.18240762565E+03  0.00000000000E+00 0.  1.
<mgrwt>
<rscale>  0 0.87112066E+02</rscale>
<asrwt>0</asrwt>
<pdfrwt beam="1">  1        1 0.90471621E-01 0.87112066E+02</pdfrwt>
<pdfrwt beam="2">  1       -1 0.49631517E-03 0.87112066E+02</pdfrwt>
<totfact> 0.15950327E+05</totfact>
</mgrwt>
</event>
<event>
 7    1  0.3345055E-009  0.9047470E+02  0.7818608E-02  0.1301706E+00
          1   -1    0    0  501    0  0.00000000000E+00  0.00000000000E+00  0.44687664687E+02  0.44687664971E+02  0.50400000000E-02 0. -1.
         -1   -1    0    0    0  501 -0.00000000000E+00 -0.00000000000E+00 -0.45793795767E+02  0.45793796044E+02  0.50400000000E-02 0.  1.
         23    2    1    2    0    0  0.00000000000E+00  0.00000000000E+00 -0.11061310795E+01  0.90481461015E+02  0.90474699566E+02 0.  0.
    9000005    2    3    3    0    0  0.19870294720E+02  0.39363149279E+02 -0.10463714314E+01  0.46387360450E+02  0.14366843179E+02 0.  0.
         22    1    3    3    0    0 -0.19870294720E+02 -0.39363149279E+02 -0.59759648110E-01  0.44094100565E+02  0.00000000000E+00 0. -1.
         22    1    4    4    0    0  0.22628331164E+01  0.72864415141E+01  0.52453956770E+01  0.92588778726E+01  0.00000000000E+00 0.  1.
         22    1    4    4    0    0  0.17607461604E+02  0.32076707765E+02 -0.62917671084E+01  0.37128482577E+02  0.00000000000E+00 0.  1.
<mgrwt>
<rscale>  0 0.90474700E+02</rscale>
<asrwt>0</asrwt>
<pdfrwt beam="1">  1        1 0.68750254E-02 0.90474700E+02</pdfrwt>
<pdfrwt beam="2">  1       -1 0.70451994E-02 0.90474700E+02</pdfrwt>
<totfact> 0.94216898E+04</totfact>
</mgrwt>
</event>
<event>
 7    1  0.3345055E-009  0.8928893E+02  0.7818608E-02  0.1304583E+00
         -1   -1    0    0    0  501 -0.00000000000E+00  0.00000000000E+00  0.10980283109E+02  0.10980284266E+02  0.50400000000E-02 0.  1.
          1   -1    0    0  501    0  0.00000000000E+00 -0.00000000000E+00 -0.18151881221E+03  0.18151881228E+03  0.50400000000E-02 0. -1.
         23    2    1    2    0    0  0.00000000000E+00  0.00000000000E+00 -0.17053852910E+03  0.19249909654E+03  0.89288925757E+02 0.  0.
    9000005    2    3    3    0    0  0.11260749995E+02  0.37298656563E+02 -0.13016801400E+03  0.13639408107E+03  0.11901227259E+02 0.  0.
         22    1    3    3    0    0 -0.11260749995E+02 -0.37298656563E+02 -0.40370515092E+02  0.56105015468E+02  0.00000000000E+00 0.  1.
         22    1    4    4    0    0  0.12791421286E+02  0.23171275354E+02 -0.88196043720E+02  0.92081868943E+02  0.00000000000E+00 0. -1.
         22    1    4    4    0    0 -0.15306712916E+01  0.14127381209E+02 -0.41971970284E+02  0.44312212131E+02  0.00000000000E+00 0. -1.
<mgrwt>
<rscale>  0 0.89288926E+02</rscale>
<asrwt>0</asrwt>
<pdfrwt beam="2">  1        1 0.27925969E-01 0.89288926E+02</pdfrwt>
<pdfrwt beam="1">  1       -1 0.16892746E-02 0.89288926E+02</pdfrwt>
<totfact> 0.12292026E+05</totfact>
</mgrwt>
</event>
<event>
 7    1  0.3345055E-009  0.8967693E+02  0.7818608E-02  0.1303636E+00
          1   -1    0    0  501    0  0.00000000000E+00  0.00000000000E+00  0.75611610545E+02  0.75611610713E+02  0.50400000000E-02 0. -1.
         -1   -1    0    0    0  501 -0.00000000000E+00 -0.00000000000E+00 -0.26589670008E+02  0.26589670485E+02  0.50400000000E-02 0.  1.
         23    2    1    2    0    0  0.00000000000E+00  0.00000000000E+00  0.49021940538E+02  0.10220128120E+03  0.89676926935E+02 0.  0.
    9000005    2    3    3    0    0 -0.56526924985E+01  0.16350191575E+02 -0.21743824262E+02  0.29351606081E+02  0.94573351941E+01 0.  0.
         22    1    3    3    0    0  0.56526924985E+01 -0.16350191575E+02  0.70765764800E+02  0.72849675118E+02  0.00000000000E+00 0. -1.
         22    1    4    4    0    0 -0.79560072546E+01  0.12765984251E+02 -0.19195334267E+02  0.24387071635E+02  0.00000000000E+00 0. -1.
         22    1    4    4    0    0  0.23033147561E+01  0.35842073239E+01 -0.25484899954E+01  0.49645344457E+01  0.00000000000E+00 0. -1.
<mgrwt>
<rscale>  0 0.89676927E+02</rscale>
<asrwt>0</asrwt>
<pdfrwt beam="1">  1        1 0.11632556E-01 0.89676927E+02</pdfrwt>
<pdfrwt beam="2">  1       -1 0.40907184E-02 0.89676927E+02</pdfrwt>
<totfact> 0.10450703E+05</totfact>
</mgrwt>
</event>
<event>
 7    1  0.3345055E-009  0.9232873E+02  0.7818608E-02  0.1297308E+00
          1   -1    0    0  501    0  0.00000000000E+00  0.00000000000E+00  0.15483585128E+03  0.15483585136E+03  0.50400000000E-02 0. -1.
         -1   -1    0    0    0  501 -0.00000000000E+00 -0.00000000000E+00 -0.13763921397E+02  0.13763922320E+02  0.50400000000E-02 0.  1.
         23    2    1    2    0    0  0.00000000000E+00  0.00000000000E+00  0.14107192988E+03  0.16859977368E+03  0.92328729464E+02 0.  0.
    9000005    2    3    3    0    0  0.25903514937E+02 -0.10048969169E+02  0.13743863569E+03  0.14057880485E+03  0.10052259717E+02 0.  0.
         22    1    3    3    0    0 -0.25903514937E+02  0.10048969169E+02  0.36332941909E+01  0.28020968829E+02  0.00000000000E+00 0.  1.
         22    1    4    4    0    0  0.11662193906E+01 -0.37816862999E+01  0.22013745385E+02  0.22366631503E+02  0.00000000000E+00 0. -1.
         22    1    4    4    0    0  0.24737295546E+02 -0.62672828689E+01  0.11542489030E+03  0.11821217335E+03  0.00000000000E+00 0. -1.
<mgrwt>
<rscale>  0 0.92328729E+02</rscale>
<asrwt>0</asrwt>
<pdfrwt beam="1">  1        1 0.23820902E-01 0.92328729E+02</pdfrwt>
<pdfrwt beam="2">  1       -1 0.21175263E-02 0.92328729E+02</pdfrwt>
<totfact> 0.10903157E+05</totfact>
</mgrwt>
</event>
<event>
 7    1  0.3345055E-009  0.8945911E+02  0.7818608E-02  0.1304167E+00
         -1   -1    0    0    0  501 -0.00000000000E+00  0.00000000000E+00  0.10618166714E+03  0.10618166726E+03  0.50400000000E-02 0.  1.
          1   -1    0    0  501    0  0.00000000000E+00 -0.00000000000E+00 -0.18842548506E+02  0.18842549180E+02  0.50400000000E-02 0. -1.
         23    2    1    2    0    0  0.00000000000E+00  0.17763568394E-14  0.87339118633E+02  0.12502421644E+03  0.89459113859E+02 0.  0.
    9000005    2    3    3    0    0  0.21932748612E+02 -0.96764425234E+01  0.95624264532E+02  0.99660410648E+02  0.14612271614E+02 0.  0.
         22    1    3    3    0    0 -0.21932748612E+02  0.96764425234E+01 -0.82851458990E+01  0.25363805790E+02  0.00000000000E+00 0. -1.
         22    1    4    4    0    0 -0.11018830671E+01 -0.11355568591E+01  0.21767362146E+02  0.21824795314E+02  0.00000000000E+00 0.  1.
         22    1    4    4    0    0  0.23034631679E+02 -0.85408856643E+01  0.73856902386E+02  0.77835615335E+02  0.00000000000E+00 0.  1.
<mgrwt>
<rscale>  0 0.89459114E+02</rscale>
<asrwt>0</asrwt>
<pdfrwt beam="2">  1        1 0.28988537E-02 0.89459114E+02</pdfrwt>
<pdfrwt beam="1">  1       -1 0.16335641E-01 0.89459114E+02</pdfrwt>
<totfact> 0.84494174E+04</totfact>
</mgrwt>
</event>
<event>
 7    1  0.3345055E-009  0.8720215E+02  0.7818608E-02  0.1309772E+00
          1   -1    0    0  501    0  0.00000000000E+00  0.00000000000E+00  0.35330805364E+02  0.35330805723E+02  0.50400000000E-02 0. -1.
         -1   -1    0    0    0  501 -0.00000000000E+00 -0.00000000000E+00 -0.53807255254E+02  0.53807255491E+02  0.50400000000E-02 0.  1.
         23    2    1    2    0    0  0.00000000000E+00  0.00000000000E+00 -0.18476449891E+02  0.89138061214E+02  0.87202148806E+02 0.  0.
    9000005    2    3    3    0    0 -0.17773658041E+02  0.39302956058E+02 -0.11878103552E+02  0.45501339872E+02  0.82859707378E+01 0.  0.
         22    1    3    3    0    0  0.17773658041E+02 -0.39302956058E+02 -0.65983463387E+01  0.43636721342E+02  0.00000000000E+00 0. -1.
         22    1    4    4    0    0 -0.92375016991E+01  0.23002089929E+02 -0.10889526367E+02  0.27074145660E+02  0.00000000000E+00 0. -1.
         22    1    4    4    0    0 -0.85361563419E+01  0.16300866129E+02 -0.98857718508E+00  0.18427194211E+02  0.00000000000E+00 0. -1.
<mgrwt>
<rscale>  0 0.87202149E+02</rscale>
<asrwt>0</asrwt>
<pdfrwt beam="1">  1        1 0.54355085E-02 0.87202149E+02</pdfrwt>
<pdfrwt beam="2">  1       -1 0.82780393E-02 0.87202149E+02</pdfrwt>
<totfact> 0.10091145E+05</totfact>
</mgrwt>
</event>
<event>
 7    1  0.3345055E-009  0.9112204E+02  0.7818608E-02  0.1300157E+00
         -1   -1    0    0    0  501 -0.00000000000E+00  0.00000000000E+00  0.26358445151E+03  0.26358445156E+03  0.50400000000E-02 0.  1.
          1   -1    0    0  501    0  0.00000000000E+00 -0.00000000000E+00 -0.78752990922E+01  0.78753007049E+01  0.50400000000E-02 0. -1.
         23    2    1    2    0    0  0.00000000000E+00  0.17763568394E-14  0.25570915242E+03  0.27145975226E+03  0.91122041617E+02 0.  0.
    9000005    2    3    3    0    0  0.34642751779E+02  0.10044192410E+02  0.21030261882E+03  0.21347044854E+03  0.64369922187E+01 0.  0.
         22    1    3    3    0    0 -0.34642751779E+02 -0.10044192410E+02  0.45406533600E+02  0.57989303717E+02  0.00000000000E+00 0. -1.
         22    1    4    4    0    0  0.10680284215E+02  0.58334428221E+01  0.61587359271E+02  0.62778183695E+02  0.00000000000E+00 0.  1.
         22    1    4    4    0    0  0.23962467564E+02  0.42107495878E+01  0.14871525954E+03  0.15069226485E+03  0.00000000000E+00 0.  1.
<mgrwt>
<rscale>  0 0.91122042E+02</rscale>
<asrwt>0</asrwt>
<pdfrwt beam="2">  1        1 0.12115848E-02 0.91122042E+02</pdfrwt>
<pdfrwt beam="1">  1       -1 0.40551446E-01 0.91122042E+02</pdfrwt>
<totfact> 0.63688031E+04</totfact>
</mgrwt>
</event>
<event>
 7    1  0.3345055E-009  0.9058676E+02  0.7818608E-02  0.1301437E+00
         -1   -1    0    0    0  501 -0.00000000000E+00  0.00000000000E+00  0.22343599691E+01  0.22343656535E+01  0.50400000000E-02 0.  1.
          1   -1    0    0  501    0  0.00000000000E+00 -0.00000000000E+00 -0.91815446898E+03  0.91815446899E+03  0.50400000000E-02 0. -1.
         23    2    1    2    0    0  0.00000000000E+00  0.00000000000E+00 -0.91592010901E+03  0.92038883464E+03  0.90586758706E+02 0.  0.
    9000005    2    3    3    0    0 -0.20733695524E+01  0.26471250083E+02 -0.82972120633E+03  0.83019306554E+03  0.88442007692E+01 0.  0.
         22    1    3    3    0    0  0.20733695524E+01 -0.26471250083E+02 -0.86198902674E+02  0.90195769105E+02  0.00000000000E+00 0.  1.
         22    1    4    4    0    0  0.74696205912E+00  0.59277532426E+00 -0.10525748360E+03  0.10526180309E+03  0.00000000000E+00 0.  1.
         22    1    4    4    0    0 -0.28203316115E+01  0.25878474758E+02 -0.72446372273E+03  0.72493126245E+03  0.00000000000E+00 0.  1.
<mgrwt>
<rscale>  0 0.90586759E+02</rscale>
<asrwt>0</asrwt>
<pdfrwt beam="2">  1        1 0.14125423E+00 0.90586759E+02</pdfrwt>
<pdfrwt beam="1">  1       -1 0.34374886E-03 0.90586759E+02</pdfrwt>
<totfact> 0.14107340E+05</totfact>
</mgrwt>
</event>
<event>
 7    1  0.3345055E-009  0.9387515E+02  0.7818608E-02  0.1293730E+00
         -1   -1    0    0    0  501 -0.00000000000E+00  0.00000000000E+00  0.45680543049E+02  0.45680543327E+02  0.50400000000E-02 0.  1.
          1   -1    0    0  501    0  0.00000000000E+00 -0.00000000000E+00 -0.48229196528E+02  0.48229196792E+02  0.50400000000E-02 0. -1.
         23    2    1    2    0    0  0.00000000000E+00  0.00000000000E+00 -0.25486534794E+01  0.93909740119E+02  0.93875149292E+02 0.  0.
    9000005    2    3    3    0    0  0.37345746475E+02 -0.26992928483E+02 -0.42031851632E+01  0.47800517148E+02  0.11995820365E+02 0.  0.
         22    1    3    3    0    0 -0.37345746475E+02  0.26992928483E+02  0.16545316838E+01  0.46109222971E+02  0.00000000000E+00 0. -1.
         22    1    4    4    0    0  0.14570234165E+02 -0.10274022562E+02  0.42151188934E+01  0.18319784129E+02  0.00000000000E+00 0.  1.
         22    1    4    4    0    0  0.22775512310E+02 -0.16718905920E+02 -0.84183040566E+01  0.29480733019E+02  0.00000000000E+00 0.  1.
<mgrwt>
<rscale>  0 0.93875149E+02</rscale>
<asrwt>0</asrwt>
<pdfrwt beam="2">  1        1 0.74198765E-02 0.93875149E+02</pdfrwt>
<pdfrwt beam="1">  1       -1 0.70277758E-02 0.93875149E+02</pdfrwt>
<totfact> 0.85922604E+04</totfact>
</mgrwt>
</event>
<event>
 7    1  0.3345055E-009  0.9091422E+02  0.7818608E-02  0.1300653E+00
          1   -1    0    0  501    0  0.00000000000E+00  0.00000000000E+00  0.26413326339E+03  0.26413326344E+03  0.50400000000E-02 0. -1.
         -1   -1    0    0    0  501 -0.00000000000E+00 -0.00000000000E+00 -0.78231293314E+01  0.78231309549E+01  0.50400000000E-02 0.  1.
         23    2    1    2    0    0  0.00000000000E+00 -0.71054273576E-14  0.25631013406E+03  0.27195639440E+03  0.90914221276E+02 0.  0.
    9000005    2    3    3    0    0  0.84059232834E+01 -0.43883585563E+02  0.15190657120E+03  0.15839349303E+03  0.40575402502E+01 0.  0.
         22    1    3    3    0    0 -0.84059232834E+01  0.43883585563E+02  0.10440356286E+03  0.11356290137E+03  0.00000000000E+00 0. -1.
         22    1    4    4    0    0  0.62970885216E+01 -0.35140742460E+02  0.12654732807E+03  0.13148669646E+03  0.00000000000E+00 0.  1.
         22    1    4    4    0    0  0.21088347618E+01 -0.87428431029E+01  0.25359243127E+02  0.26906796568E+02  0.00000000000E+00 0.  1.
<mgrwt>
<rscale>  0 0.90914221E+02</rscale>
<asrwt>0</asrwt>
<pdfrwt beam="1">  1        1 0.40635889E-01 0.90914221E+02</pdfrwt>
<pdfrwt beam="2">  1       -1 0.12035584E-02 0.90914221E+02</pdfrwt>
<totfact> 0.12597108E+05</totfact>
</mgrwt>
</event>
<event>
 7    1  0.3345055E-009  0.9034608E+02  0.7818608E-02  0.1302016E+00
          1   -1    0    0  501    0  0.00000000000E+00  0.00000000000E+00  0.52615459989E+03  0.52615459991E+03  0.50400000000E-02 0. -1.
         -1   -1    0    0    0  501 -0.00000000000E+00 -0.00000000000E+00 -0.38783324595E+01  0.38783357344E+01  0.50400000000E-02 0.  1.
         23    2    1    2    0    0  0.00000000000E+00  0.00000000000E+00  0.52227626743E+03  0.53003293565E+03  0.90346075460E+02 0.  0.
    9000005    2    3    3    0    0 -0.75289893924E+01  0.36567700364E+02  0.40814332585E+03  0.40994875374E+03  0.91172290089E+01 0.  0.
         22    1    3    3    0    0  0.75289893924E+01 -0.36567700364E+02  0.11413294158E+03  0.12008418191E+03  0.00000000000E+00 0.  1.
         22    1    4    4    0    0 -0.81299372002E+01  0.23018181621E+02  0.29123664012E+03  0.29225795645E+03  0.00000000000E+00 0. -1.
         22    1    4    4    0    0  0.60094780777E+00  0.13549518742E+02  0.11690668573E+03  0.11769079728E+03  0.00000000000E+00 0. -1.
<mgrwt>
<rscale>  0 0.90346075E+02</rscale>
<asrwt>0</asrwt>
<pdfrwt beam="1">  1        1 0.80946848E-01 0.90346075E+02</pdfrwt>
<pdfrwt beam="2">  1       -1 0.59666688E-03 0.90346075E+02</pdfrwt>
<totfact> 0.14349092E+05</totfact>
</mgrwt>
</event>
<event>
 7    1  0.3345055E-009  0.9192887E+02  0.7818608E-02  0.1298247E+00
         -1   -1    0    0    0  501 -0.00000000000E+00  0.00000000000E+00  0.14920866695E+02  0.14920867547E+02  0.50400000000E-02 0.  1.
          1   -1    0    0  501    0  0.00000000000E+00 -0.00000000000E+00 -0.14159559477E+03  0.14159559486E+03  0.50400000000E-02 0. -1.
         23    2    1    2    0    0  0.00000000000E+00  0.00000000000E+00 -0.12667472808E+03  0.15651646241E+03  0.91928865278E+02 0.  0.
    9000005    2    3    3    0    0  0.31533710309E+02 -0.14879323688E+02 -0.17736699710E+02  0.42134369476E+02  0.15650732100E+02 0.  0.
         22    1    3    3    0    0 -0.31533710309E+02  0.14879323688E+02 -0.10893802837E+03  0.11438209293E+03  0.00000000000E+00 0. -1.
         22    1    4    4    0    0  0.13700331068E+02  0.80281550909E+00 -0.10589349308E+02  0.17334298453E+02  0.00000000000E+00 0.  1.
         22    1    4    4    0    0  0.17833379241E+02 -0.15682139197E+02 -0.71473504023E+01  0.24800071022E+02  0.00000000000E+00 0.  1.
<mgrwt>
<rscale>  0 0.91928865E+02</rscale>
<asrwt>0</asrwt>
<pdfrwt beam="2">  1        1 0.21783937E-01 0.91928865E+02</pdfrwt>
<pdfrwt beam="1">  1       -1 0.22955181E-02 0.91928865E+02</pdfrwt>
<totfact> 0.10851953E+05</totfact>
</mgrwt>
</event>
<event>
 7    1  0.3345055E-009  0.9471803E+02  0.7818608E-02  0.1291812E+00
          1   -1    0    0  501    0  0.00000000000E+00  0.00000000000E+00  0.33749428766E+03  0.33749428770E+03  0.50400000000E-02 0. -1.
         -1   -1    0    0    0  501 -0.00000000000E+00 -0.00000000000E+00 -0.66456707684E+01  0.66456726795E+01  0.50400000000E-02 0.  1.
         23    2    1    2    0    0  0.00000000000E+00 -0.17763568394E-14  0.33084861689E+03  0.34413996038E+03  0.94718029062E+02 0.  0.
    9000005    2    3    3    0    0 -0.21865572425E+02  0.82332848743E+01  0.31491432749E+03  0.31585936958E+03  0.70864274438E+01 0.  0.
         22    1    3    3    0    0  0.21865572425E+02 -0.82332848743E+01  0.15934289403E+02  0.28280590801E+02  0.00000000000E+00 0.  1.
         22    1    4    4    0    0 -0.17310502576E+02  0.57987773494E+01  0.27610464953E+03  0.27670752937E+03  0.00000000000E+00 0.  1.
         22    1    4    4    0    0 -0.45550698488E+01  0.24345075250E+01  0.38809677958E+02  0.39151840205E+02  0.00000000000E+00 0.  1.
<mgrwt>
<rscale>  0 0.94718029E+02</rscale>
<asrwt>0</asrwt>
<pdfrwt beam="1">  1        1 0.51922207E-01 0.94718029E+02</pdfrwt>
<pdfrwt beam="2">  1       -1 0.10224109E-02 0.94718029E+02</pdfrwt>
<totfact> 0.11831453E+05</totfact>
</mgrwt>
</event>
<event>
 7    1  0.3345055E-009  0.9162456E+02  0.7818608E-02  0.1298965E+00
         -1   -1    0    0    0  501 -0.00000000000E+00  0.00000000000E+00  0.23148042103E+03  0.23148042108E+03  0.50400000000E-02 0.  1.
          1   -1    0    0  501    0  0.00000000000E+00 -0.00000000000E+00 -0.90667064869E+01  0.90667078877E+01  0.50400000000E-02 0. -1.
         23    2    1    2    0    0  0.00000000000E+00  0.00000000000E+00  0.22241371454E+03  0.24054712897E+03  0.91624564610E+02 0.  0.
    9000005    2    3    3    0    0  0.36318857900E+02  0.10568122097E+02  0.44329089971E+02  0.58489780446E+02  0.50240974412E+01 0.  0.
         22    1    3    3    0    0 -0.36318857900E+02 -0.10568122097E+02  0.17808462457E+03  0.18205734853E+03  0.00000000000E+00 0.  1.
         22    1    4    4    0    0  0.10542675459E+02  0.16232610562E+01  0.15298642245E+02  0.18650239592E+02  0.00000000000E+00 0. -1.
         22    1    4    4    0    0  0.25776182440E+02  0.89448610410E+01  0.29030447726E+02  0.39839540853E+02  0.00000000000E+00 0. -1.
<mgrwt>
<rscale>  0 0.91624565E+02</rscale>
<asrwt>0</asrwt>
<pdfrwt beam="2">  1        1 0.13948780E-02 0.91624565E+02</pdfrwt>
<pdfrwt beam="1">  1       -1 0.35612374E-01 0.91624565E+02</pdfrwt>
<totfact> 0.65580799E+04</totfact>
</mgrwt>
</event>
<event>
 7    1  0.3345055E-009  0.9183751E+02  0.7818608E-02  0.1298462E+00
          1   -1    0    0  501    0  0.00000000000E+00  0.00000000000E+00  0.21779365677E+02  0.21779366261E+02  0.50400000000E-02 0. -1.
         -1   -1    0    0    0  501 -0.00000000000E+00 -0.00000000000E+00 -0.96813290649E+02  0.96813290780E+02  0.50400000000E-02 0.  1.
         23    2    1    2    0    0  0.35527136788E-14 -0.35527136788E-14 -0.75033924972E+02  0.11859265704E+03  0.91837510895E+02 0.  0.
    9000005    2    3    3    0    0 -0.31239218919E+02  0.18313241263E+02 -0.49165673104E+01  0.39676831951E+02  0.15453632432E+02 0.  0.
         22    1    3    3    0    0  0.31239218919E+02 -0.18313241263E+02 -0.70117357661E+02  0.78915825090E+02  0.00000000000E+00 0.  1.
         22    1    4    4    0    0 -0.22049381218E+00  0.59183619725E+01 -0.64891930311E-01  0.59228233911E+01  0.00000000000E+00 0.  1.
         22    1    4    4    0    0 -0.31018725107E+02  0.12394879290E+02 -0.48516753801E+01  0.33754008560E+02  0.00000000000E+00 0.  1.
<mgrwt>
<rscale>  0 0.91837511E+02</rscale>
<asrwt>0</asrwt>
<pdfrwt beam="1">  1        1 0.33506717E-02 0.91837511E+02</pdfrwt>
<pdfrwt beam="2">  1       -1 0.14894352E-01 0.91837511E+02</pdfrwt>
<totfact> 0.80350000E+04</totfact>
</mgrwt>
</event>
<event>
 7    1  0.3345055E-009  0.9157999E+02  0.7818608E-02  0.1299070E+00
         -1   -1    0    0    0  501 -0.00000000000E+00  0.00000000000E+00  0.54076851845E+02  0.54076852079E+02  0.50400000000E-02 0.  1.
          1   -1    0    0  501    0  0.00000000000E+00 -0.00000000000E+00 -0.38773031623E+02  0.38773031951E+02  0.50400000000E-02 0. -1.
         23    2    1    2    0    0  0.00000000000E+00  0.88817841970E-15  0.15303820221E+02  0.92849884030E+02  0.91579987175E+02 0.  0.
    9000005    2    3    3    0    0  0.26906843004E+02 -0.58217429641E+01  0.44488791327E+02  0.52729646867E+02  0.65796818678E+01 0.  0.
         22    1    3    3    0    0 -0.26906843004E+02  0.58217429641E+01 -0.29184971105E+02  0.40120237163E+02  0.00000000000E+00 0. -1.
         22    1    4    4    0    0  0.13283550093E+02 -0.47319400993E+00  0.25487773782E+02  0.28745490568E+02  0.00000000000E+00 0. -1.
         22    1    4    4    0    0  0.13623292911E+02 -0.53485489542E+01  0.19001017544E+02  0.23984156299E+02  0.00000000000E+00 0. -1.
<mgrwt>
<rscale>  0 0.91579987E+02</rscale>
<asrwt>0</asrwt>
<pdfrwt beam="2">  1        1 0.59650819E-02 0.91579987E+02</pdfrwt>
<pdfrwt beam="1">  1       -1 0.83195157E-02 0.91579987E+02</pdfrwt>
<totfact> 0.89113661E+04</totfact>
</mgrwt>
</event>
<event>
 7    1  0.3345055E-009  0.9058134E+02  0.7818608E-02  0.1301450E+00
          1   -1    0    0  501    0  0.00000000000E+00  0.00000000000E+00  0.36330525721E+02  0.36330526071E+02  0.50400000000E-02 0. -1.
         -1   -1    0    0    0  501 -0.00000000000E+00 -0.00000000000E+00 -0.56460644574E+02  0.56460644799E+02  0.50400000000E-02 0.  1.
         23    2    1    2    0    0  0.88817841970E-15 -0.35527136788E-14 -0.20130118853E+02  0.92791170870E+02  0.90581343037E+02 0.  0.
    9000005    2    3    3    0    0 -0.78933502912E+01  0.31628022941E+02  0.21233514237E+02  0.40126315830E+02  0.98296633334E+01 0.  0.
         22    1    3    3    0    0  0.78933502912E+01 -0.31628022941E+02 -0.41363633091E+02  0.52664855040E+02  0.00000000000E+00 0.  1.
         22    1    4    4    0    0  0.16302975916E+01  0.17227678316E+01  0.27757047388E+00  0.23880629403E+01  0.00000000000E+00 0. -1.
         22    1    4    4    0    0 -0.95236478828E+01  0.29905255109E+02  0.20955943764E+02  0.37738252889E+02  0.00000000000E+00 0. -1.
<mgrwt>
<rscale>  0 0.90581343E+02</rscale>
<asrwt>0</asrwt>
<pdfrwt beam="1">  1        1 0.55893117E-02 0.90581343E+02</pdfrwt>
<pdfrwt beam="2">  1       -1 0.86862530E-02 0.90581343E+02</pdfrwt>
<totfact> 0.91014202E+04</totfact>
</mgrwt>
</event>
<event>
 7    1  0.3345055E-009  0.8915425E+02  0.7818608E-02  0.1304913E+00
          1   -1    0    0  501    0  0.00000000000E+00  0.00000000000E+00  0.18430538578E+02  0.18430539267E+02  0.50400000000E-02 0. -1.
         -1   -1    0    0    0  501 -0.00000000000E+00 -0.00000000000E+00 -0.10781671103E+03  0.10781671115E+03  0.50400000000E-02 0.  1.
         23    2    1    2    0    0 -0.71054273576E-14  0.00000000000E+00 -0.89386172453E+02  0.12624725042E+03  0.89154250666E+02 0.  0.
    9000005    2    3    3    0    0  0.33372273463E+02  0.47018357936E+01 -0.85997338256E+02  0.92375431848E+02  0.13646706580E+01 0.  0.
         22    1    3    3    0    0 -0.33372273463E+02 -0.47018357936E+01 -0.33888341966E+01  0.33871818568E+02  0.00000000000E+00 0. -1.
         22    1    4    4    0    0  0.91932676234E+01  0.10764995620E+01 -0.22084751401E+02  0.23946007295E+02  0.00000000000E+00 0.  1.
         22    1    4    4    0    0  0.24179005840E+02  0.36253362316E+01 -0.63912586855E+02  0.68429424553E+02  0.00000000000E+00 0.  1.
<mgrwt>
<rscale>  0 0.89154251E+02</rscale>
<asrwt>0</asrwt>
<pdfrwt beam="1">  1        1 0.28354676E-02 0.89154251E+02</pdfrwt>
<pdfrwt beam="2">  1       -1 0.16587186E-01 0.89154251E+02</pdfrwt>
<totfact> 0.84991318E+04</totfact>
</mgrwt>
</event>
<event>
 7    1  0.3345055E-009  0.9094904E+02  0.7818608E-02  0.1300570E+00
         -1   -1    0    0    0  501 -0.00000000000E+00  0.00000000000E+00  0.10120782397E+03  0.10120782409E+03  0.50400000000E-02 0.  1.
          1   -1    0    0  501    0  0.00000000000E+00 -0.00000000000E+00 -0.20432529758E+02  0.20432530380E+02  0.50400000000E-02 0. -1.
         23    2    1    2    0    0 -0.35527136788E-14  0.00000000000E+00  0.80775294209E+02  0.12164035447E+03  0.90949038926E+02 0.  0.
    9000005    2    3    3    0    0  0.28571408579E+02  0.28953946984E+02  0.17029900815E+02  0.46022025920E+02  0.13166355376E+02 0.  0.
         22    1    3    3    0    0 -0.28571408579E+02 -0.28953946984E+02  0.63745393393E+02  0.75618328552E+02  0.00000000000E+00 0. -1.
         22    1    4    4    0    0  0.16885171732E+01 -0.52728110672E-01 -0.15806993045E+01  0.23135429084E+01  0.00000000000E+00 0. -1.
         22    1    4    4    0    0  0.26882891405E+02  0.29006675094E+02  0.18610600120E+02  0.43708483011E+02  0.00000000000E+00 0. -1.
<mgrwt>
<rscale>  0 0.90949039E+02</rscale>
<asrwt>0</asrwt>
<pdfrwt beam="2">  1        1 0.31434662E-02 0.90949039E+02</pdfrwt>
<pdfrwt beam="1">  1       -1 0.15570434E-01 0.90949039E+02</pdfrwt>
<totfact> 0.81713578E+04</totfact>
</mgrwt>
</event>
<event>
 7    1  0.3345055E-009  0.9042925E+02  0.7818608E-02  0.1301816E+00
          1   -1    0    0  501    0  0.00000000000E+00  0.00000000000E+00  0.17231040090E+02  0.17231040827E+02  0.50400000000E-02 0. -1.
         -1   -1    0    0    0  501 -0.00000000000E+00 -0.00000000000E+00 -0.11864416760E+03  0.11864416770E+03  0.50400000000E-02 0.  1.
         23    2    1    2    0    0  0.00000000000E+00 -0.88817841970E-15 -0.10141312751E+03  0.13587520853E+03  0.90429253355E+02 0.  0.
    9000005    2    3    3    0    0  0.44058650307E+02 -0.78287336325E+01 -0.53091556184E+02  0.70016055846E+02  0.90044989356E+01 0.  0.
         22    1    3    3    0    0 -0.44058650307E+02  0.78287336325E+01 -0.48321571322E+02  0.65859152683E+02  0.00000000000E+00 0.  1.
         22    1    4    4    0    0  0.21248520431E+02  0.53207784880E+00 -0.27051514648E+02  0.34403011091E+02  0.00000000000E+00 0. -1.
         22    1    4    4    0    0  0.22810129875E+02 -0.83608114813E+01 -0.26040041536E+02  0.35613044755E+02  0.00000000000E+00 0. -1.
<mgrwt>
<rscale>  0 0.90429253E+02</rscale>
<asrwt>0</asrwt>
<pdfrwt beam="1">  1        1 0.26509294E-02 0.90429253E+02</pdfrwt>
<pdfrwt beam="2">  1       -1 0.18252948E-01 0.90429253E+02</pdfrwt>
<totfact> 0.80404334E+04</totfact>
</mgrwt>
</event>
<event>
 7    1  0.3345055E-009  0.9459675E+02  0.7818608E-02  0.1292087E+00
         -1   -1    0    0    0  501 -0.00000000000E+00  0.00000000000E+00  0.11449109193E+03  0.11449109204E+03  0.50400000000E-02 0.  1.
          1   -1    0    0  501    0  0.00000000000E+00 -0.00000000000E+00 -0.19539829077E+02  0.19539829727E+02  0.50400000000E-02 0. -1.
         23    2    1    2    0    0  0.00000000000E+00  0.00000000000E+00  0.94951262857E+02  0.13403092177E+03  0.94596752972E+02 0.  0.
    9000005    2    3    3    0    0 -0.29654121007E+02 -0.22539308487E+02  0.72651551141E+01  0.38761615010E+02  0.78925914399E+01 0.  0.
         22    1    3    3    0    0  0.29654121007E+02  0.22539308487E+02  0.87686107743E+02  0.95269306761E+02  0.00000000000E+00 0.  1.
         22    1    4    4    0    0 -0.12187266792E+02 -0.59827012399E+01  0.54393868514E+01  0.14625632134E+02  0.00000000000E+00 0.  1.
         22    1    4    4    0    0 -0.17466854215E+02 -0.16556607247E+02  0.18257682627E+01  0.24135982877E+02  0.00000000000E+00 0.  1.
<mgrwt>
<rscale>  0 0.94596753E+02</rscale>
<asrwt>0</asrwt>
<pdfrwt beam="2">  1        1 0.30061276E-02 0.94596753E+02</pdfrwt>
<pdfrwt beam="1">  1       -1 0.17614014E-01 0.94596753E+02</pdfrwt>
<totfact> 0.72076136E+04</totfact>
</mgrwt>
</event>
<event>
 7    1  0.3345055E-009  0.9365501E+02  0.7818608E-02  0.1294234E+00
          1   -1    0    0  501    0  0.00000000000E+00  0.00000000000E+00  0.35851171657E+01  0.35851207084E+01  0.50400000000E-02 0. -1.
         -1   -1    0    0    0  501 -0.00000000000E+00 -0.00000000000E+00 -0.61164363558E+03  0.61164363560E+03  0.50400000000E-02 0.  1.
         23    2    1    2    0    0  0.00000000000E+00  0.00000000000E+00 -0.60805851842E+03  0.61522875631E+03  0.93655009335E+02 0.  0.
    9000005    2    3    3    0    0 -0.58537695834E+01  0.35862710900E+02 -0.49277932681E+03  0.49435819468E+03  0.15432403102E+02 0.  0.
         22    1    3    3    0    0  0.58537695834E+01 -0.35862710900E+02 -0.11527919161E+03  0.12087056163E+03  0.00000000000E+00 0. -1.
         22    1    4    4    0    0 -0.79011740420E+01  0.78565301985E+01 -0.11600998808E+03  0.11654385849E+03  0.00000000000E+00 0.  1.
         22    1    4    4    0    0  0.20474044587E+01  0.28006180701E+02 -0.37676933873E+03  0.37781433619E+03  0.00000000000E+00 0.  1.
<mgrwt>
<rscale>  0 0.93655009E+02</rscale>
<asrwt>0</asrwt>
<pdfrwt beam="1">  1        1 0.55155725E-03 0.93655009E+02</pdfrwt>
<pdfrwt beam="2">  1       -1 0.94098938E-01 0.93655009E+02</pdfrwt>
<totfact> 0.38236632E+04</totfact>
</mgrwt>
</event>
<event>
 7    1  0.3345055E-009  0.9158463E+02  0.7818608E-02  0.1299059E+00
         -1   -1    0    0    0  501 -0.00000000000E+00  0.00000000000E+00  0.73678791255E+02  0.73678791427E+02  0.50400000000E-02 0.  1.
          1   -1    0    0  501    0  0.00000000000E+00 -0.00000000000E+00 -0.28460509771E+02  0.28460510217E+02  0.50400000000E-02 0. -1.
         23    2    1    2    0    0  0.00000000000E+00 -0.44408920985E-15  0.45218281484E+02  0.10213930164E+03  0.91584627313E+02 0.  0.
    9000005    2    3    3    0    0  0.26921575362E+02 -0.29647431390E+01 -0.16401093717E+02  0.34830250827E+02  0.14511704782E+02 0.  0.
         22    1    3    3    0    0 -0.26921575362E+02  0.29647431390E+01  0.61619375200E+02  0.67309050818E+02  0.00000000000E+00 0.  1.
         22    1    4    4    0    0  0.69709437602E+01  0.16827446503E+01  0.18372908802E+01  0.74027916521E+01  0.00000000000E+00 0.  1.
         22    1    4    4    0    0  0.19950631602E+02 -0.46474877893E+01 -0.18238384597E+02  0.27427459175E+02  0.00000000000E+00 0.  1.
<mgrwt>
<rscale>  0 0.91584627E+02</rscale>
<asrwt>0</asrwt>
<pdfrwt beam="2">  1        1 0.43785400E-02 0.91584627E+02</pdfrwt>
<pdfrwt beam="1">  1       -1 0.11335199E-01 0.91584627E+02</pdfrwt>
<totfact> 0.84846296E+04</totfact>
</mgrwt>
</event>
<event>
 7    1  0.3345055E-009  0.9113050E+02  0.7818608E-02  0.1300137E+00
         -1   -1    0    0    0  501 -0.00000000000E+00  0.00000000000E+00  0.78589561857E+02  0.78589562018E+02  0.50400000000E-02 0.  1.
          1   -1    0    0  501    0  0.00000000000E+00 -0.00000000000E+00 -0.26418166902E+02  0.26418167382E+02  0.50400000000E-02 0. -1.
         23    2    1    2    0    0  0.00000000000E+00  0.00000000000E+00  0.52171394955E+02  0.10500772940E+03  0.91130504126E+02 0.  0.
    9000005    2    3    3    0    0  0.31553216434E+02 -0.27750201610E+02  0.45475999540E+02  0.62457670923E+02  0.81984734086E+01 0.  0.
         22    1    3    3    0    0 -0.31553216434E+02  0.27750201610E+02  0.66953954147E+01  0.42550058478E+02  0.00000000000E+00 0. -1.
         22    1    4    4    0    0  0.48215284605E+01 -0.86580982998E+01  0.11877524694E+02  0.15468852437E+02  0.00000000000E+00 0.  1.
         22    1    4    4    0    0  0.26731687973E+02 -0.19092103310E+02  0.33598474847E+02  0.46988818486E+02  0.00000000000E+00 0.  1.
<mgrwt>
<rscale>  0 0.91130504E+02</rscale>
<asrwt>0</asrwt>
<pdfrwt beam="2">  1        1 0.40643334E-02 0.91130504E+02</pdfrwt>
<pdfrwt beam="1">  1       -1 0.12090702E-01 0.91130504E+02</pdfrwt>
<totfact> 0.85015401E+04</totfact>
</mgrwt>
</event>
<event>
 7    1  0.3345055E-009  0.8728254E+02  0.7818608E-02  0.1309569E+00
         -1   -1    0    0    0  501 -0.00000000000E+00  0.00000000000E+00  0.36553194541E+01  0.36553229287E+01  0.50400000000E-02 0.  1.
          1   -1    0    0  501    0  0.00000000000E+00 -0.00000000000E+00 -0.52103780999E+03  0.52103781001E+03  0.50400000000E-02 0. -1.
         23    2    1    2    0    0  0.00000000000E+00 -0.35527136788E-14 -0.51738249053E+03  0.52469313294E+03  0.87282542609E+02 0.  0.
    9000005    2    3    3    0    0 -0.66954632043E+01  0.31887489829E+02 -0.42843449459E+03  0.42996516865E+03  0.15883603748E+02 0.  0.
         22    1    3    3    0    0  0.66954632043E+01 -0.31887489829E+02 -0.88947995945E+02  0.94727964286E+02  0.00000000000E+00 0.  1.
         22    1    4    4    0    0 -0.51247295938E+01  0.15428514527E+02 -0.30436288964E+03  0.30479676918E+03  0.00000000000E+00 0.  1.
         22    1    4    4    0    0 -0.15707336105E+01  0.16458975301E+02 -0.12407160495E+03  0.12516839947E+03  0.00000000000E+00 0.  1.
<mgrwt>
<rscale>  0 0.87282543E+02</rscale>
<asrwt>0</asrwt>
<pdfrwt beam="2">  1        1 0.80159604E-01 0.87282543E+02</pdfrwt>
<pdfrwt beam="1">  1       -1 0.56235752E-03 0.87282543E+02</pdfrwt>
<totfact> 0.15701891E+05</totfact>
</mgrwt>
</event>
<event>
 7    1  0.3345055E-009  0.9481147E+02  0.7818608E-02  0.1291601E+00
          1   -1    0    0  501    0  0.00000000000E+00  0.00000000000E+00  0.14899508875E+03  0.14899508883E+03  0.50400000000E-02 0. -1.
         -1   -1    0    0    0  501 -0.00000000000E+00 -0.00000000000E+00 -0.15083071389E+02  0.15083072231E+02  0.50400000000E-02 0.  1.
         23    2    1    2    0    0  0.00000000000E+00  0.00000000000E+00  0.13391201736E+03  0.16407816106E+03  0.94811468426E+02 0.  0.
    9000005    2    3    3    0    0  0.63389305557E+01 -0.22853566273E+02  0.13764646861E+03  0.14006954473E+03  0.10509971835E+02 0.  0.
         22    1    3    3    0    0 -0.63389305557E+01  0.22853566273E+02 -0.37344512542E+01  0.24008616332E+02  0.00000000000E+00 0.  1.
         22    1    4    4    0    0  0.49551816807E+01 -0.21073933655E+02  0.98165725719E+02  0.10052449558E+03  0.00000000000E+00 0. -1.
         22    1    4    4    0    0  0.13837488750E+01 -0.17796326178E+01  0.39480742894E+02  0.39545049155E+02  0.00000000000E+00 0. -1.
<mgrwt>
<rscale>  0 0.94811468E+02</rscale>
<asrwt>0</asrwt>
<pdfrwt beam="1">  1        1 0.22922321E-01 0.94811468E+02</pdfrwt>
<pdfrwt beam="2">  1       -1 0.23204726E-02 0.94811468E+02</pdfrwt>
<totfact> 0.10075113E+05</totfact>
</mgrwt>
</event>
<event>
 7    1  0.3345055E-009  0.9018777E+02  0.7818608E-02  0.1302398E+00
          1   -1    0    0  501    0  0.00000000000E+00  0.00000000000E+00  0.85531506223E+02  0.85531506372E+02  0.50400000000E-02 0. -1.
         -1   -1    0    0    0  501 -0.00000000000E+00 -0.00000000000E+00 -0.23774377203E+02  0.23774377737E+02  0.50400000000E-02 0.  1.
         23    2    1    2    0    0  0.00000000000E+00  0.00000000000E+00  0.61757129020E+02  0.10930588411E+03  0.90187766997E+02 0.  0.
    9000005    2    3    3    0    0 -0.22397299423E+02 -0.37102155463E+02  0.38745077176E+02  0.60236917424E+02  0.15782783467E+02 0.  0.
         22    1    3    3    0    0  0.22397299423E+02  0.37102155463E+02  0.23012051844E+02  0.49068966685E+02  0.00000000000E+00 0.  1.
         22    1    4    4    0    0 -0.12904385156E+02 -0.10290943940E+02  0.21011990136E+02  0.26719476285E+02  0.00000000000E+00 0.  1.
         22    1    4    4    0    0 -0.94929142668E+01 -0.26811211522E+02  0.17733087040E+02  0.33517441140E+02  0.00000000000E+00 0.  1.
<mgrwt>
<rscale>  0 0.90187767E+02</rscale>
<asrwt>0</asrwt>
<pdfrwt beam="1">  1        1 0.13158693E-01 0.90187767E+02</pdfrwt>
<pdfrwt beam="2">  1       -1 0.36575965E-02 0.90187767E+02</pdfrwt>
<totfact> 0.10490403E+05</totfact>
</mgrwt>
</event>
<event>
 7    1  0.3345055E-009  0.9173713E+02  0.7818608E-02  0.1298699E+00
         -1   -1    0    0    0  501 -0.00000000000E+00  0.00000000000E+00  0.39982864452E+02  0.39982864770E+02  0.50400000000E-02 0.  1.
          1   -1    0    0  501    0  0.00000000000E+00 -0.00000000000E+00 -0.52620675323E+02  0.52620675564E+02  0.50400000000E-02 0. -1.
         23    2    1    2    0    0  0.00000000000E+00  0.00000000000E+00 -0.12637810871E+02  0.92603540334E+02  0.91737132170E+02 0.  0.
    9000005    2    3    3    0    0 -0.83130835764E+01 -0.25348882636E+02 -0.43607511666E+02  0.51728173953E+02  0.79066868708E+01 0.  0.
         22    1    3    3    0    0  0.83130835764E+01  0.25348882636E+02  0.30969700795E+02  0.40875366381E+02  0.00000000000E+00 0.  1.
         22    1    4    4    0    0 -0.84392829221E+01 -0.13896327193E+02 -0.23262278068E+02  0.28380679812E+02  0.00000000000E+00 0. -1.
         22    1    4    4    0    0  0.12619934572E+00 -0.11452555444E+02 -0.20345233598E+02  0.23347494140E+02  0.00000000000E+00 0. -1.
<mgrwt>
<rscale>  0 0.91737132E+02</rscale>
<asrwt>0</asrwt>
<pdfrwt beam="2">  1        1 0.80954886E-02 0.91737132E+02</pdfrwt>
<pdfrwt beam="1">  1       -1 0.61512099E-02 0.91737132E+02</pdfrwt>
<totfact> 0.92882745E+04</totfact>
</mgrwt>
</event>
<event>
 7    1  0.3345055E-009  0.9179821E+02  0.7818608E-02  0.1298555E+00
          1   -1    0    0  501    0  0.00000000000E+00  0.00000000000E+00  0.70518699704E+01  0.70518717714E+01  0.50400000000E-02 0. -1.
         -1   -1    0    0    0  501 -0.00000000000E+00 -0.00000000000E+00 -0.29874733458E+03  0.29874733462E+03  0.50400000000E-02 0.  1.
         23    2    1    2    0    0  0.35527136788E-14  0.00000000000E+00 -0.29169546461E+03  0.30579920639E+03  0.91798205632E+02 0.  0.
    9000005    2    3    3    0    0  0.24144687028E+02  0.37587933378E+02 -0.11611886978E+03  0.12462812896E+03  0.72636052505E+01 0.  0.
         22    1    3    3    0    0 -0.24144687028E+02 -0.37587933378E+02 -0.17557659483E+03  0.18117107744E+03  0.00000000000E+00 0.  1.
         22    1    4    4    0    0  0.22816320293E+02  0.32001715287E+02 -0.10498962559E+03  0.11210493180E+03  0.00000000000E+00 0. -1.
         22    1    4    4    0    0  0.13283667350E+01  0.55862180909E+01 -0.11129244193E+02  0.12523197158E+02  0.00000000000E+00 0. -1.
<mgrwt>
<rscale>  0 0.91798206E+02</rscale>
<asrwt>0</asrwt>
<pdfrwt beam="1">  1        1 0.10849034E-02 0.91798206E+02</pdfrwt>
<pdfrwt beam="2">  1       -1 0.45961119E-01 0.91798206E+02</pdfrwt>
<totfact> 0.59616740E+04</totfact>
</mgrwt>
</event>
<event>
 7    1  0.3345055E-009  0.8706564E+02  0.7818608E-02  0.1310117E+00
         -1   -1    0    0    0  501 -0.00000000000E+00  0.00000000000E+00  0.29148923331E+01  0.29148966903E+01  0.50400000000E-02 0.  1.
          1   -1    0    0  501    0  0.00000000000E+00 -0.00000000000E+00 -0.65014573969E+03  0.65014573971E+03  0.50400000000E-02 0. -1.
         23    2    1    2    0    0  0.00000000000E+00  0.35527136788E-14 -0.64723084736E+03  0.65306063640E+03  0.87065636417E+02 0.  0.
    9000005    2    3    3    0    0  0.27504350722E+02  0.30114188596E+02 -0.43545513687E+03  0.43739351972E+03  0.53442685163E+01 0.  0.
         22    1    3    3    0    0 -0.27504350722E+02 -0.30114188596E+02 -0.21177571049E+03  0.21566711668E+03  0.00000000000E+00 0.  1.
         22    1    4    4    0    0  0.16175683050E+02  0.17773914576E+02 -0.22797816610E+03  0.22924137711E+03  0.00000000000E+00 0.  1.
         22    1    4    4    0    0  0.11328667672E+02  0.12340274020E+02 -0.20747697077E+03  0.20815214261E+03  0.00000000000E+00 0.  1.
<mgrwt>
<rscale>  0 0.87065636E+02</rscale>
<asrwt>0</asrwt>
<pdfrwt beam="2">  1        1 0.10002231E+00 0.87065636E+02</pdfrwt>
<pdfrwt beam="1">  1       -1 0.44844583E-03 0.87065636E+02</pdfrwt>
<totfact> 0.16048271E+05</totfact>
</mgrwt>
</event>
<event>
 7    1  0.3345055E-009  0.9523969E+02  0.7818608E-02  0.1290637E+00
         -1   -1    0    0    0  501 -0.00000000000E+00  0.00000000000E+00  0.21157908966E+03  0.21157908972E+03  0.50400000000E-02 0.  1.
          1   -1    0    0  501    0  0.00000000000E+00 -0.00000000000E+00 -0.10717739009E+02  0.10717740194E+02  0.50400000000E-02 0. -1.
         23    2    1    2    0    0  0.00000000000E+00  0.00000000000E+00  0.20086135065E+03  0.22229682992E+03  0.95239689230E+02 0.  0.
    9000005    2    3    3    0    0 -0.21707739713E+02  0.35544729329E+01  0.19868575736E+03  0.20019267991E+03  0.10826757270E+02 0.  0.
         22    1    3    3    0    0  0.21707739713E+02 -0.35544729329E+01  0.21755932989E+01  0.22104150006E+02  0.00000000000E+00 0. -1.
         22    1    4    4    0    0 -0.82935610306E+01  0.37451324584E+01  0.12227653256E+03  0.12261467932E+03  0.00000000000E+00 0.  1.
         22    1    4    4    0    0 -0.13414178682E+02 -0.19065952556E+00  0.76409224799E+02  0.77578000588E+02  0.00000000000E+00 0.  1.
<mgrwt>
<rscale>  0 0.95239689E+02</rscale>
<asrwt>0</asrwt>
<pdfrwt beam="2">  1        1 0.16488830E-02 0.95239689E+02</pdfrwt>
<pdfrwt beam="1">  1       -1 0.32550630E-01 0.95239689E+02</pdfrwt>
<totfact> 0.60941773E+04</totfact>
</mgrwt>
</event>
<event>
 7    1  0.3345055E-009  0.9179357E+02  0.7818608E-02  0.1298566E+00
         -1   -1    0    0    0  501 -0.00000000000E+00  0.00000000000E+00  0.55660507144E+01  0.55660529962E+01  0.50400000000E-02 0.  1.
          1   -1    0    0  501    0  0.00000000000E+00 -0.00000000000E+00 -0.37845764627E+03  0.37845764630E+03  0.50400000000E-02 0. -1.
         23    2    1    2    0    0  0.00000000000E+00  0.00000000000E+00 -0.37289159555E+03  0.38402369930E+03  0.91793570515E+02 0.  0.
    9000005    2    3    3    0    0 -0.31632518196E+01  0.43127894311E+02 -0.24448620943E+03  0.24853213271E+03  0.11166600201E+02 0.  0.
         22    1    3    3    0    0  0.31632518196E+01 -0.43127894311E+02 -0.12840538612E+03  0.13549156658E+03  0.00000000000E+00 0.  1.
         22    1    4    4    0    0 -0.30893703297E+01  0.43645531415E+02 -0.23546679626E+03  0.23949757569E+03  0.00000000000E+00 0.  1.
         22    1    4    4    0    0 -0.73881489817E-01 -0.51763710358E+00 -0.90194131705E+01  0.90345570221E+01  0.00000000000E+00 0.  1.
<mgrwt>
<rscale>  0 0.91793571E+02</rscale>
<asrwt>0</asrwt>
<pdfrwt beam="2">  1        1 0.58224233E-01 0.91793571E+02</pdfrwt>
<pdfrwt beam="1">  1       -1 0.85631597E-03 0.91793571E+02</pdfrwt>
<totfact> 0.13127063E+05</totfact>
</mgrwt>
</event>
<event>
 7    1  0.3345055E-009  0.8578197E+02  0.7818608E-02  0.1313400E+00
          1   -1    0    0  501    0  0.00000000000E+00  0.00000000000E+00  0.95220522036E+01  0.95220535374E+01  0.50400000000E-02 0. -1.
         -1   -1    0    0    0  501 -0.00000000000E+00 -0.00000000000E+00 -0.19319745602E+03  0.19319745608E+03  0.50400000000E-02 0.  1.
         23    2    1    2    0    0  0.00000000000E+00  0.00000000000E+00 -0.18367540382E+03  0.20271950962E+03  0.85781965556E+02 0.  0.
    9000005    2    3    3    0    0  0.18643565049E+02  0.10702079774E+02 -0.17941962847E+03  0.18080538968E+03  0.60884174289E+01 0.  0.
         22    1    3    3    0    0 -0.18643565049E+02 -0.10702079774E+02 -0.42557753465E+01  0.21914119946E+02  0.00000000000E+00 0. -1.
         22    1    4    4    0    0  0.17415385324E+01  0.19991275495E+01 -0.41097151480E+02  0.41182585242E+02  0.00000000000E+00 0.  1.
         22    1    4    4    0    0  0.16902026516E+02  0.87029522244E+01 -0.13832247699E+03  0.13962280443E+03  0.00000000000E+00 0.  1.
<mgrwt>
<rscale>  0 0.85781966E+02</rscale>
<asrwt>0</asrwt>
<pdfrwt beam="1">  1        1 0.14649314E-02 0.85781966E+02</pdfrwt>
<pdfrwt beam="2">  1       -1 0.29722683E-01 0.85781966E+02</pdfrwt>
<totfact> 0.82143987E+04</totfact>
</mgrwt>
</event>
<event>
 7    1  0.3345055E-009  0.1234042E+03  0.7818608E-02  0.1237585E+00
          1   -1    0    0  501    0  0.00000000000E+00  0.00000000000E+00  0.82899612784E+03  0.82899612786E+03  0.50400000000E-02 0. -1.
         -1   -1    0    0    0  501 -0.00000000000E+00 -0.00000000000E+00 -0.45924773712E+01  0.45924801367E+01  0.50400000000E-02 0.  1.
         23    2    1    2    0    0 -0.17763568394E-14  0.71054273576E-14  0.82440365047E+03  0.83358860800E+03  0.12340416714E+03 0.  0.
    9000005    2    3    3    0    0  0.13776830244E+02 -0.58895066399E+02  0.47861549077E+03  0.48255031765E+03  0.11117156214E+02 0.  0.
         22    1    3    3    0    0 -0.13776830244E+02  0.58895066399E+02  0.34578815970E+03  0.35103829034E+03  0.00000000000E+00 0. -1.
         22    1    4    4    0    0  0.13644976269E+02 -0.35984329803E+02  0.28633595731E+03  0.28891060524E+03  0.00000000000E+00 0.  1.
         22    1    4    4    0    0  0.13185397535E+00 -0.22910736596E+02  0.19227953346E+03  0.19363971242E+03  0.00000000000E+00 0.  1.
<mgrwt>
<rscale>  0 0.12340417E+03</rscale>
<asrwt>0</asrwt>
<pdfrwt beam="1">  1        1 0.12753783E+00 0.12340417E+03</pdfrwt>
<pdfrwt beam="2">  1       -1 0.70653537E-03 0.12340417E+03</pdfrwt>
<totfact> 0.62531674E+04</totfact>
</mgrwt>
</event>
<event>
 7    1  0.3345055E-009  0.8522694E+02  0.7818608E-02  0.1314840E+00
          1   -1    0    0  501    0  0.00000000000E+00  0.00000000000E+00  0.53712064244E+03  0.53712064246E+03  0.50400000000E-02 0. -1.
         -1   -1    0    0    0  501 -0.00000000000E+00 -0.00000000000E+00 -0.33808177363E+01  0.33808214930E+01  0.50400000000E-02 0.  1.
         23    2    1    2    0    0 -0.17763568394E-14  0.00000000000E+00  0.53373982470E+03  0.54050146396E+03  0.85226944475E+02 0.  0.
    9000005    2    3    3    0    0  0.13849044576E+02  0.27683342625E+02  0.45130528317E+03  0.45244683811E+03  0.85743341871E+01 0.  0.
         22    1    3    3    0    0 -0.13849044576E+02 -0.27683342625E+02  0.82434541535E+02  0.88054625845E+02  0.00000000000E+00 0.  1.
         22    1    4    4    0    0  0.10671802640E+02  0.26219565018E+02  0.37822763310E+03  0.37928550644E+03  0.00000000000E+00 0.  1.
         22    1    4    4    0    0  0.31772419363E+01  0.14637776076E+01  0.73077650074E+02  0.73161331669E+02  0.00000000000E+00 0.  1.
<mgrwt>
<rscale>  0 0.85226944E+02</rscale>
<asrwt>0</asrwt>
<pdfrwt beam="1">  1        1 0.82633875E-01 0.85226944E+02</pdfrwt>
<pdfrwt beam="2">  1       -1 0.52012654E-03 0.85226944E+02</pdfrwt>
<totfact> 0.16770693E+05</totfact>
</mgrwt>
</event>
<event>
 7    1  0.3345055E-009  0.9071059E+02  0.7818608E-02  0.1301140E+00
         -1   -1    0    0    0  501 -0.00000000000E+00  0.00000000000E+00  0.55596382534E+02  0.55596382763E+02  0.50400000000E-02 0.  1.
          1   -1    0    0  501    0  0.00000000000E+00 -0.00000000000E+00 -0.37000659164E+02  0.37000659507E+02  0.50400000000E-02 0. -1.
         23    2    1    2    0    0  0.00000000000E+00  0.35527136788E-14  0.18595723370E+02  0.92597042270E+02  0.90710590944E+02 0.  0.
    9000005    2    3    3    0    0  0.34831783125E+02 -0.25293232122E+02  0.32549680142E+00  0.45833788687E+02  0.15736248932E+02 0.  0.
         22    1    3    3    0    0 -0.34831783125E+02  0.25293232122E+02  0.18270226569E+02  0.46763253583E+02  0.00000000000E+00 0.  1.
         22    1    4    4    0    0  0.21546645303E+02 -0.17500212559E+02  0.76294493799E+01  0.28787564351E+02  0.00000000000E+00 0. -1.
         22    1    4    4    0    0  0.13285137821E+02 -0.77930195625E+01 -0.73039525785E+01  0.17046224336E+02  0.00000000000E+00 0. -1.
<mgrwt>
<rscale>  0 0.90710591E+02</rscale>
<asrwt>0</asrwt>
<pdfrwt beam="2">  1        1 0.56924092E-02 0.90710591E+02</pdfrwt>
<pdfrwt beam="1">  1       -1 0.85532896E-02 0.90710591E+02</pdfrwt>
<totfact> 0.90901377E+04</totfact>
</mgrwt>
</event>
<event>
 7    1  0.3345055E-009  0.9103380E+02  0.7818608E-02  0.1300367E+00
         -1   -1    0    0    0  501 -0.00000000000E+00  0.00000000000E+00  0.14451220819E+03  0.14451220828E+03  0.50400000000E-02 0.  1.
          1   -1    0    0  501    0  0.00000000000E+00 -0.00000000000E+00 -0.14336422229E+02  0.14336423115E+02  0.50400000000E-02 0. -1.
         23    2    1    2    0    0 -0.35527136788E-14  0.00000000000E+00  0.13017578596E+03  0.15884863139E+03  0.91033798367E+02 0.  0.
    9000005    2    3    3    0    0  0.19405995087E+02 -0.39174770296E+02  0.48656123946E+02  0.66346141869E+02  0.11096705388E+02 0.  0.
         22    1    3    3    0    0 -0.19405995087E+02  0.39174770296E+02  0.81519662017E+02  0.92502489526E+02  0.00000000000E+00 0.  1.
         22    1    4    4    0    0 -0.33557544230E-01 -0.12483038612E+01  0.57010587910E+01  0.58362196649E+01  0.00000000000E+00 0. -1.
         22    1    4    4    0    0  0.19439552631E+02 -0.37926466435E+02  0.42955065155E+02  0.60509922204E+02  0.00000000000E+00 0. -1.
<mgrwt>
<rscale>  0 0.91033798E+02</rscale>
<asrwt>0</asrwt>
<pdfrwt beam="2">  1        1 0.22056036E-02 0.91033798E+02</pdfrwt>
<pdfrwt beam="1">  1       -1 0.22232647E-01 0.91033798E+02</pdfrwt>
<totfact> 0.75744426E+04</totfact>
</mgrwt>
</event>
<event>
 7    1  0.3345055E-009  0.9093247E+02  0.7818608E-02  0.1300609E+00
         -1   -1    0    0    0  501 -0.00000000000E+00  0.00000000000E+00  0.20735233170E+03  0.20735233176E+03  0.50400000000E-02 0.  1.
          1   -1    0    0  501    0  0.00000000000E+00 -0.00000000000E+00 -0.99693999333E+01  0.99694012073E+01  0.50400000000E-02 0. -1.
         23    2    1    2    0    0  0.00000000000E+00  0.00000000000E+00  0.19738293177E+03  0.21732173297E+03  0.90932468721E+02 0.  0.
    9000005    2    3    3    0    0 -0.36523988766E+02  0.22007533601E+02  0.13215787814E+03  0.13939458166E+03  0.12116573396E+02 0.  0.
         22    1    3    3    0    0  0.36523988766E+02 -0.22007533601E+02  0.65225053627E+02  0.77927151310E+02  0.00000000000E+00 0. -1.
         22    1    4    4    0    0 -0.32424202881E+02  0.22253917440E+02  0.10904704302E+03  0.11592162596E+03  0.00000000000E+00 0.  1.
         22    1    4    4    0    0 -0.40997858855E+01 -0.24638383881E+00  0.23110835116E+02  0.23472955695E+02  0.00000000000E+00 0.  1.
<mgrwt>
<rscale>  0 0.90932469E+02</rscale>
<asrwt>0</asrwt>
<pdfrwt beam="2">  1        1 0.15337541E-02 0.90932469E+02</pdfrwt>
<pdfrwt beam="1">  1       -1 0.31900356E-01 0.90932469E+02</pdfrwt>
<totfact> 0.69184171E+04</totfact>
</mgrwt>
</event>
<event>
 7    1  0.3345055E-009  0.9069345E+02  0.7818608E-02  0.1301181E+00
         -1   -1    0    0    0  501 -0.00000000000E+00  0.00000000000E+00  0.16397367621E+02  0.16397368396E+02  0.50400000000E-02 0.  1.
          1   -1    0    0  501    0  0.00000000000E+00 -0.00000000000E+00 -0.12540582409E+03  0.12540582419E+03  0.50400000000E-02 0. -1.
         23    2    1    2    0    0  0.00000000000E+00  0.00000000000E+00 -0.10900845647E+03  0.14180319259E+03  0.90693449854E+02 0.  0.
    9000005    2    3    3    0    0  0.50440637797E+01 -0.44239594141E+02 -0.53754195838E+02  0.70841107028E+02  0.12098124051E+02 0.  0.
         22    1    3    3    0    0 -0.50440637797E+01  0.44239594141E+02 -0.55254260632E+02  0.70962085561E+02  0.00000000000E+00 0.  1.
         22    1    4    4    0    0 -0.23974277477E+01 -0.25068286699E+02 -0.34133919481E+02  0.42418051782E+02  0.00000000000E+00 0.  1.
         22    1    4    4    0    0  0.74414915274E+01 -0.19171307442E+02 -0.19620276357E+02  0.28423055246E+02  0.00000000000E+00 0.  1.
<mgrwt>
<rscale>  0 0.90693450E+02</rscale>
<asrwt>0</asrwt>
<pdfrwt beam="2">  1        1 0.19293203E-01 0.90693450E+02</pdfrwt>
<pdfrwt beam="1">  1       -1 0.25226721E-02 0.90693450E+02</pdfrwt>
<totfact> 0.11014702E+05</totfact>
</mgrwt>
</event>
<event>
 7    1  0.3345055E-009  0.9298735E+02  0.7818608E-02  0.1295774E+00
         -1   -1    0    0    0  501 -0.00000000000E+00  0.00000000000E+00  0.23960911790E+02  0.23960912320E+02  0.50400000000E-02 0.  1.
          1   -1    0    0  501    0  0.00000000000E+00 -0.00000000000E+00 -0.90216182715E+02  0.90216182856E+02  0.50400000000E-02 0. -1.
         23    2    1    2    0    0  0.35527136788E-14  0.71054273576E-14 -0.66255270925E+02  0.11417709518E+03  0.92987354719E+02 0.  0.
    9000005    2    3    3    0    0 -0.31565611678E+02 -0.32691711583E+02 -0.40367799498E+02  0.61877028028E+02  0.11578925444E+02 0.  0.
         22    1    3    3    0    0  0.31565611678E+02  0.32691711583E+02 -0.25887471427E+02  0.52300067148E+02  0.00000000000E+00 0. -1.
         22    1    4    4    0    0 -0.89506710036E+01 -0.17366638393E+02 -0.15580883311E+02  0.24989569129E+02  0.00000000000E+00 0. -1.
         22    1    4    4    0    0 -0.22614940675E+02 -0.15325073190E+02 -0.24786916187E+02  0.36887458900E+02  0.00000000000E+00 0. -1.
<mgrwt>
<rscale>  0 0.92987355E+02</rscale>
<asrwt>0</asrwt>
<pdfrwt beam="2">  1        1 0.13879413E-01 0.92987355E+02</pdfrwt>
<pdfrwt beam="1">  1       -1 0.36862942E-02 0.92987355E+02</pdfrwt>
<totfact> 0.97312834E+04</totfact>
</mgrwt>
</event>
<event>
 7    1  0.3345055E-009  0.9004893E+02  0.7818608E-02  0.1302733E+00
          1   -1    0    0  501    0  0.00000000000E+00  0.00000000000E+00  0.64678053055E+03  0.64678053057E+03  0.50400000000E-02 0. -1.
         -1   -1    0    0    0  501 -0.00000000000E+00 -0.00000000000E+00 -0.31342951026E+01  0.31342991548E+01  0.50400000000E-02 0.  1.
         23    2    1    2    0    0 -0.35527136788E-14  0.00000000000E+00  0.64364623544E+03  0.64991482972E+03  0.90048928312E+02 0.  0.
    9000005    2    3    3    0    0  0.28992158635E+02 -0.21336301152E+02  0.51140936763E+03  0.51286603469E+03  0.14008755602E+02 0.  0.
         22    1    3    3    0    0 -0.28992158635E+02  0.21336301152E+02  0.13223686781E+03  0.13704879503E+03  0.00000000000E+00 0.  1.
         22    1    4    4    0    0  0.88103749976E+01 -0.53665039882E+01  0.24483373545E+03  0.24505097446E+03  0.00000000000E+00 0. -1.
         22    1    4    4    0    0  0.20181783638E+02 -0.15969797164E+02  0.26657563218E+03  0.26781506023E+03  0.00000000000E+00 0. -1.
<mgrwt>
<rscale>  0 0.90048928E+02</rscale>
<asrwt>0</asrwt>
<pdfrwt beam="1">  1        1 0.99504731E-01 0.90048928E+02</pdfrwt>
<pdfrwt beam="2">  1       -1 0.48219940E-03 0.90048928E+02</pdfrwt>
<totfact> 0.14681557E+05</totfact>
</mgrwt>
</event>
<event>
 7    1  0.3418555E-009  0.9123127E+02  0.7818608E-02  0.1299897E+00
          1   -1    0    0  501    0  0.00000000000E+00  0.00000000000E+00  0.20667827167E+04  0.20667827167E+04  0.50400000000E-02 0. -1.
         -1   -1    0    0    0  501 -0.00000000000E+00 -0.00000000000E+00 -0.10067692192E+01  0.10067818345E+01  0.50400000000E-02 0.  1.
         23    2    1    2    0    0  0.17763568394E-14  0.00000000000E+00  0.20657759475E+04  0.20677894986E+04  0.91231272517E+02 0.  0.
    9000005    2    3    3    0    0 -0.94424949338E+01  0.84401078595E+01  0.20250625866E+04  0.20251517936E+04  0.14174315143E+02 0.  0.
         22    1    3    3    0    0  0.94424949338E+01 -0.84401078595E+01  0.40713360894E+02  0.42637704987E+02  0.00000000000E+00 0.  1.
         22    1    4    4    0    0 -0.11215991793E+02  0.92662742755E+00  0.12598780690E+04  0.12599283336E+04  0.00000000000E+00 0.  1.
         22    1    4    4    0    0  0.17734968588E+01  0.75134804319E+01  0.76518451767E+03  0.76522346001E+03  0.00000000000E+00 0.  1.
<mgrwt>
<rscale>  0 0.91231273E+02</rscale>
<asrwt>0</asrwt>
<pdfrwt beam="1">  1        1 0.31796749E+00 0.91231273E+02</pdfrwt>
<pdfrwt beam="2">  1       -1 0.15488809E-03 0.91231273E+02</pdfrwt>
<totfact> 0.75644654E+04</totfact>
</mgrwt>
</event>
<event>
 7    1  0.3345055E-009  0.8667622E+02  0.7818608E-02  0.1311106E+00
          1   -1    0    0  501    0  0.00000000000E+00  0.00000000000E+00  0.45130364892E+01  0.45130393035E+01  0.50400000000E-02 0. -1.
         -1   -1    0    0    0  501 -0.00000000000E+00 -0.00000000000E+00 -0.41617019469E+03  0.41617019472E+03  0.50400000000E-02 0.  1.
         23    2    1    2    0    0  0.00000000000E+00  0.00000000000E+00 -0.41165715820E+03  0.42068323402E+03  0.86676222177E+02 0.  0.
    9000005    2    3    3    0    0 -0.18292829634E+02  0.36200730611E+02 -0.26550912857E+03  0.26901132800E+03  0.15062427559E+02 0.  0.
         22    1    3    3    0    0  0.18292829634E+02 -0.36200730611E+02 -0.14614802962E+03  0.15167190602E+03  0.00000000000E+00 0. -1.
         22    1    4    4    0    0 -0.69537762421E+01  0.20034158473E+01 -0.45326069509E+02  0.45900122616E+02  0.00000000000E+00 0.  1.
         22    1    4    4    0    0 -0.11339053392E+02  0.34197314764E+02 -0.22018305906E+03  0.22311120538E+03  0.00000000000E+00 0.  1.
<mgrwt>
<rscale>  0 0.86676222E+02</rscale>
<asrwt>0</asrwt>
<pdfrwt beam="1">  1        1 0.69431386E-03 0.86676222E+02</pdfrwt>
<pdfrwt beam="2">  1       -1 0.64026153E-01 0.86676222E+02</pdfrwt>
<totfact> 0.59604163E+04</totfact>
</mgrwt>
</event>
<event>
 7    1  0.3345055E-009  0.9132861E+02  0.7818608E-02  0.1299666E+00
          1   -1    0    0  501    0  0.00000000000E+00  0.00000000000E+00  0.12473061439E+02  0.12473062458E+02  0.50400000000E-02 0. -1.
         -1   -1    0    0    0  501 -0.00000000000E+00 -0.00000000000E+00 -0.16717856592E+03  0.16717856600E+03  0.50400000000E-02 0.  1.
         23    2    1    2    0    0  0.00000000000E+00 -0.17763568394E-14 -0.15470550448E+03  0.17965162845E+03  0.91328607180E+02 0.  0.
    9000005    2    3    3    0    0  0.42725087027E+02  0.13987684011E+02 -0.65730137404E+02  0.79963593506E+02  0.72551331951E+01 0.  0.
         22    1    3    3    0    0 -0.42725087027E+02 -0.13987684011E+02 -0.88975367076E+02  0.99688034948E+02  0.00000000000E+00 0. -1.
         22    1    4    4    0    0  0.33354622100E+02  0.92567226180E+01 -0.54735752341E+02  0.64762800382E+02  0.00000000000E+00 0. -1.
         22    1    4    4    0    0  0.93704649270E+01  0.47309613928E+01 -0.10994385064E+02  0.15200793123E+02  0.00000000000E+00 0. -1.
<mgrwt>
<rscale>  0 0.91328607E+02</rscale>
<asrwt>0</asrwt>
<pdfrwt beam="1">  1        1 0.19189327E-02 0.91328607E+02</pdfrwt>
<pdfrwt beam="2">  1       -1 0.25719778E-01 0.91328607E+02</pdfrwt>
<totfact> 0.72531652E+04</totfact>
</mgrwt>
</event>
<event>
 7    1  0.3345055E-009  0.9263341E+02  0.7818608E-02  0.1296597E+00
          1   -1    0    0  501    0  0.00000000000E+00  0.00000000000E+00  0.27033301391E+02  0.27033301860E+02  0.50400000000E-02 0.  1.
         -1   -1    0    0    0  501 -0.00000000000E+00 -0.00000000000E+00 -0.79355355403E+02  0.79355355563E+02  0.50400000000E-02 0. -1.
         23    2    1    2    0    0  0.00000000000E+00  0.00000000000E+00 -0.52322054012E+02  0.10638865742E+03  0.92633412397E+02 0.  0.
    9000005    2    3    3    0    0 -0.23315783339E+02 -0.34568827440E+01 -0.71307583774E+02  0.76122733824E+02  0.12422693353E+02 0.  0.
         22    1    3    3    0    0  0.23315783339E+02  0.34568827440E+01  0.18985529761E+02  0.30265923600E+02  0.00000000000E+00 0.  1.
         22    1    4    4    0    0 -0.84414497994E+01 -0.26094974131E+01 -0.11584544826E+02  0.14569462251E+02  0.00000000000E+00 0.  1.
         22    1    4    4    0    0 -0.14874333540E+02 -0.84738533090E+00 -0.59723038947E+02  0.61553271572E+02  0.00000000000E+00 0.  1.
<mgrwt>
<rscale>  0 0.92633412E+02</rscale>
<asrwt>0</asrwt>
<pdfrwt beam="1">  1        1 0.41589695E-02 0.92633412E+02</pdfrwt>
<pdfrwt beam="2">  1       -1 0.12208516E-01 0.92633412E+02</pdfrwt>
<totfact> 0.81393030E+04</totfact>
</mgrwt>
</event>
<event>
 7    1  0.3345055E-009  0.8321490E+02  0.7818608E-02  0.1320168E+00
          1   -1    0    0  501    0  0.00000000000E+00  0.00000000000E+00  0.14192153624E+04  0.14192153624E+04  0.50400000000E-02 0. -1.
         -1   -1    0    0    0  501 -0.00000000000E+00 -0.00000000000E+00 -0.12198094581E+01  0.12198198702E+01  0.50400000000E-02 0.  1.
         23    2    1    2    0    0  0.00000000000E+00  0.00000000000E+00  0.14179955529E+04  0.14204351822E+04  0.83214895860E+02 0.  0.
    9000005    2    3    3    0    0 -0.20800793165E+02 -0.56262976858E+01  0.13164029790E+04  0.13165825016E+04  0.28899734353E+01 0.  0.
         22    1    3    3    0    0  0.20800793165E+02  0.56262976858E+01  0.10159257386E+03  0.10385268068E+03  0.00000000000E+00 0.  1.
         22    1    4    4    0    0 -0.10741555326E+01 -0.97181678578E+00  0.10468400825E+03  0.10469402954E+03  0.00000000000E+00 0.  1.
         22    1    4    4    0    0 -0.19726637632E+02 -0.46544809001E+01  0.12117189708E+04  0.12118884720E+04  0.00000000000E+00 0.  1.
<mgrwt>
<rscale>  0 0.83214896E+02</rscale>
<asrwt>0</asrwt>
<pdfrwt beam="1">  1        1 0.21834020E+00 0.83214896E+02</pdfrwt>
<pdfrwt beam="2">  1       -1 0.18766433E-03 0.83214896E+02</pdfrwt>
<totfact> 0.14672104E+05</totfact>
</mgrwt>
</event>
<event>
 7    1  0.3345055E-009  0.8983397E+02  0.7818608E-02  0.1303254E+00
         -1   -1    0    0    0  501 -0.00000000000E+00  0.00000000000E+00  0.24794127856E+02  0.24794128368E+02  0.50400000000E-02 0.  1.
          1   -1    0    0  501    0  0.00000000000E+00 -0.00000000000E+00 -0.81371502309E+02  0.81371502465E+02  0.50400000000E-02 0. -1.
         23    2    1    2    0    0  0.00000000000E+00 -0.88817841970E-15 -0.56577374453E+02  0.10616563083E+03  0.89833968354E+02 0.  0.
    9000005    2    3    3    0    0 -0.26474063887E+02  0.35725710115E+01  0.11780488593E+02  0.32773282713E+02  0.14888546805E+02 0.  0.
         22    1    3    3    0    0  0.26474063887E+02 -0.35725710115E+01 -0.68357863046E+02  0.73392348120E+02  0.00000000000E+00 0. -1.
         22    1    4    4    0    0 -0.12948515771E+02 -0.57031149668E+01  0.62205672941E+01  0.15455906265E+02  0.00000000000E+00 0. -1.
         22    1    4    4    0    0 -0.13525548116E+02  0.92756859783E+01  0.55599212992E+01  0.17317376449E+02  0.00000000000E+00 0. -1.
<mgrwt>
<rscale>  0 0.89833968E+02</rscale>
<asrwt>0</asrwt>
<pdfrwt beam="2">  1        1 0.12518693E-01 0.89833968E+02</pdfrwt>
<pdfrwt beam="1">  1       -1 0.38144813E-02 0.89833968E+02</pdfrwt>
<totfact> 0.10520419E+05</totfact>
</mgrwt>
</event>
<event>
 7    1  0.3345055E-009  0.9175512E+02  0.7818608E-02  0.1298656E+00
         -1   -1    0    0    0  501 -0.00000000000E+00  0.00000000000E+00  0.21351506361E+03  0.21351506367E+03  0.50400000000E-02 0.  1.
          1   -1    0    0  501    0  0.00000000000E+00 -0.00000000000E+00 -0.98576195427E+01  0.98576208311E+01  0.50400000000E-02 0. -1.
         23    2    1    2    0    0  0.35527136788E-14  0.00000000000E+00  0.20365744407E+03  0.22337268450E+03  0.91755117880E+02 0.  0.
    9000005    2    3    3    0    0 -0.31787904326E+02 -0.28559160630E+02  0.14135995093E+03  0.14782750485E+03  0.66512364182E+01 0.  0.
         22    1    3    3    0    0  0.31787904326E+02  0.28559160630E+02  0.62297493138E+02  0.75545179652E+02  0.00000000000E+00 0. -1.
         22    1    4    4    0    0 -0.11288063538E+02 -0.69436824740E+01  0.50407983951E+02  0.52121012565E+02  0.00000000000E+00 0. -1.
         22    1    4    4    0    0 -0.20499840787E+02 -0.21615478156E+02  0.90951966982E+02  0.95706492288E+02  0.00000000000E+00 0. -1.
<mgrwt>
<rscale>  0 0.91755118E+02</rscale>
<asrwt>0</asrwt>
<pdfrwt beam="2">  1        1 0.15165569E-02 0.91755118E+02</pdfrwt>
<pdfrwt beam="1">  1       -1 0.32848473E-01 0.91755118E+02</pdfrwt>
<totfact> 0.66992324E+04</totfact>
</mgrwt>
</event>
<event>
 7    1  0.3345055E-009  0.8874218E+02  0.7818608E-02  0.1305927E+00
          1   -1    0    0  501    0  0.00000000000E+00  0.00000000000E+00  0.16866858664E+03  0.16866858672E+03  0.50400000000E-02 0. -1.
         -1   -1    0    0    0  501 -0.00000000000E+00 -0.00000000000E+00 -0.11672555139E+02  0.11672556227E+02  0.50400000000E-02 0.  1.
         23    2    1    2    0    0  0.00000000000E+00  0.00000000000E+00  0.15699603151E+03  0.18034114295E+03  0.88742176732E+02 0.  0.
    9000005    2    3    3    0    0  0.63364485331E+01  0.19769226123E+02  0.15774292011E+03  0.15956782535E+03  0.12169189008E+02 0.  0.
         22    1    3    3    0    0 -0.63364485331E+01 -0.19769226123E+02 -0.74688860068E+00  0.20773317600E+02  0.00000000000E+00 0.  1.
         22    1    4    4    0    0 -0.13452446970E+01  0.47652610917E+01  0.72823683386E+02  0.72991823230E+02  0.00000000000E+00 0. -1.
         22    1    4    4    0    0  0.76816932301E+01  0.15003965031E+02  0.84919236721E+02  0.86576002118E+02  0.00000000000E+00 0. -1.
<mgrwt>
<rscale>  0 0.88742177E+02</rscale>
<asrwt>0</asrwt>
<pdfrwt beam="1">  1        1 0.25949013E-01 0.88742177E+02</pdfrwt>
<pdfrwt beam="2">  1       -1 0.17957779E-02 0.88742177E+02</pdfrwt>
<totfact> 0.12324324E+05</totfact>
</mgrwt>
</event>
<event>
 7    1  0.3345055E-009  0.9101165E+02  0.7818608E-02  0.1300420E+00
          1   -1    0    0  501    0  0.00000000000E+00  0.00000000000E+00  0.85659166591E+03  0.85659166593E+03  0.50400000000E-02 0. -1.
         -1   -1    0    0    0  501 -0.00000000000E+00 -0.00000000000E+00 -0.24174618726E+01  0.24174671264E+01  0.50400000000E-02 0.  1.
         23    2    1    2    0    0 -0.71054273576E-14 -0.17763568394E-14  0.85417420404E+03  0.85900913305E+03  0.91011646631E+02 0.  0.
    9000005    2    3    3    0    0 -0.36585916864E+02 -0.13549440040E+02  0.63554859295E+03  0.63692970027E+03  0.15339897509E+02 0.  0.
         22    1    3    3    0    0  0.36585916864E+02  0.13549440040E+02  0.21862561109E+03  0.22207943278E+03  0.00000000000E+00 0.  1.
         22    1    4    4    0    0 -0.20049279178E+02 -0.15348902159E+02  0.39619554200E+03  0.39699933236E+03  0.00000000000E+00 0.  1.
         22    1    4    4    0    0 -0.16536637686E+02  0.17994621195E+01  0.23935305094E+03  0.23993036791E+03  0.00000000000E+00 0.  1.
<mgrwt>
<rscale>  0 0.91011647E+02</rscale>
<asrwt>0</asrwt>
<pdfrwt beam="1">  1        1 0.13178345E+00 0.91011647E+02</pdfrwt>
<pdfrwt beam="2">  1       -1 0.37191729E-03 0.91011647E+02</pdfrwt>
<totfact> 0.14090967E+05</totfact>
</mgrwt>
</event>
<event>
 7    1  0.3345055E-009  0.9196375E+02  0.7818608E-02  0.1298165E+00
         -1   -1    0    0    0  501 -0.00000000000E+00  0.00000000000E+00  0.51017596324E+03  0.51017596326E+03  0.50400000000E-02 0.  1.
          1   -1    0    0  501    0  0.00000000000E+00 -0.00000000000E+00 -0.41443188276E+01  0.41443218923E+01  0.50400000000E-02 0. -1.
         23    2    1    2    0    0  0.00000000000E+00  0.00000000000E+00  0.50603164441E+03  0.51432028516E+03  0.91963745995E+02 0.  0.
    9000005    2    3    3    0    0  0.19020340230E+02  0.33368299680E+02  0.39346492536E+03  0.39538129658E+03  0.60419722929E+01 0.  0.
         22    1    3    3    0    0 -0.19020340230E+02 -0.33368299680E+02  0.11256671905E+03  0.11893898858E+03  0.00000000000E+00 0. -1.
         22    1    4    4    0    0  0.85989061675E+00  0.58096680761E+01  0.61409570356E+02  0.61689764032E+02  0.00000000000E+00 0.  1.
         22    1    4    4    0    0  0.18160449613E+02  0.27558631604E+02  0.33205535501E+03  0.33369153255E+03  0.00000000000E+00 0.  1.
<mgrwt>
<rscale>  0 0.91963746E+02</rscale>
<asrwt>0</asrwt>
<pdfrwt beam="2">  1        1 0.63758806E-03 0.91963746E+02</pdfrwt>
<pdfrwt beam="1">  1       -1 0.78488572E-01 0.91963746E+02</pdfrwt>
<totfact> 0.45419844E+04</totfact>
</mgrwt>
</event>
<event>
 7    1  0.4200332E-009  0.8966697E+02  0.7818608E-02  0.1303660E+00
         -1   -1    0    0    0  501 -0.00000000000E+00  0.00000000000E+00  0.10209841938E+02  0.10209843182E+02  0.50400000000E-02 0.  1.
          1   -1    0    0  501    0  0.00000000000E+00 -0.00000000000E+00 -0.19687288696E+03  0.19687288703E+03  0.50400000000E-02 0. -1.
         23    2    1    2    0    0  0.00000000000E+00 -0.35527136788E-14 -0.18666304503E+03  0.20708273021E+03  0.89666965898E+02 0.  0.
    9000005    2    3    3    0    0  0.22841773829E+02 -0.17726676343E+02 -0.19531595190E+02  0.37468747267E+02  0.13654381175E+02 0.  0.
         22    1    3    3    0    0 -0.22841773829E+02  0.17726676343E+02 -0.16713144984E+03  0.16961398294E+03  0.00000000000E+00 0. -1.
         22    1    4    4    0    0  0.21235114230E+02 -0.89759293130E+01 -0.13434073403E+02  0.26682798046E+02  0.00000000000E+00 0. -1.
         22    1    4    4    0    0  0.16066595992E+01 -0.87507470297E+01 -0.60975217873E+01  0.10785949221E+02  0.00000000000E+00 0. -1.
<mgrwt>
<rscale>  0 0.89666966E+02</rscale>
<asrwt>0</asrwt>
<pdfrwt beam="2">  1        1 0.30288134E-01 0.89666966E+02</pdfrwt>
<pdfrwt beam="1">  1       -1 0.15707452E-02 0.89666966E+02</pdfrwt>
<totfact> 0.12344454E+05</totfact>
</mgrwt>
</event>
<event>
 7    1  0.3345055E-009  0.9210775E+02  0.7818608E-02  0.1297826E+00
         -1   -1    0    0    0  501 -0.00000000000E+00  0.00000000000E+00  0.79565289680E+01  0.79565305643E+01  0.50400000000E-02 0.  1.
          1   -1    0    0  501    0  0.00000000000E+00 -0.00000000000E+00 -0.26656839527E+03  0.26656839532E+03  0.50400000000E-02 0. -1.
         23    2    1    2    0    0  0.71054273576E-14  0.00000000000E+00 -0.25861186631E+03  0.27452492589E+03  0.92107749611E+02 0.  0.
    9000005    2    3    3    0    0 -0.37336705751E+02 -0.70739250112E+01 -0.58710203274E+02  0.71043366785E+02  0.12498079222E+02 0.  0.
         22    1    3    3    0    0  0.37336705751E+02  0.70739250112E+01 -0.19990166303E+03  0.20348155910E+03  0.00000000000E+00 0. -1.
         22    1    4    4    0    0 -0.71872912759E+00 -0.85374264408E+00 -0.85818858206E+01  0.86541442269E+01  0.00000000000E+00 0. -1.
         22    1    4    4    0    0 -0.36617976623E+02 -0.62201823671E+01 -0.50128317453E+02  0.62389222558E+02  0.00000000000E+00 0. -1.
<mgrwt>
<rscale>  0 0.92107750E+02</rscale>
<asrwt>0</asrwt>
<pdfrwt beam="2">  1        1 0.41010516E-01 0.92107750E+02</pdfrwt>
<pdfrwt beam="1">  1       -1 0.12240817E-02 0.92107750E+02</pdfrwt>
<totfact> 0.12187582E+05</totfact>
</mgrwt>
</event>
<event>
 7    1  0.3345055E-009  0.9139908E+02  0.7818608E-02  0.1299499E+00
         -1   -1    0    0    0  501 -0.00000000000E+00  0.00000000000E+00  0.38577809463E+02  0.38577809792E+02  0.50400000000E-02 0.  1.
          1   -1    0    0  501    0  0.00000000000E+00 -0.00000000000E+00 -0.54135991999E+02  0.54135992233E+02  0.50400000000E-02 0. -1.
         23    2    1    2    0    0  0.00000000000E+00  0.00000000000E+00 -0.15558182536E+02  0.92713802026E+02  0.91399081189E+02 0.  0.
    9000005    2    3    3    0    0 -0.40742685413E+02  0.44881572054E+01  0.10237441655E+02  0.44283189836E+02  0.13269729486E+02 0.  0.
         22    1    3    3    0    0  0.40742685413E+02 -0.44881572054E+01 -0.25795624191E+02  0.48430612190E+02  0.00000000000E+00 0. -1.
         22    1    4    4    0    0 -0.82372658949E+01 -0.43011062311E+01  0.87836666097E+00  0.93340019405E+01  0.00000000000E+00 0. -1.
         22    1    4    4    0    0 -0.32505419518E+02  0.87892634365E+01  0.93590749939E+01  0.34949187895E+02  0.00000000000E+00 0. -1.
<mgrwt>
<rscale>  0 0.91399081E+02</rscale>
<asrwt>0</asrwt>
<pdfrwt beam="2">  1        1 0.83286142E-02 0.91399081E+02</pdfrwt>
<pdfrwt beam="1">  1       -1 0.59350477E-02 0.91399081E+02</pdfrwt>
<totfact> 0.94247129E+04</totfact>
</mgrwt>
</event>
<event>
 7    1  0.3345055E-009  0.8790580E+02  0.7818608E-02  0.1308004E+00
          1   -1    0    0  501    0  0.00000000000E+00  0.00000000000E+00  0.17657787174E+03  0.17657787181E+03  0.50400000000E-02 0. -1.
         -1   -1    0    0    0  501 -0.00000000000E+00 -0.00000000000E+00 -0.10940539114E+02  0.10940540275E+02  0.50400000000E-02 0.  1.
         23    2    1    2    0    0  0.00000000000E+00  0.35527136788E-14  0.16563733262E+03  0.18751841208E+03  0.87905795668E+02 0.  0.
    9000005    2    3    3    0    0  0.33097000586E+02 -0.28820628184E+02  0.81741049618E+02  0.92836701291E+02  0.33187131974E+01 0.  0.
         22    1    3    3    0    0 -0.33097000586E+02  0.28820628184E+02  0.83896283005E+02  0.94681710793E+02  0.00000000000E+00 0.  1.
         22    1    4    4    0    0  0.38420154678E+01 -0.48704007553E+01  0.11402859977E+02  0.12981028542E+02  0.00000000000E+00 0. -1.
         22    1    4    4    0    0  0.29254985118E+02 -0.23950227428E+02  0.70338189641E+02  0.79855672748E+02  0.00000000000E+00 0. -1.
<mgrwt>
<rscale>  0 0.87905796E+02</rscale>
<asrwt>0</asrwt>
<pdfrwt beam="1">  1        1 0.27165826E-01 0.87905796E+02</pdfrwt>
<pdfrwt beam="2">  1       -1 0.16831600E-02 0.87905796E+02</pdfrwt>
<totfact> 0.12749722E+05</totfact>
</mgrwt>
</event>
<event>
 7    1  0.3345055E-009  0.9021878E+02  0.7818608E-02  0.1302323E+00
          1   -1    0    0  501    0  0.00000000000E+00  0.00000000000E+00  0.33297857590E+02  0.33297857971E+02  0.50400000000E-02 0. -1.
         -1   -1    0    0    0  501 -0.00000000000E+00 -0.00000000000E+00 -0.61110749455E+02  0.61110749663E+02  0.50400000000E-02 0.  1.
         23    2    1    2    0    0  0.00000000000E+00  0.00000000000E+00 -0.27812891865E+02  0.94408607634E+02  0.90218779871E+02 0.  0.
    9000005    2    3    3    0    0 -0.78321795869E+01 -0.23996300540E+02 -0.51975447385E+02  0.59465874972E+02  0.14056232732E+02 0.  0.
         22    1    3    3    0    0  0.78321795869E+01  0.23996300540E+02  0.24162555520E+02  0.34942732662E+02  0.00000000000E+00 0.  1.
         22    1    4    4    0    0  0.14503508177E+01  0.12673506195E+01 -0.44353443754E+01  0.48354911659E+01  0.00000000000E+00 0.  1.
         22    1    4    4    0    0 -0.92825304046E+01 -0.25263651159E+02 -0.47540103010E+02  0.54630383806E+02  0.00000000000E+00 0.  1.
<mgrwt>
<rscale>  0 0.90218780E+02</rscale>
<asrwt>0</asrwt>
<pdfrwt beam="1">  1        1 0.51227474E-02 0.90218780E+02</pdfrwt>
<pdfrwt beam="2">  1       -1 0.94016538E-02 0.90218780E+02</pdfrwt>
<totfact> 0.90827008E+04</totfact>
</mgrwt>
</event>
<event>
 7    1  0.3345055E-009  0.9088110E+02  0.7818608E-02  0.1300732E+00
         -1   -1    0    0    0  501 -0.00000000000E+00  0.00000000000E+00  0.16061330145E+03  0.16061330153E+03  0.50400000000E-02 0.  1.
          1   -1    0    0  501    0  0.00000000000E+00 -0.00000000000E+00 -0.12855992499E+02  0.12855993487E+02  0.50400000000E-02 0. -1.
         23    2    1    2    0    0  0.00000000000E+00  0.00000000000E+00  0.14775730895E+03  0.17346929502E+03  0.90881097951E+02 0.  0.
    9000005    2    3    3    0    0 -0.36594437385E+02 -0.24522287113E+02  0.65852879226E+02  0.80470203507E+02  0.14083910582E+02 0.  0.
         22    1    3    3    0    0  0.36594437385E+02  0.24522287113E+02  0.81904429727E+02  0.92999091510E+02  0.00000000000E+00 0. -1.
         22    1    4    4    0    0 -0.11169925774E+02 -0.11198663806E+02  0.34553932903E+02  0.38001994578E+02  0.00000000000E+00 0. -1.
         22    1    4    4    0    0 -0.25424511611E+02 -0.13323623307E+02  0.31298946323E+02  0.42468208929E+02  0.00000000000E+00 0. -1.
<mgrwt>
<rscale>  0 0.90881098E+02</rscale>
<asrwt>0</asrwt>
<pdfrwt beam="2">  1        1 0.19778451E-02 0.90881098E+02</pdfrwt>
<pdfrwt beam="1">  1       -1 0.24709739E-01 0.90881098E+02</pdfrwt>
<totfact> 0.74197902E+04</totfact>
</mgrwt>
</event>
<event>
 7    1  0.3345055E-009  0.9077701E+02  0.7818608E-02  0.1300981E+00
         -1   -1    0    0    0  501 -0.00000000000E+00  0.00000000000E+00  0.37515979298E+02  0.37515979636E+02  0.50400000000E-02 0.  1.
          1   -1    0    0  501    0  0.00000000000E+00 -0.00000000000E+00 -0.54913034206E+02  0.54913034438E+02  0.50400000000E-02 0. -1.
         23    2    1    2    0    0  0.35527136788E-14  0.00000000000E+00 -0.17397054909E+02  0.92429014074E+02  0.90777007679E+02 0.  0.
    9000005    2    3    3    0    0 -0.22389602577E+02  0.38034338830E+02 -0.35618764619E+01  0.46176258518E+02  0.13101704203E+02 0.  0.
         22    1    3    3    0    0  0.22389602577E+02 -0.38034338830E+02 -0.13835178447E+02  0.46252755555E+02  0.00000000000E+00 0. -1.
         22    1    4    4    0    0  0.54424461749E+00 -0.50102046716E+00 -0.10210795831E+01  0.12608835105E+01  0.00000000000E+00 0. -1.
         22    1    4    4    0    0 -0.22933847194E+02  0.38535359298E+02 -0.25407968788E+01  0.44915375008E+02  0.00000000000E+00 0. -1.
<mgrwt>
<rscale>  0 0.90777008E+02</rscale>
<asrwt>0</asrwt>
<pdfrwt beam="2">  1        1 0.84481592E-02 0.90777008E+02</pdfrwt>
<pdfrwt beam="1">  1       -1 0.57716891E-02 0.90777008E+02</pdfrwt>
<totfact> 0.96262321E+04</totfact>
</mgrwt>
</event>
<event>
 7    1  0.3345055E-009  0.9005424E+02  0.7818608E-02  0.1302720E+00
          1   -1    0    0  501    0  0.00000000000E+00  0.00000000000E+00  0.10478769656E+02  0.10478770868E+02  0.50400000000E-02 0. -1.
         -1   -1    0    0    0  501 -0.00000000000E+00 -0.00000000000E+00 -0.19348088168E+03  0.19348088175E+03  0.50400000000E-02 0.  1.
         23    2    1    2    0    0  0.00000000000E+00  0.00000000000E+00 -0.18300211203E+03  0.20395965262E+03  0.90054244150E+02 0.  0.
    9000005    2    3    3    0    0 -0.29084457331E+02  0.72492561025E+01 -0.20875378043E+02  0.39085351271E+02  0.13907764135E+02 0.  0.
         22    1    3    3    0    0  0.29084457331E+02 -0.72492561025E+01 -0.16212673398E+03  0.16487430135E+03  0.00000000000E+00 0.  1.
         22    1    4    4    0    0 -0.11176521176E+02 -0.30778152994E+01 -0.11692816137E+02  0.16465403786E+02  0.00000000000E+00 0.  1.
         22    1    4    4    0    0 -0.17907936154E+02  0.10327071402E+02 -0.91825619064E+01  0.22619947485E+02  0.00000000000E+00 0.  1.
<mgrwt>
<rscale>  0 0.90054244E+02</rscale>
<asrwt>0</asrwt>
<pdfrwt beam="1">  1        1 0.16121186E-02 0.90054244E+02</pdfrwt>
<pdfrwt beam="2">  1       -1 0.29766287E-01 0.90054244E+02</pdfrwt>
<totfact> 0.72373564E+04</totfact>
</mgrwt>
</event>
<event>
 7    1  0.3345055E-009  0.8993551E+02  0.7818608E-02  0.1303008E+00
         -1   -1    0    0    0  501 -0.00000000000E+00  0.00000000000E+00  0.65932839669E+03  0.65932839671E+03  0.50400000000E-02 0.  1.
          1   -1    0    0  501    0  0.00000000000E+00 -0.00000000000E+00 -0.30669052905E+01  0.30669094317E+01  0.50400000000E-02 0. -1.
         23    2    1    2    0    0  0.00000000000E+00 -0.35527136788E-14  0.65626149140E+03  0.66239530615E+03  0.89935513028E+02 0.  0.
    9000005    2    3    3    0    0 -0.32242213072E+02  0.28576934229E+02  0.42085872923E+03  0.42308241073E+03  0.45227010866E+01 0.  0.
         22    1    3    3    0    0  0.32242213072E+02 -0.28576934229E+02  0.23540276217E+03  0.23931289542E+03  0.00000000000E+00 0.  1.
         22    1    4    4    0    0 -0.10511163528E+02  0.67574166969E+01  0.12868140534E+03  0.12928670202E+03  0.00000000000E+00 0. -1.
         22    1    4    4    0    0 -0.21731049544E+02  0.21819517532E+02  0.29217732389E+03  0.29379570871E+03  0.00000000000E+00 0. -1.
<mgrwt>
<rscale>  0 0.89935513E+02</rscale>
<asrwt>0</asrwt>
<pdfrwt beam="2">  1        1 0.47183182E-03 0.89935513E+02</pdfrwt>
<pdfrwt beam="1">  1       -1 0.10143516E+00 0.89935513E+02</pdfrwt>
<totfact> 0.40134361E+04</totfact>
</mgrwt>
</event>
<event>
 7    1  0.3345055E-009  0.9005608E+02  0.7818608E-02  0.1302716E+00
         -1   -1    0    0    0  501 -0.00000000000E+00  0.00000000000E+00  0.55997911213E+01  0.55997933894E+01  0.50400000000E-02 0.  1.
          1   -1    0    0  501    0  0.00000000000E+00 -0.00000000000E+00 -0.36207139452E+03  0.36207139455E+03  0.50400000000E-02 0. -1.
         23    2    1    2    0    0  0.35527136788E-14  0.00000000000E+00 -0.35647160340E+03  0.36767118794E+03  0.90056084830E+02 0.  0.
    9000005    2    3    3    0    0  0.17689613395E+02  0.27436473638E+02 -0.30448097544E+03  0.30628138502E+03  0.58257957622E+01 0.  0.
         22    1    3    3    0    0 -0.17689613395E+02 -0.27436473638E+02 -0.51990627957E+02  0.61389802924E+02  0.00000000000E+00 0.  1.
         22    1    4    4    0    0  0.11961594213E+01  0.42252362711E+01 -0.28651411065E+02  0.28985975487E+02  0.00000000000E+00 0. -1.
         22    1    4    4    0    0  0.16493453973E+02  0.23211237366E+02 -0.27582956437E+03  0.27729540953E+03  0.00000000000E+00 0. -1.
<mgrwt>
<rscale>  0 0.90056085E+02</rscale>
<asrwt>0</asrwt>
<pdfrwt beam="2">  1        1 0.55703273E-01 0.90056085E+02</pdfrwt>
<pdfrwt beam="1">  1       -1 0.86150679E-03 0.90056085E+02</pdfrwt>
<totfact> 0.13705322E+05</totfact>
</mgrwt>
</event>
<event>
 7    1  0.3345055E-009  0.8898676E+02  0.7818608E-02  0.1305324E+00
         -1   -1    0    0    0  501 -0.00000000000E+00  0.00000000000E+00  0.27180510350E+02  0.27180510817E+02  0.50400000000E-02 0.  1.
          1   -1    0    0  501    0  0.00000000000E+00 -0.00000000000E+00 -0.72833834037E+02  0.72833834211E+02  0.50400000000E-02 0. -1.
         23    2    1    2    0    0  0.35527136788E-14  0.00000000000E+00 -0.45653323687E+02  0.10001434503E+03  0.88986758834E+02 0.  0.
    9000005    2    3    3    0    0  0.26961817774E+02  0.34033635198E+02 -0.21528015553E+02  0.50342839766E+02  0.13627843542E+02 0.  0.
         22    1    3    3    0    0 -0.26961817774E+02 -0.34033635198E+02 -0.24125308135E+02  0.49671505262E+02  0.00000000000E+00 0. -1.
         22    1    4    4    0    0  0.53650523126E+01  0.28918739536E+01  0.11151811645E+01  0.61959946990E+01  0.00000000000E+00 0.  1.
         22    1    4    4    0    0  0.21596765461E+02  0.31141761244E+02 -0.22643196717E+02  0.44146845067E+02  0.00000000000E+00 0.  1.
<mgrwt>
<rscale>  0 0.88986759E+02</rscale>
<asrwt>0</asrwt>
<pdfrwt beam="2">  1        1 0.11205205E-01 0.88986759E+02</pdfrwt>
<pdfrwt beam="1">  1       -1 0.41816170E-02 0.88986759E+02</pdfrwt>
<totfact> 0.10613170E+05</totfact>
</mgrwt>
</event>
<event>
 7    1  0.3345055E-009  0.9134545E+02  0.7818608E-02  0.1299626E+00
          1   -1    0    0  501    0  0.00000000000E+00  0.00000000000E+00  0.10665876787E+03  0.10665876798E+03  0.50400000000E-02 0. -1.
         -1   -1    0    0    0  501 -0.00000000000E+00 -0.00000000000E+00 -0.19557676947E+02  0.19557677597E+02  0.50400000000E-02 0.  1.
         23    2    1    2    0    0  0.00000000000E+00 -0.17763568394E-14  0.87101090919E+02  0.12621644558E+03  0.91345449236E+02 0.  0.
    9000005    2    3    3    0    0  0.30742091323E+02 -0.86205887129E+01 -0.25820524504E+00  0.33205492706E+02  0.91185167247E+01 0.  0.
         22    1    3    3    0    0 -0.30742091323E+02  0.86205887129E+01  0.87359296164E+02  0.93010952876E+02  0.00000000000E+00 0. -1.
         22    1    4    4    0    0  0.11590059261E+02  0.18797498245E+00  0.27446936404E+01  0.11912101051E+02  0.00000000000E+00 0. -1.
         22    1    4    4    0    0  0.19152032062E+02 -0.88085636953E+01 -0.30028988854E+01  0.21293391655E+02  0.00000000000E+00 0. -1.
<mgrwt>
<rscale>  0 0.91345449E+02</rscale>
<asrwt>0</asrwt>
<pdfrwt beam="1">  1        1 0.16409041E-01 0.91345449E+02</pdfrwt>
<pdfrwt beam="2">  1       -1 0.30088735E-02 0.91345449E+02</pdfrwt>
<totfact> 0.10505614E+05</totfact>
</mgrwt>
</event>
<event>
 7    1  0.3345055E-009  0.9313326E+02  0.7818608E-02  0.1295437E+00
         -1   -1    0    0    0  501 -0.00000000000E+00  0.00000000000E+00  0.60125398954E+01  0.60125420078E+01  0.50400000000E-02 0.  1.
          1   -1    0    0  501    0  0.00000000000E+00 -0.00000000000E+00 -0.36065469245E+03  0.36065469248E+03  0.50400000000E-02 0. -1.
         23    2    1    2    0    0  0.00000000000E+00 -0.88817841970E-15 -0.35464215255E+03  0.36666723449E+03  0.93133261954E+02 0.  0.
    9000005    2    3    3    0    0 -0.43328956278E+02  0.22489265906E+01 -0.12774891687E+03  0.13566291305E+03  0.14219145353E+02 0.  0.
         22    1    3    3    0    0  0.43328956278E+02 -0.22489265906E+01 -0.22689323568E+03  0.23100432144E+03  0.00000000000E+00 0. -1.
         22    1    4    4    0    0 -0.13095810428E+02 -0.57741820780E+01 -0.36787589995E+02  0.39473639395E+02  0.00000000000E+00 0.  1.
         22    1    4    4    0    0 -0.30233145849E+02  0.80231086686E+01 -0.90961326873E+02  0.96189273660E+02  0.00000000000E+00 0.  1.
<mgrwt>
<rscale>  0 0.93133262E+02</rscale>
<asrwt>0</asrwt>
<pdfrwt beam="2">  1        1 0.55485321E-01 0.93133262E+02</pdfrwt>
<pdfrwt beam="1">  1       -1 0.92500658E-03 0.93133262E+02</pdfrwt>
<totfact> 0.12525032E+05</totfact>
</mgrwt>
</event>
<event>
 7    1  0.3345055E-009  0.9221929E+02  0.7818608E-02  0.1297565E+00
          1   -1    0    0  501    0  0.00000000000E+00  0.00000000000E+00  0.39191625858E+01  0.39191658265E+01  0.50400000000E-02 0. -1.
         -1   -1    0    0    0  501 -0.00000000000E+00 -0.00000000000E+00 -0.54248798374E+03  0.54248798376E+03  0.50400000000E-02 0.  1.
         23    2    1    2    0    0  0.00000000000E+00  0.35527136788E-14 -0.53856882115E+03  0.54640714959E+03  0.92219293011E+02 0.  0.
    9000005    2    3    3    0    0  0.69947393076E+01  0.25535284164E+02 -0.49163833646E+03  0.49252350171E+03  0.13044874191E+02 0.  0.
         22    1    3    3    0    0 -0.69947393076E+01 -0.25535284164E+02 -0.46930484692E+02  0.53883647879E+02  0.00000000000E+00 0. -1.
         22    1    4    4    0    0  0.22486247530E+01  0.24375505476E+02 -0.42674105703E+03  0.42744257080E+03  0.00000000000E+00 0.  1.
         22    1    4    4    0    0  0.47461145546E+01  0.11597786889E+01 -0.64897279433E+02  0.65080930907E+02  0.00000000000E+00 0.  1.
<mgrwt>
<rscale>  0 0.92219293E+02</rscale>
<asrwt>0</asrwt>
<pdfrwt beam="1">  1        1 0.60294877E-03 0.92219293E+02</pdfrwt>
<pdfrwt beam="2">  1       -1 0.83459631E-01 0.92219293E+02</pdfrwt>
<totfact> 0.43334431E+04</totfact>
</mgrwt>
</event>
<event>
 7    1  0.3345055E-009  0.8807120E+02  0.7818608E-02  0.1307591E+00
         -1   -1    0    0    0  501 -0.00000000000E+00  0.00000000000E+00  0.11436042982E+03  0.11436042993E+03  0.50400000000E-02 0. -1.
          1   -1    0    0  501    0  0.00000000000E+00 -0.00000000000E+00 -0.16956336993E+02  0.16956337742E+02  0.50400000000E-02 0.  1.
         23    2    1    2    0    0  0.00000000000E+00 -0.35527136788E-14  0.97404092831E+02  0.13131676768E+03  0.88071199451E+02 0.  0.
    9000005    2    3    3    0    0  0.40713162628E+01 -0.27561198320E+02  0.18453054240E+01  0.31779452464E+02  0.15176731463E+02 0.  0.
         22    1    3    3    0    0 -0.40713162628E+01  0.27561198320E+02  0.95558787407E+02  0.99537315212E+02  0.00000000000E+00 0. -1.
         22    1    4    4    0    0  0.43994215440E+01 -0.22746938700E+02 -0.47072559216E+01  0.23641835556E+02  0.00000000000E+00 0.  1.
         22    1    4    4    0    0 -0.32810528119E+00 -0.48142596192E+01  0.65525613456E+01  0.81376169082E+01  0.00000000000E+00 0.  1.
<mgrwt>
<rscale>  0 0.88071199E+02</rscale>
<asrwt>0</asrwt>
<pdfrwt beam="2">  1        1 0.26086672E-02 0.88071199E+02</pdfrwt>
<pdfrwt beam="1">  1       -1 0.17593913E-01 0.88071199E+02</pdfrwt>
<totfact> 0.86709932E+04</totfact>
</mgrwt>
</event>
<event>
 7    1  0.3345055E-009  0.9059941E+02  0.7818608E-02  0.1301407E+00
         -1   -1    0    0    0  501 -0.00000000000E+00  0.00000000000E+00  0.30386585956E+03  0.30386585960E+03  0.50400000000E-02 0.  1.
          1   -1    0    0  501    0  0.00000000000E+00 -0.00000000000E+00 -0.67531863877E+01  0.67531882684E+01  0.50400000000E-02 0. -1.
         23    2    1    2    0    0  0.00000000000E+00 -0.71054273576E-14  0.29711267317E+03  0.31061904787E+03  0.90599405849E+02 0.  0.
    9000005    2    3    3    0    0  0.11241595013E+01 -0.38941387744E+02  0.72820320160E+02  0.82968537144E+02  0.79551061369E+01 0.  0.
         22    1    3    3    0    0 -0.11241595013E+01  0.38941387744E+02  0.22429235301E+03  0.22765051073E+03  0.00000000000E+00 0.  1.
         22    1    4    4    0    0  0.17997112952E+01 -0.34414416035E+01  0.11153167415E+02  0.11809979867E+02  0.00000000000E+00 0. -1.
         22    1    4    4    0    0 -0.67555179387E+00 -0.35499946140E+02  0.61667152745E+02  0.71158557277E+02  0.00000000000E+00 0. -1.
<mgrwt>
<rscale>  0 0.90599406E+02</rscale>
<asrwt>0</asrwt>
<pdfrwt beam="2">  1        1 0.10389521E-02 0.90599406E+02</pdfrwt>
<pdfrwt beam="1">  1       -1 0.46748585E-01 0.90599406E+02</pdfrwt>
<totfact> 0.61289576E+04</totfact>
</mgrwt>
</event>
<event>
 7    1  0.3345055E-009  0.9028348E+02  0.7818608E-02  0.1302167E+00
          1   -1    0    0  501    0  0.00000000000E+00  0.00000000000E+00  0.40389045289E+03  0.40389045292E+03  0.50400000000E-02 0. -1.
         -1   -1    0    0    0  501 -0.00000000000E+00 -0.00000000000E+00 -0.50453682370E+01  0.50453707543E+01  0.50400000000E-02 0.  1.
         23    2    1    2    0    0  0.00000000000E+00  0.00000000000E+00  0.39884508465E+03  0.40893582368E+03  0.90283477633E+02 0.  0.
    9000005    2    3    3    0    0 -0.10611263653E+02 -0.24568560617E+02  0.36253401213E+03  0.36382809623E+03  0.14958628681E+02 0.  0.
         22    1    3    3    0    0  0.10611263653E+02  0.24568560617E+02  0.36311072525E+02  0.45107727443E+02  0.00000000000E+00 0.  1.
         22    1    4    4    0    0 -0.31490404022E+01 -0.12157091418E+01  0.12857709496E+02  0.13293423098E+02  0.00000000000E+00 0.  1.
         22    1    4    4    0    0 -0.74622232512E+01 -0.23352851475E+02  0.34967630263E+03  0.35053467314E+03  0.00000000000E+00 0.  1.
<mgrwt>
<rscale>  0 0.90283478E+02</rscale>
<asrwt>0</asrwt>
<pdfrwt beam="1">  1        1 0.62136989E-01 0.90283478E+02</pdfrwt>
<pdfrwt beam="2">  1       -1 0.77621074E-03 0.90283478E+02</pdfrwt>
<totfact> 0.13868010E+05</totfact>
</mgrwt>
</event>
<event>
 7    1  0.3345055E-009  0.9242291E+02  0.7818608E-02  0.1297088E+00
          1   -1    0    0  501    0  0.00000000000E+00  0.00000000000E+00  0.25617288176E+03  0.25617288181E+03  0.50400000000E-02 0. -1.
         -1   -1    0    0    0  501 -0.00000000000E+00 -0.00000000000E+00 -0.83361601410E+01  0.83361616646E+01  0.50400000000E-02 0.  1.
         23    2    1    2    0    0  0.55511151231E-15  0.00000000000E+00  0.24783672162E+03  0.26450904348E+03  0.92422905694E+02 0.  0.
    9000005    2    3    3    0    0 -0.30957593646E+00  0.37349011613E+02  0.56080758001E+02  0.69149390299E+02  0.15541629742E+02 0.  0.
         22    1    3    3    0    0  0.30957593646E+00 -0.37349011613E+02  0.19175596362E+03  0.19535965318E+03  0.00000000000E+00 0. -1.
         22    1    4    4    0    0 -0.50819574384E+01  0.56612378530E+01  0.59785792074E+01  0.96757074560E+01  0.00000000000E+00 0.  1.
         22    1    4    4    0    0  0.47723815019E+01  0.31687773760E+02  0.50102178794E+02  0.59473682843E+02  0.00000000000E+00 0.  1.
<mgrwt>
<rscale>  0 0.92422906E+02</rscale>
<asrwt>0</asrwt>
<pdfrwt beam="1">  1        1 0.39411214E-01 0.92422906E+02</pdfrwt>
<pdfrwt beam="2">  1       -1 0.12824863E-02 0.92422906E+02</pdfrwt>
<totfact> 0.11982862E+05</totfact>
</mgrwt>
</event>
<event>
 7    1  0.4240515E-009  0.1243952E+03  0.7818608E-02  0.1236018E+00
         -1   -1    0    0    0  501 -0.00000000000E+00  0.00000000000E+00  0.81537658147E+01  0.81537673723E+01  0.50400000000E-02 0.  1.
          1   -1    0    0  501    0  0.00000000000E+00 -0.00000000000E+00 -0.47444815249E+03  0.47444815252E+03  0.50400000000E-02 0. -1.
         23    2    1    2    0    0  0.00000000000E+00  0.00000000000E+00 -0.46629438668E+03  0.48260191989E+03  0.12439516886E+03 0.  0.
    9000005    2    3    3    0    0 -0.36091860613E+02 -0.46075985284E+02 -0.30889715305E+03  0.31467482864E+03  0.13310814969E+02 0.  0.
         22    1    3    3    0    0  0.36091860613E+02  0.46075985284E+02 -0.15739723363E+03  0.16792709125E+03  0.00000000000E+00 0.  1.
         22    1    4    4    0    0 -0.28267920490E+02 -0.25931688176E+02 -0.19119581650E+03  0.19500607178E+03  0.00000000000E+00 0.  1.
         22    1    4    4    0    0 -0.78239401231E+01 -0.20144297108E+02 -0.11770133655E+03  0.11966875686E+03  0.00000000000E+00 0.  1.
<mgrwt>
<rscale>  0 0.12439517E+03</rscale>
<asrwt>0</asrwt>
<pdfrwt beam="2">  1        1 0.72992002E-01 0.12439517E+03</pdfrwt>
<pdfrwt beam="1">  1       -1 0.12544260E-02 0.12439517E+03</pdfrwt>
<totfact> 0.59940372E+04</totfact>
</mgrwt>
</event>
<event>
 7    1  0.3345055E-009  0.8644572E+02  0.7818608E-02  0.1311695E+00
         -1   -1    0    0    0  501 -0.00000000000E+00  0.00000000000E+00  0.14314904090E+02  0.14314904978E+02  0.50400000000E-02 0.  1.
          1   -1    0    0  501    0  0.00000000000E+00 -0.00000000000E+00 -0.13050843400E+03  0.13050843409E+03  0.50400000000E-02 0. -1.
         23    2    1    2    0    0  0.00000000000E+00  0.00000000000E+00 -0.11619352991E+03  0.14482333907E+03  0.86445723710E+02 0.  0.
    9000005    2    3    3    0    0  0.87119696375E+01 -0.41109245703E+02 -0.72991390105E+02  0.84554828383E+02  0.74771302131E+01 0.  0.
         22    1    3    3    0    0 -0.87119696375E+01  0.41109245703E+02 -0.43202139802E+02  0.60268510689E+02  0.00000000000E+00 0.  1.
         22    1    4    4    0    0  0.35848170077E+01 -0.32020353724E+02 -0.56393995847E+02  0.64949493710E+02  0.00000000000E+00 0. -1.
         22    1    4    4    0    0  0.51271526298E+01 -0.90888919786E+01 -0.16597394258E+02  0.19605334673E+02  0.00000000000E+00 0. -1.
<mgrwt>
<rscale>  0 0.86445724E+02</rscale>
<asrwt>0</asrwt>
<pdfrwt beam="2">  1        1 0.20078220E-01 0.86445724E+02</pdfrwt>
<pdfrwt beam="1">  1       -1 0.22022931E-02 0.86445724E+02</pdfrwt>
<totfact> 0.12623392E+05</totfact>
</mgrwt>
</event>
<event>
 7    1  0.3345055E-009  0.7914047E+02  0.7818608E-02  0.1331508E+00
         -1   -1    0    0    0  501 -0.00000000000E+00  0.00000000000E+00  0.87332442868E+01  0.87332457411E+01  0.50400000000E-02 0.  1.
          1   -1    0    0  501    0  0.00000000000E+00 -0.00000000000E+00 -0.17929229380E+03  0.17929229387E+03  0.50400000000E-02 0. -1.
         23    2    1    2    0    0  0.00000000000E+00 -0.35527136788E-14 -0.17055904951E+03  0.18802553961E+03  0.79140471160E+02 0.  0.
    9000005    2    3    3    0    0 -0.15925946717E+02  0.29386010830E+02 -0.36235406934E+02  0.49605835931E+02  0.55281851819E+01 0.  0.
         22    1    3    3    0    0  0.15925946717E+02 -0.29386010830E+02 -0.13432364258E+03  0.13841970368E+03  0.00000000000E+00 0. -1.
         22    1    4    4    0    0 -0.59722117865E+01  0.60185530235E+01 -0.89786254121E+01  0.12349332306E+02  0.00000000000E+00 0.  1.
         22    1    4    4    0    0 -0.99537349302E+01  0.23367457807E+02 -0.27256781522E+02  0.37256503625E+02  0.00000000000E+00 0.  1.
<mgrwt>
<rscale>  0 0.79140471E+02</rscale>
<asrwt>0</asrwt>
<pdfrwt beam="2">  1        1 0.27583427E-01 0.79140471E+02</pdfrwt>
<pdfrwt beam="1">  1       -1 0.13435763E-02 0.79140471E+02</pdfrwt>
<totfact> 0.16907951E+05</totfact>
</mgrwt>
</event>
<event>
 7    1  0.3345055E-009  0.8980743E+02  0.7818608E-02  0.1303319E+00
          1   -1    0    0  501    0  0.00000000000E+00  0.00000000000E+00  0.67936436761E+03  0.67936436763E+03  0.50400000000E-02 0. -1.
         -1   -1    0    0    0  501 -0.00000000000E+00 -0.00000000000E+00 -0.29679835533E+01  0.29679878326E+01  0.50400000000E-02 0.  1.
         23    2    1    2    0    0  0.00000000000E+00  0.00000000000E+00  0.67639638406E+03  0.68233235546E+03  0.89807432567E+02 0.  0.
    9000005    2    3    3    0    0  0.41734324134E+02  0.93255271907E+01  0.42063577072E+03  0.42302132484E+03  0.13559881659E+02 0.  0.
         22    1    3    3    0    0 -0.41734324134E+02 -0.93255271907E+01  0.25576061333E+03  0.25931103062E+03  0.00000000000E+00 0.  1.
         22    1    4    4    0    0  0.86031888522E+01 -0.25354167970E+01  0.11957006789E+03  0.11990598122E+03  0.00000000000E+00 0. -1.
         22    1    4    4    0    0  0.33131135281E+02  0.11860943988E+02  0.30106570283E+03  0.30311534362E+03  0.00000000000E+00 0. -1.
<mgrwt>
<rscale>  0 0.89807433E+02</rscale>
<asrwt>0</asrwt>
<pdfrwt beam="1">  1        1 0.10451772E+00 0.89807433E+02</pdfrwt>
<pdfrwt beam="2">  1       -1 0.45661263E-03 0.89807433E+02</pdfrwt>
<totfact> 0.14798417E+05</totfact>
</mgrwt>
</event>
<event>
 7    1  0.3345055E-009  0.1072353E+03  0.7818608E-02  0.1265777E+00
          1   -1    0    0  501    0  0.00000000000E+00  0.00000000000E+00  0.22327536418E+01  0.22327593302E+01  0.50400000000E-02 0. -1.
         -1   -1    0    0    0  501 -0.00000000000E+00 -0.00000000000E+00 -0.12875800971E+04  0.12875800972E+04  0.50400000000E-02 0.  1.
         23    2    1    2    0    0  0.00000000000E+00  0.00000000000E+00 -0.12853473435E+04  0.12898128565E+04  0.10723530810E+03 0.  0.
    9000005    2    3    3    0    0  0.24783764996E+01 -0.39912370164E+02 -0.10706661288E+04  0.10714389488E+04  0.75047885252E+01 0.  0.
         22    1    3    3    0    0 -0.24783764996E+01  0.39912370164E+02 -0.21468121467E+03  0.21837390773E+03  0.00000000000E+00 0. -1.
         22    1    4    4    0    0 -0.16441988813E+00 -0.11869372678E+02 -0.23697215401E+03  0.23726927913E+03  0.00000000000E+00 0. -1.
         22    1    4    4    0    0  0.26427963877E+01 -0.28042997486E+02 -0.83369397481E+03  0.83416966962E+03  0.00000000000E+00 0. -1.
<mgrwt>
<rscale>  0 0.10723531E+03</rscale>
<asrwt>0</asrwt>
<pdfrwt beam="1">  1        1 0.34350203E-03 0.10723531E+03</pdfrwt>
<pdfrwt beam="2">  1       -1 0.19808865E+00 0.10723531E+03</pdfrwt>
<totfact> 0.11725192E+04</totfact>
</mgrwt>
</event>
<event>
 7    1  0.3345055E-009  0.8892038E+02  0.7818608E-02  0.1305487E+00
          1   -1    0    0  501    0  0.00000000000E+00  0.00000000000E+00  0.34542684530E+03  0.34542684533E+03  0.50400000000E-02 0. -1.
         -1   -1    0    0    0  501 -0.00000000000E+00 -0.00000000000E+00 -0.57225083458E+01  0.57225105653E+01  0.50400000000E-02 0.  1.
         23    2    1    2    0    0  0.00000000000E+00 -0.35527136788E-14  0.33970433695E+03  0.35114935590E+03  0.88920377894E+02 0.  0.
    9000005    2    3    3    0    0  0.18460266671E+02 -0.31725417860E+02  0.26771280148E+03  0.27034053978E+03  0.81596437026E+01 0.  0.
         22    1    3    3    0    0 -0.18460266671E+02  0.31725417860E+02  0.71991535469E+02  0.80808816122E+02  0.00000000000E+00 0.  1.
         22    1    4    4    0    0  0.13331934213E+02 -0.15752341895E+02  0.13408635111E+03  0.13566512558E+03  0.00000000000E+00 0.  1.
         22    1    4    4    0    0  0.51283324574E+01 -0.15973075964E+02  0.13362645037E+03  0.13467541419E+03  0.00000000000E+00 0.  1.
<mgrwt>
<rscale>  0 0.88920378E+02</rscale>
<asrwt>0</asrwt>
<pdfrwt beam="1">  1        1 0.53142593E-01 0.88920378E+02</pdfrwt>
<pdfrwt beam="2">  1       -1 0.88038605E-03 0.88920378E+02</pdfrwt>
<totfact> 0.14057009E+05</totfact>
</mgrwt>
</event>
<event>
 7    1  0.3345055E-009  0.9240811E+02  0.7818608E-02  0.1297123E+00
          1   -1    0    0  501    0  0.00000000000E+00  0.00000000000E+00  0.70347626969E+03  0.70347626970E+03  0.50400000000E-02 0. -1.
         -1   -1    0    0    0  501 -0.00000000000E+00 -0.00000000000E+00 -0.30346626651E+01  0.30346668503E+01  0.50400000000E-02 0.  1.
         23    2    1    2    0    0  0.71054273576E-14  0.35527136788E-14  0.70044160702E+03  0.70651093655E+03  0.92408109086E+02 0.  0.
    9000005    2    3    3    0    0 -0.34871117358E+02 -0.25364898778E+02  0.47055065274E+03  0.47261090711E+03  0.91531309164E+01 0.  0.
         22    1    3    3    0    0  0.34871117358E+02  0.25364898778E+02  0.22989095428E+03  0.23390002945E+03  0.00000000000E+00 0.  1.
         22    1    4    4    0    0 -0.23680403806E+02 -0.14954303292E+02  0.34459980456E+03  0.34573605252E+03  0.00000000000E+00 0. -1.
         22    1    4    4    0    0 -0.11190713552E+02 -0.10410595486E+02  0.12595084818E+03  0.12687485458E+03  0.00000000000E+00 0. -1.
<mgrwt>
<rscale>  0 0.92408109E+02</rscale>
<asrwt>0</asrwt>
<pdfrwt beam="1">  1        1 0.10822726E+00 0.92408109E+02</pdfrwt>
<pdfrwt beam="2">  1       -1 0.46687090E-03 0.92408109E+02</pdfrwt>
<totfact> 0.13720859E+05</totfact>
</mgrwt>
</event>
<event>
 7    1  0.3345055E-009  0.1012194E+03  0.7818608E-02  0.1277753E+00
          1   -1    0    0  501    0  0.00000000000E+00  0.00000000000E+00  0.29561147257E+03  0.29561147261E+03  0.50400000000E-02 0. -1.
         -1   -1    0    0    0  501 -0.00000000000E+00 -0.00000000000E+00 -0.86645452619E+01  0.86645467277E+01  0.50400000000E-02 0.  1.
         23    2    1    2    0    0  0.00000000000E+00  0.00000000000E+00  0.28694692731E+03  0.30427601934E+03  0.10121935020E+03 0.  0.
    9000005    2    3    3    0    0 -0.13380951709E+02 -0.41829867927E+02  0.75973497393E+02  0.88779903715E+02  0.13457759030E+02 0.  0.
         22    1    3    3    0    0  0.13380951709E+02  0.41829867927E+02  0.21097342992E+03  0.21549611563E+03  0.00000000000E+00 0. -1.
         22    1    4    4    0    0 -0.27362969319E+01 -0.26776716975E+02  0.51827200011E+02  0.58399816386E+02  0.00000000000E+00 0. -1.
         22    1    4    4    0    0 -0.10644654777E+02 -0.15053150952E+02  0.24146297381E+02  0.30380087329E+02  0.00000000000E+00 0. -1.
<mgrwt>
<rscale>  0 0.10121935E+03</rscale>
<asrwt>0</asrwt>
<pdfrwt beam="1">  1        1 0.45478694E-01 0.10121935E+03</pdfrwt>
<pdfrwt beam="2">  1       -1 0.13330069E-02 0.10121935E+03</pdfrwt>
<totfact> 0.96551136E+04</totfact>
</mgrwt>
</event>
<event>
 7    1  0.3345055E-009  0.9187058E+02  0.7818608E-02  0.1298384E+00
         -1   -1    0    0    0  501 -0.00000000000E+00  0.00000000000E+00  0.11249826261E+02  0.11249827390E+02  0.50400000000E-02 0.  1.
          1   -1    0    0  501    0  0.00000000000E+00 -0.00000000000E+00 -0.18756294603E+03  0.18756294609E+03  0.50400000000E-02 0. -1.
         23    2    1    2    0    0 -0.35527136788E-14 -0.71054273576E-14 -0.17631311977E+03  0.19881277348E+03  0.91870575807E+02 0.  0.
    9000005    2    3    3    0    0  0.23174700083E+02  0.38533488345E+02 -0.72647888479E+02  0.85815531812E+02  0.80432177405E+01 0.  0.
         22    1    3    3    0    0 -0.23174700083E+02 -0.38533488345E+02 -0.10366523129E+03  0.11299724167E+03  0.00000000000E+00 0. -1.
         22    1    4    4    0    0  0.21811053527E+02  0.37965756247E+02 -0.67478300622E+02  0.80439056174E+02  0.00000000000E+00 0.  1.
         22    1    4    4    0    0  0.13636465561E+01  0.56773209833E+00 -0.51695878578E+01  0.53764756379E+01  0.00000000000E+00 0.  1.
<mgrwt>
<rscale>  0 0.91870576E+02</rscale>
<asrwt>0</asrwt>
<pdfrwt beam="2">  1        1 0.28855836E-01 0.91870576E+02</pdfrwt>
<pdfrwt beam="1">  1       -1 0.17307427E-02 0.91870576E+02</pdfrwt>
<totfact> 0.11458717E+05</totfact>
</mgrwt>
</event>
<event>
 7    1  0.3345055E-009  0.9226277E+02  0.7818608E-02  0.1297463E+00
          1   -1    0    0  501    0  0.00000000000E+00  0.00000000000E+00  0.28127923029E+02  0.28127923480E+02  0.50400000000E-02 0. -1.
         -1   -1    0    0    0  501 -0.00000000000E+00 -0.00000000000E+00 -0.75658076600E+02  0.75658076768E+02  0.50400000000E-02 0.  1.
         23    2    1    2    0    0 -0.17763568394E-14  0.00000000000E+00 -0.47530153572E+02  0.10378600025E+03  0.92262767946E+02 0.  0.
    9000005    2    3    3    0    0  0.12322529274E+02  0.43375925677E+02 -0.19427292920E+02  0.50653275560E+02  0.12450660973E+02 0.  0.
         22    1    3    3    0    0 -0.12322529274E+02 -0.43375925677E+02 -0.28102860651E+02  0.53132724689E+02  0.00000000000E+00 0.  1.
         22    1    4    4    0    0  0.59852550606E+01  0.11241607417E+02 -0.33167223197E+00  0.12739977313E+02  0.00000000000E+00 0.  1.
         22    1    4    4    0    0  0.63372742132E+01  0.32134318260E+02 -0.19095620688E+02  0.37913298247E+02  0.00000000000E+00 0.  1.
<mgrwt>
<rscale>  0 0.92262768E+02</rscale>
<asrwt>0</asrwt>
<pdfrwt beam="1">  1        1 0.43273729E-02 0.92262768E+02</pdfrwt>
<pdfrwt beam="2">  1       -1 0.11639704E-01 0.92262768E+02</pdfrwt>
<totfact> 0.82895561E+04</totfact>
</mgrwt>
</event>
<event>
 7    1  0.3345055E-009  0.9122000E+02  0.7818608E-02  0.1299924E+00
          1   -1    0    0  501    0  0.00000000000E+00  0.00000000000E+00  0.78322577273E+03  0.78322577275E+03  0.50400000000E-02 0. -1.
         -1   -1    0    0    0  501 -0.00000000000E+00 -0.00000000000E+00 -0.26560289433E+01  0.26560337252E+01  0.50400000000E-02 0.  1.
         23    2    1    2    0    0  0.00000000000E+00  0.00000000000E+00  0.78056974379E+03  0.78588180647E+03  0.91220002344E+02 0.  0.
    9000005    2    3    3    0    0 -0.56199313145E+01 -0.94253270709E+01  0.77162306662E+03  0.77172329488E+03  0.58537584494E+01 0.  0.
         22    1    3    3    0    0  0.56199313145E+01  0.94253270709E+01  0.89466771625E+01  0.14158511596E+02  0.00000000000E+00 0.  1.
         22    1    4    4    0    0 -0.82858675115E+00 -0.57141749230E+01  0.25870610991E+03  0.25877053475E+03  0.00000000000E+00 0.  1.
         22    1    4    4    0    0 -0.47913445634E+01 -0.37111521479E+01  0.51291695672E+03  0.51295276013E+03  0.00000000000E+00 0.  1.
<mgrwt>
<rscale>  0 0.91220002E+02</rscale>
<asrwt>0</asrwt>
<pdfrwt beam="1">  1        1 0.12049620E+00 0.91220002E+02</pdfrwt>
<pdfrwt beam="2">  1       -1 0.40862045E-03 0.91220002E+02</pdfrwt>
<totfact> 0.14136277E+05</totfact>
</mgrwt>
</event>
<event>
 7    1  0.3345055E-009  0.8465974E+02  0.7818608E-02  0.1316325E+00
          1   -1    0    0  501    0  0.00000000000E+00  0.00000000000E+00  0.21685986591E+02  0.21685987176E+02  0.50400000000E-02 0. -1.
         -1   -1    0    0    0  501 -0.00000000000E+00 -0.00000000000E+00 -0.82625606067E+02  0.82625606221E+02  0.50400000000E-02 0.  1.
         23    2    1    2    0    0  0.00000000000E+00  0.00000000000E+00 -0.60939619477E+02  0.10431159340E+03  0.84659738336E+02 0.  0.
    9000005    2    3    3    0    0  0.21084026523E+02 -0.51998638839E+01 -0.74221578909E+02  0.78856039874E+02  0.15422629156E+02 0.  0.
         22    1    3    3    0    0 -0.21084026523E+02  0.51998638839E+01  0.13281959432E+02  0.25455553523E+02  0.00000000000E+00 0. -1.
         22    1    4    4    0    0  0.16173440314E+02 -0.95295972311E+01 -0.64178256713E+02  0.66867346513E+02  0.00000000000E+00 0.  1.
         22    1    4    4    0    0  0.49105862093E+01  0.43297333472E+01 -0.10043322196E+02  0.11988693361E+02  0.00000000000E+00 0.  1.
<mgrwt>
<rscale>  0 0.84659738E+02</rscale>
<asrwt>0</asrwt>
<pdfrwt beam="1">  1        1 0.33363057E-02 0.84659738E+02</pdfrwt>
<pdfrwt beam="2">  1       -1 0.12711632E-01 0.84659738E+02</pdfrwt>
<totfact> 0.10177104E+05</totfact>
</mgrwt>
</event>
<event>
 7    1  0.3345055E-009  0.9011702E+02  0.7818608E-02  0.1302569E+00
         -1   -1    0    0    0  501 -0.00000000000E+00  0.00000000000E+00  0.22505276957E+02  0.22505277521E+02  0.50400000000E-02 0.  1.
          1   -1    0    0  501    0  0.00000000000E+00 -0.00000000000E+00 -0.90213031915E+02  0.90213032055E+02  0.50400000000E-02 0. -1.
         23    2    1    2    0    0  0.00000000000E+00  0.35527136788E-14 -0.67707754958E+02  0.11271830958E+03  0.90117019660E+02 0.  0.
    9000005    2    3    3    0    0 -0.31202334390E+02  0.30056112367E+02 -0.46943155400E+02  0.64675368818E+02  0.10113749596E+02 0.  0.
         22    1    3    3    0    0  0.31202334390E+02 -0.30056112367E+02 -0.20764599558E+02  0.48042940759E+02  0.00000000000E+00 0.  1.
         22    1    4    4    0    0 -0.14007357904E+02  0.10966357266E+02 -0.26129306370E+02  0.31610247049E+02  0.00000000000E+00 0.  1.
         22    1    4    4    0    0 -0.17194976486E+02  0.19089755100E+02 -0.20813849030E+02  0.33065121769E+02  0.00000000000E+00 0.  1.
<mgrwt>
<rscale>  0 0.90117020E+02</rscale>
<asrwt>0</asrwt>
<pdfrwt beam="2">  1        1 0.13878928E-01 0.90117020E+02</pdfrwt>
<pdfrwt beam="1">  1       -1 0.34623504E-02 0.90117020E+02</pdfrwt>
<totfact> 0.10603108E+05</totfact>
</mgrwt>
</event>
<event>
 7    1  0.3345055E-009  0.9071597E+02  0.7818608E-02  0.1301127E+00
          1   -1    0    0  501    0  0.00000000000E+00  0.00000000000E+00  0.68954747629E+03  0.68954747631E+03  0.50400000000E-02 0. -1.
         -1   -1    0    0    0  501 -0.00000000000E+00 -0.00000000000E+00 -0.29836167594E+01  0.29836210162E+01  0.50400000000E-02 0.  1.
         23    2    1    2    0    0  0.71054273576E-14  0.00000000000E+00  0.68656385953E+03  0.69253109732E+03  0.90715971847E+02 0.  0.
    9000005    2    3    3    0    0  0.26903808792E+02 -0.22041415241E+02  0.56413831895E+03  0.56526110126E+03  0.76440022114E+01 0.  0.
         22    1    3    3    0    0 -0.26903808792E+02  0.22041415241E+02  0.12242554057E+03  0.12726999606E+03  0.00000000000E+00 0.  1.
         22    1    4    4    0    0  0.22462996383E+02 -0.14405249273E+02  0.44060642193E+03  0.44141377013E+03  0.00000000000E+00 0. -1.
         22    1    4    4    0    0  0.44408124088E+01 -0.76361659679E+01  0.12353189702E+03  0.12384733113E+03  0.00000000000E+00 0. -1.
<mgrwt>
<rscale>  0 0.90715972E+02</rscale>
<asrwt>0</asrwt>
<pdfrwt beam="1">  1        1 0.10608435E+00 0.90715972E+02</pdfrwt>
<pdfrwt beam="2">  1       -1 0.45901778E-03 0.90715972E+02</pdfrwt>
<totfact> 0.14410467E+05</totfact>
</mgrwt>
</event>
<event>
 7    1  0.3345055E-009  0.9748368E+02  0.7818608E-02  0.1285678E+00
          1   -1    0    0  501    0  0.00000000000E+00  0.00000000000E+00  0.39737013170E+02  0.39737013490E+02  0.50400000000E-02 0. -1.
         -1   -1    0    0    0  501 -0.00000000000E+00 -0.00000000000E+00 -0.59787252374E+02  0.59787252586E+02  0.50400000000E-02 0.  1.
         23    2    1    2    0    0  0.00000000000E+00 -0.44408920985E-15 -0.20050239204E+02  0.99524266076E+02  0.97483677843E+02 0.  0.
    9000005    2    3    3    0    0 -0.48124348533E+02  0.34257570067E+01 -0.16316196235E+02  0.51133855769E+02  0.45567766528E+01 0.  0.
         22    1    3    3    0    0  0.48124348533E+02 -0.34257570067E+01 -0.37340429690E+01  0.48390410307E+02  0.00000000000E+00 0. -1.
         22    1    4    4    0    0 -0.13625102035E+01 -0.55563118064E+00 -0.79858504110E-01  0.14736137364E+01  0.00000000000E+00 0.  1.
         22    1    4    4    0    0 -0.46761838329E+02  0.39813881874E+01 -0.16236337730E+02  0.49660242033E+02  0.00000000000E+00 0.  1.
<mgrwt>
<rscale>  0 0.97483678E+02</rscale>
<asrwt>0</asrwt>
<pdfrwt beam="1">  1        1 0.61133867E-02 0.97483678E+02</pdfrwt>
<pdfrwt beam="2">  1       -1 0.91980388E-02 0.97483678E+02</pdfrwt>
<totfact> 0.74880677E+04</totfact>
</mgrwt>
</event>
<event>
 7    1  0.3345055E-009  0.9239902E+02  0.7818608E-02  0.1297144E+00
          1   -1    0    0  501    0  0.00000000000E+00  0.00000000000E+00  0.12468971457E+02  0.12468972476E+02  0.50400000000E-02 0. -1.
         -1   -1    0    0    0  501 -0.00000000000E+00 -0.00000000000E+00 -0.17117647110E+03  0.17117647117E+03  0.50400000000E-02 0.  1.
         23    2    1    2    0    0  0.00000000000E+00  0.00000000000E+00 -0.15870749964E+03  0.18364544365E+03  0.92399018018E+02 0.  0.
    9000005    2    3    3    0    0  0.63988254938E+01  0.25408573156E+02 -0.15425258393E+03  0.15706750484E+03  0.13776823651E+02 0.  0.
         22    1    3    3    0    0 -0.63988254938E+01 -0.25408573156E+02 -0.44549157145E+01  0.26577938813E+02  0.00000000000E+00 0. -1.
         22    1    4    4    0    0  0.51744587190E+01  0.26066654321E+02 -0.12557468715E+03  0.12835594082E+03  0.00000000000E+00 0. -1.
         22    1    4    4    0    0  0.12243667748E+01 -0.65808116541E+00 -0.28677896778E+02  0.28711564019E+02  0.00000000000E+00 0. -1.
<mgrwt>
<rscale>  0 0.92399018E+02</rscale>
<asrwt>0</asrwt>
<pdfrwt beam="1">  1        1 0.19183035E-02 0.92399018E+02</pdfrwt>
<pdfrwt beam="2">  1       -1 0.26334840E-01 0.92399018E+02</pdfrwt>
<totfact> 0.69943653E+04</totfact>
</mgrwt>
</event>
<event>
 7    1  0.3345055E-009  0.9925850E+02  0.7818608E-02  0.1281863E+00
         -1   -1    0    0    0  501 -0.00000000000E+00  0.00000000000E+00  0.52605718246E+01  0.52605742390E+01  0.50400000000E-02 0.  1.
          1   -1    0    0  501    0  0.00000000000E+00 -0.00000000000E+00 -0.46821176800E+03  0.46821176803E+03  0.50400000000E-02 0. -1.
         23    2    1    2    0    0  0.00000000000E+00  0.00000000000E+00 -0.46295119618E+03  0.47347234227E+03  0.99258495106E+02 0.  0.
    9000005    2    3    3    0    0 -0.37344141927E+02 -0.13527356179E+02 -0.37336794089E+03  0.37547880203E+03  0.17712097974E+01 0.  0.
         22    1    3    3    0    0  0.37344141927E+02  0.13527356179E+02 -0.89583255284E+02  0.97993540240E+02  0.00000000000E+00 0.  1.
         22    1    4    4    0    0 -0.74866283444E+01 -0.29588655558E+01 -0.82222079286E+02  0.82615221427E+02  0.00000000000E+00 0.  1.
         22    1    4    4    0    0 -0.29857513583E+02 -0.10568490623E+02 -0.29114586161E+03  0.29286358060E+03  0.00000000000E+00 0.  1.
<mgrwt>
<rscale>  0 0.99258495E+02</rscale>
<asrwt>0</asrwt>
<pdfrwt beam="2">  1        1 0.72032547E-01 0.99258495E+02</pdfrwt>
<pdfrwt beam="1">  1       -1 0.80931930E-03 0.99258495E+02</pdfrwt>
<totfact> 0.11015565E+05</totfact>
</mgrwt>
</event>
<event>
 7    1  0.3345055E-009  0.9089012E+02  0.7818608E-02  0.1300710E+00
          1   -1    0    0  501    0  0.00000000000E+00  0.00000000000E+00  0.11545681341E+02  0.11545682441E+02  0.50400000000E-02 0. -1.
         -1   -1    0    0    0  501 -0.00000000000E+00 -0.00000000000E+00 -0.17887671473E+03  0.17887671481E+03  0.50400000000E-02 0.  1.
         23    2    1    2    0    0  0.00000000000E+00  0.00000000000E+00 -0.16733103339E+03  0.19042239725E+03  0.90890123976E+02 0.  0.
    9000005    2    3    3    0    0  0.17857316152E+02  0.38110388699E+02 -0.11375247139E+03  0.12229055613E+03  0.15622736809E+02 0.  0.
         22    1    3    3    0    0 -0.17857316152E+02 -0.38110388699E+02 -0.53578562006E+02  0.68131841114E+02  0.00000000000E+00 0. -1.
         22    1    4    4    0    0  0.15791271331E+02  0.17063249039E+02 -0.50460056662E+02  0.55558402032E+02  0.00000000000E+00 0.  1.
         22    1    4    4    0    0  0.20660448212E+01  0.21047139660E+02 -0.63292414725E+02  0.66732154100E+02  0.00000000000E+00 0.  1.
<mgrwt>
<rscale>  0 0.90890124E+02</rscale>
<asrwt>0</asrwt>
<pdfrwt beam="1">  1        1 0.17762589E-02 0.90890124E+02</pdfrwt>
<pdfrwt beam="2">  1       -1 0.27519493E-01 0.90890124E+02</pdfrwt>
<totfact> 0.72176891E+04</totfact>
</mgrwt>
</event>
<event>
 7    1  0.3345055E-009  0.8821121E+02  0.7818608E-02  0.1307242E+00
         -1   -1    0    0    0  501 -0.00000000000E+00  0.00000000000E+00  0.31046530406E+02  0.31046530815E+02  0.50400000000E-02 0.  1.
          1   -1    0    0  501    0  0.00000000000E+00 -0.00000000000E+00 -0.62657709996E+02  0.62657710199E+02  0.50400000000E-02 0. -1.
         23    2    1    2    0    0  0.00000000000E+00  0.22204460493E-15 -0.31611179590E+02  0.93704241014E+02  0.88211213056E+02 0.  0.
    9000005    2    3    3    0    0  0.21777445361E+02  0.55491672117E+00 -0.56219401102E+02  0.60838915441E+02  0.81355708338E+01 0.  0.
         22    1    3    3    0    0 -0.21777445361E+02 -0.55491672117E+00  0.24608221512E+02  0.32865325573E+02  0.00000000000E+00 0.  1.
         22    1    4    4    0    0  0.68964186081E+01  0.38278032857E+01 -0.16229382344E+02  0.18044542634E+02  0.00000000000E+00 0. -1.
         22    1    4    4    0    0  0.14881026753E+02 -0.32728865646E+01 -0.39990018758E+02  0.42794372807E+02  0.00000000000E+00 0. -1.
<mgrwt>
<rscale>  0 0.88211213E+02</rscale>
<asrwt>0</asrwt>
<pdfrwt beam="2">  1        1 0.96396477E-02 0.88211213E+02</pdfrwt>
<pdfrwt beam="1">  1       -1 0.47763894E-02 0.88211213E+02</pdfrwt>
<totfact> 0.10627707E+05</totfact>
</mgrwt>
</event>
<event>
 7    1  0.3345055E-009  0.9166675E+02  0.7818608E-02  0.1298865E+00
         -1   -1    0    0    0  501 -0.00000000000E+00  0.00000000000E+00  0.25046561192E+02  0.25046561699E+02  0.50400000000E-02 0.  1.
          1   -1    0    0  501    0  0.00000000000E+00 -0.00000000000E+00 -0.83871714797E+02  0.83871714949E+02  0.50400000000E-02 0. -1.
         23    2    1    2    0    0  0.00000000000E+00  0.00000000000E+00 -0.58825153606E+02  0.10891827665E+03  0.91666745831E+02 0.  0.
    9000005    2    3    3    0    0 -0.34138215640E+02  0.47892734515E+01  0.51495931422E+01  0.36246940285E+02  0.99482392040E+01 0.  0.
         22    1    3    3    0    0  0.34138215640E+02 -0.47892734515E+01 -0.63974746748E+02  0.72671336362E+02  0.00000000000E+00 0. -1.
         22    1    4    4    0    0 -0.32005021833E+02  0.68487906551E+01  0.36747690092E+01  0.32935258967E+02  0.00000000000E+00 0. -1.
         22    1    4    4    0    0 -0.21331938067E+01 -0.20595172036E+01  0.14748241330E+01  0.33116813181E+01  0.00000000000E+00 0. -1.
<mgrwt>
<rscale>  0 0.91666746E+02</rscale>
<asrwt>0</asrwt>
<pdfrwt beam="2">  1        1 0.12903341E-01 0.91666746E+02</pdfrwt>
<pdfrwt beam="1">  1       -1 0.38533172E-02 0.91666746E+02</pdfrwt>
<totfact> 0.10002046E+05</totfact>
</mgrwt>
</event>
<event>
 7    1  0.3345055E-009  0.9389340E+02  0.7818608E-02  0.1293688E+00
         -1   -1    0    0    0  501 -0.00000000000E+00  0.00000000000E+00  0.24622495635E+03  0.24622495640E+03  0.50400000000E-02 0.  1.
          1   -1    0    0  501    0  0.00000000000E+00 -0.00000000000E+00 -0.89511338526E+01  0.89511352715E+01  0.50400000000E-02 0. -1.
         23    2    1    2    0    0  0.00000000000E+00  0.44408920985E-15  0.23727382250E+03  0.25517609168E+03  0.93893401893E+02 0.  0.
    9000005    2    3    3    0    0 -0.41241587921E+02  0.21952166964E+01  0.66307830242E+02  0.79292442466E+02  0.13596894138E+02 0.  0.
         22    1    3    3    0    0  0.41241587921E+02 -0.21952166964E+01  0.17096599226E+03  0.17588364921E+03  0.00000000000E+00 0.  1.
         22    1    4    4    0    0 -0.37117470619E+02 -0.21919568428E+01  0.59879808531E+02  0.70484769771E+02  0.00000000000E+00 0. -1.
         22    1    4    4    0    0 -0.41241173021E+01  0.43871735392E+01  0.64280217117E+01  0.88076726955E+01  0.00000000000E+00 0. -1.
<mgrwt>
<rscale>  0 0.93893402E+02</rscale>
<asrwt>0</asrwt>
<pdfrwt beam="2">  1        1 0.13770977E-02 0.93893402E+02</pdfrwt>
<pdfrwt beam="1">  1       -1 0.37880760E-01 0.93893402E+02</pdfrwt>
<totfact> 0.60286827E+04</totfact>
</mgrwt>
</event>
<event>
 7    1  0.3345055E-009  0.8876006E+02  0.7818608E-02  0.1305882E+00
          1   -1    0    0  501    0  0.00000000000E+00  0.00000000000E+00  0.11016951774E+04  0.11016951775E+04  0.50400000000E-02 0. -1.
         -1   -1    0    0    0  501 -0.00000000000E+00 -0.00000000000E+00 -0.17877749354E+01  0.17877820396E+01  0.50400000000E-02 0.  1.
         23    2    1    2    0    0  0.00000000000E+00  0.00000000000E+00  0.10999074025E+04  0.11034829595E+04  0.88760057475E+02 0.  0.
    9000005    2    3    3    0    0  0.21174182015E+02 -0.12611277370E+01  0.10343998853E+04  0.10346267961E+04  0.44213197267E+01 0.  0.
         22    1    3    3    0    0 -0.21174182015E+02  0.12611277370E+01  0.65507517243E+02  0.68856163431E+02  0.00000000000E+00 0.  1.
         22    1    4    4    0    0  0.20065371702E+02 -0.14107922163E+01  0.10110980866E+04  0.10112981509E+04  0.00000000000E+00 0.  1.
         22    1    4    4    0    0  0.11088103129E+01  0.14966447922E+00  0.23301798710E+02  0.23328645115E+02  0.00000000000E+00 0.  1.
<mgrwt>
<rscale>  0 0.88760057E+02</rscale>
<asrwt>0</asrwt>
<pdfrwt beam="1">  1        1 0.16949137E+00 0.88760057E+02</pdfrwt>
<pdfrwt beam="2">  1       -1 0.27504317E-03 0.88760057E+02</pdfrwt>
<totfact> 0.14162637E+05</totfact>
</mgrwt>
</event>
<event>
 7    1  0.3345055E-009  0.9349493E+02  0.7818608E-02  0.1294602E+00
         -1   -1    0    0    0  501 -0.00000000000E+00  0.00000000000E+00  0.35373456435E+02  0.35373456794E+02  0.50400000000E-02 0.  1.
          1   -1    0    0  501    0  0.00000000000E+00 -0.00000000000E+00 -0.61778674539E+02  0.61778674745E+02  0.50400000000E-02 0. -1.
         23    2    1    2    0    0  0.22204460493E-15 -0.71054273576E-14 -0.26405218104E+02  0.97152131539E+02  0.93494925634E+02 0.  0.
    9000005    2    3    3    0    0 -0.14848511357E+01  0.40188504119E+02  0.94726025671E+01  0.43258359521E+02  0.12815413487E+02 0.  0.
         22    1    3    3    0    0  0.14848511357E+01 -0.40188504119E+02 -0.35877820671E+02  0.53893772018E+02  0.00000000000E+00 0. -1.
         22    1    4    4    0    0 -0.32486658265E+01  0.47342539677E+01 -0.17936512523E+01  0.60153283450E+01  0.00000000000E+00 0.  1.
         22    1    4    4    0    0  0.17638146907E+01  0.35454250151E+02  0.11266253819E+02  0.37243031176E+02  0.00000000000E+00 0.  1.
<mgrwt>
<rscale>  0 0.93494926E+02</rscale>
<asrwt>0</asrwt>
<pdfrwt beam="2">  1        1 0.95044115E-02 0.93494926E+02</pdfrwt>
<pdfrwt beam="1">  1       -1 0.54420703E-02 0.93494926E+02</pdfrwt>
<totfact> 0.90276773E+04</totfact>
</mgrwt>
</event>
<event>
 7    1  0.3345055E-009  0.9027601E+02  0.7818608E-02  0.1302185E+00
         -1   -1    0    0    0  501 -0.00000000000E+00  0.00000000000E+00  0.19895287568E+02  0.19895288207E+02  0.50400000000E-02 0.  1.
          1   -1    0    0  501    0  0.00000000000E+00 -0.00000000000E+00 -0.10240813216E+03  0.10240813228E+03  0.50400000000E-02 0. -1.
         23    2    1    2    0    0  0.00000000000E+00 -0.88817841970E-15 -0.82512844587E+02  0.12230342049E+03  0.90276005344E+02 0.  0.
    9000005    2    3    3    0    0 -0.41101192298E+02  0.78342395179E+01 -0.61174457351E+02  0.75335238842E+02  0.13505578922E+02 0.  0.
         22    1    3    3    0    0  0.41101192298E+02 -0.78342395179E+01 -0.21338387236E+02  0.46968181645E+02  0.00000000000E+00 0.  1.
         22    1    4    4    0    0 -0.81830469601E+01  0.17330934623E+01 -0.23451904250E+02  0.24898949445E+02  0.00000000000E+00 0. -1.
         22    1    4    4    0    0 -0.32918145338E+02  0.61011460557E+01 -0.37722553101E+02  0.50436289397E+02  0.00000000000E+00 0. -1.
<mgrwt>
<rscale>  0 0.90276005E+02</rscale>
<asrwt>0</asrwt>
<pdfrwt beam="2">  1        1 0.15755097E-01 0.90276005E+02</pdfrwt>
<pdfrwt beam="1">  1       -1 0.30608136E-02 0.90276005E+02</pdfrwt>
<totfact> 0.10773852E+05</totfact>
</mgrwt>
</event>
<event>
 7    1  0.3345055E-009  0.8579224E+02  0.7818608E-02  0.1313374E+00
         -1   -1    0    0    0  501 -0.00000000000E+00  0.00000000000E+00  0.25107860828E+02  0.25107861334E+02  0.50400000000E-02 0.  1.
          1   -1    0    0  501    0  0.00000000000E+00 -0.00000000000E+00 -0.73286887674E+02  0.73286887847E+02  0.50400000000E-02 0. -1.
         23    2    1    2    0    0  0.88817841970E-15  0.00000000000E+00 -0.48179026846E+02  0.98394749181E+02  0.85792237636E+02 0.  0.
    9000005    2    3    3    0    0  0.61518548676E+01  0.33311001970E+02 -0.53368249266E+02  0.64125284641E+02  0.10789528718E+02 0.  0.
         22    1    3    3    0    0 -0.61518548676E+01 -0.33311001970E+02  0.51892224203E+01  0.34269464540E+02  0.00000000000E+00 0.  1.
         22    1    4    4    0    0 -0.21474056586E+01  0.48913428949E+01 -0.13075889575E+02  0.14124994674E+02  0.00000000000E+00 0. -1.
         22    1    4    4    0    0  0.82992605262E+01  0.28419659075E+02 -0.40292359691E+02  0.50000289966E+02  0.00000000000E+00 0. -1.
<mgrwt>
<rscale>  0 0.85792238E+02</rscale>
<asrwt>0</asrwt>
<pdfrwt beam="2">  1        1 0.11274906E-01 0.85792238E+02</pdfrwt>
<pdfrwt beam="1">  1       -1 0.38627479E-02 0.85792238E+02</pdfrwt>
<totfact> 0.11740128E+05</totfact>
</mgrwt>
</event>
<event>
 7    1  0.3345055E-009  0.9098510E+02  0.7818608E-02  0.1300484E+00
         -1   -1    0    0    0  501 -0.00000000000E+00  0.00000000000E+00  0.39007903949E+02  0.39007904275E+02  0.50400000000E-02 0.  1.
          1   -1    0    0  501    0  0.00000000000E+00 -0.00000000000E+00 -0.53055193487E+02  0.53055193726E+02  0.50400000000E-02 0. -1.
         23    2    1    2    0    0  0.00000000000E+00 -0.35527136788E-14 -0.14047289538E+02  0.92063098001E+02  0.90985095868E+02 0.  0.
    9000005    2    3    3    0    0 -0.38857329553E+02  0.18787428410E+02  0.30454820521E+01  0.45640879539E+02  0.14524303699E+02 0.  0.
         22    1    3    3    0    0  0.38857329553E+02 -0.18787428410E+02 -0.17092771590E+02  0.46422218461E+02  0.00000000000E+00 0. -1.
         22    1    4    4    0    0 -0.16872725548E+02  0.72104029006E+01 -0.58362180405E+01  0.19254615510E+02  0.00000000000E+00 0.  1.
         22    1    4    4    0    0 -0.21984604005E+02  0.11577025509E+02  0.88817000927E+01  0.26386264030E+02  0.00000000000E+00 0.  1.
<mgrwt>
<rscale>  0 0.90985096E+02</rscale>
<asrwt>0</asrwt>
<pdfrwt beam="2">  1        1 0.81623375E-02 0.90985096E+02</pdfrwt>
<pdfrwt beam="1">  1       -1 0.60012160E-02 0.90985096E+02</pdfrwt>
<totfact> 0.95159338E+04</totfact>
</mgrwt>
</event>
<event>
 7    1  0.3345055E-009  0.9099069E+02  0.7818608E-02  0.1300470E+00
          1   -1    0    0  501    0  0.00000000000E+00  0.00000000000E+00  0.23847518803E+01  0.23847572062E+01  0.50400000000E-02 0. -1.
         -1   -1    0    0    0  501 -0.00000000000E+00 -0.00000000000E+00 -0.86794115529E+03  0.86794115530E+03  0.50400000000E-02 0.  1.
         23    2    1    2    0    0  0.00000000000E+00  0.00000000000E+00 -0.86555640341E+03  0.87032591251E+03  0.90990694602E+02 0.  0.
    9000005    2    3    3    0    0 -0.46944314637E+01 -0.19166873490E+02 -0.82413595868E+03  0.82444498001E+03  0.10956273829E+02 0.  0.
         22    1    3    3    0    0  0.46944314637E+01  0.19166873490E+02 -0.41420444722E+02  0.45880932501E+02  0.00000000000E+00 0. -1.
         22    1    4    4    0    0  0.25719400644E+01 -0.65124166627E+01 -0.39245568594E+03  0.39251814210E+03  0.00000000000E+00 0.  1.
         22    1    4    4    0    0 -0.72663715281E+01 -0.12654456827E+02 -0.43168027274E+03  0.43192683791E+03  0.00000000000E+00 0.  1.
<mgrwt>
<rscale>  0 0.90990695E+02</rscale>
<asrwt>0</asrwt>
<pdfrwt beam="1">  1        1 0.36688601E-03 0.90990695E+02</pdfrwt>
<pdfrwt beam="2">  1       -1 0.13352916E+00 0.90990695E+02</pdfrwt>
<totfact> 0.30243973E+04</totfact>
</mgrwt>
</event>
<event>
 7    1  0.3345055E-009  0.9056152E+02  0.7818608E-02  0.1301498E+00
         -1   -1    0    0    0  501 -0.00000000000E+00  0.00000000000E+00  0.66100864769E+01  0.66100883983E+01  0.50400000000E-02 0.  1.
          1   -1    0    0  501    0  0.00000000000E+00 -0.00000000000E+00 -0.31018457117E+03  0.31018457121E+03  0.50400000000E-02 0. -1.
         23    2    1    2    0    0  0.00000000000E+00  0.00000000000E+00 -0.30357448469E+03  0.31679465961E+03  0.90561518319E+02 0.  0.
    9000005    2    3    3    0    0 -0.22120929776E+01  0.38348252586E+02 -0.23442745305E+03  0.23769476190E+03  0.81906814074E+01 0.  0.
         22    1    3    3    0    0  0.22120929776E+01 -0.38348252586E+02 -0.69147031645E+02  0.79099897706E+02  0.00000000000E+00 0.  1.
         22    1    4    4    0    0  0.22661188544E+00  0.30489711611E+02 -0.19913903972E+03  0.20145975034E+03  0.00000000000E+00 0. -1.
         22    1    4    4    0    0 -0.24387048630E+01  0.78585409751E+01 -0.35288413325E+02  0.36235011559E+02  0.00000000000E+00 0. -1.
<mgrwt>
<rscale>  0 0.90561518E+02</rscale>
<asrwt>0</asrwt>
<pdfrwt beam="2">  1        1 0.47720692E-01 0.90561518E+02</pdfrwt>
<pdfrwt beam="1">  1       -1 0.10169368E-02 0.90561518E+02</pdfrwt>
<totfact> 0.13128053E+05</totfact>
</mgrwt>
</event>
<event>
 7    1  0.3345055E-009  0.9310207E+02  0.7818608E-02  0.1295509E+00
         -1   -1    0    0    0  501 -0.00000000000E+00  0.00000000000E+00  0.10311813808E+04  0.10311813808E+04  0.50400000000E-02 0.  1.
          1   -1    0    0  501    0  0.00000000000E+00 -0.00000000000E+00 -0.21014690387E+01  0.21014750825E+01  0.50400000000E-02 0. -1.
         23    2    1    2    0    0  0.88817841970E-15  0.00000000000E+00  0.10290799118E+04  0.10332828559E+04  0.93102070308E+02 0.  0.
    9000005    2    3    3    0    0 -0.76442095623E+01  0.17871912381E+02  0.98351580945E+03  0.98374573232E+03  0.86301356653E+01 0.  0.
         22    1    3    3    0    0  0.76442095623E+01 -0.17871912381E+02  0.45564102318E+02  0.49537123575E+02  0.00000000000E+00 0. -1.
         22    1    4    4    0    0 -0.62188054003E+01  0.43757211651E+01  0.39837734696E+03  0.39844991033E+03  0.00000000000E+00 0. -1.
         22    1    4    4    0    0 -0.14254041620E+01  0.13496191216E+02  0.58513846249E+03  0.58529582199E+03  0.00000000000E+00 0. -1.
<mgrwt>
<rscale>  0 0.93102070E+02</rscale>
<asrwt>0</asrwt>
<pdfrwt beam="2">  1        1 0.32330377E-03 0.93102070E+02</pdfrwt>
<pdfrwt beam="1">  1       -1 0.15864310E+00 0.93102070E+02</pdfrwt>
<totfact> 0.23372412E+04</totfact>
</mgrwt>
</event>
<event>
 7    1  0.3345055E-009  0.1177999E+03  0.7818608E-02  0.1246771E+00
         -1   -1    0    0    0  501 -0.00000000000E+00  0.00000000000E+00  0.11282511560E+02  0.11282512686E+02  0.50400000000E-02 0.  1.
          1   -1    0    0  501    0  0.00000000000E+00 -0.00000000000E+00 -0.30748511989E+03  0.30748511993E+03  0.50400000000E-02 0. -1.
         23    2    1    2    0    0  0.00000000000E+00  0.00000000000E+00 -0.29620260833E+03  0.31876763262E+03  0.11779990842E+03 0.  0.
    9000005    2    3    3    0    0  0.46903662005E+02  0.24750496907E+02 -0.21341997322E+03  0.22045433096E+03  0.15475350206E+02 0.  0.
         22    1    3    3    0    0 -0.46903662005E+02 -0.24750496907E+02 -0.82782635111E+02  0.98313301656E+02  0.00000000000E+00 0.  1.
         22    1    4    4    0    0  0.53654785749E+01 -0.63700825443E+00 -0.10904085482E+02  0.12169355778E+02  0.00000000000E+00 0.  1.
         22    1    4    4    0    0  0.41538183430E+02  0.25387505161E+02 -0.20251588774E+03  0.20828497519E+03  0.00000000000E+00 0.  1.
<mgrwt>
<rscale>  0 0.11779991E+03</rscale>
<asrwt>0</asrwt>
<pdfrwt beam="2">  1        1 0.47305397E-01 0.11779991E+03</pdfrwt>
<pdfrwt beam="1">  1       -1 0.17357713E-02 0.11779991E+03</pdfrwt>
<totfact> 0.64447728E+04</totfact>
</mgrwt>
</event>
<event>
 7    1  0.3345055E-009  0.8390355E+02  0.7818608E-02  0.1318325E+00
          1   -1    0    0  501    0  0.00000000000E+00  0.00000000000E+00  0.22604449656E+02  0.22604450218E+02  0.50400000000E-02 0. -1.
         -1   -1    0    0    0  501 -0.00000000000E+00 -0.00000000000E+00 -0.77858624227E+02  0.77858624390E+02  0.50400000000E-02 0.  1.
         23    2    1    2    0    0 -0.35527136788E-14  0.00000000000E+00 -0.55254174571E+02  0.10046307461E+03  0.83903549104E+02 0.  0.
    9000005    2    3    3    0    0 -0.19159511096E+02  0.32602371042E+02 -0.92595185482E+01  0.40918890629E+02  0.12594263121E+02 0.  0.
         22    1    3    3    0    0  0.19159511096E+02 -0.32602371042E+02 -0.45994656023E+02  0.59544183979E+02  0.00000000000E+00 0.  1.
         22    1    4    4    0    0 -0.16799006551E+02  0.29589546668E+02 -0.37800032196E+01  0.34235015956E+02  0.00000000000E+00 0.  1.
         22    1    4    4    0    0 -0.23605045457E+01  0.30128243739E+01 -0.54795153286E+01  0.66838746738E+01  0.00000000000E+00 0.  1.
<mgrwt>
<rscale>  0 0.83903549E+02</rscale>
<asrwt>0</asrwt>
<pdfrwt beam="1">  1        1 0.34776077E-02 0.83903549E+02</pdfrwt>
<pdfrwt beam="2">  1       -1 0.11978250E-01 0.83903549E+02</pdfrwt>
<totfact> 0.10514751E+05</totfact>
</mgrwt>
</event>
<event>
 7    1  0.3345055E-009  0.9163416E+02  0.7818608E-02  0.1298942E+00
          1   -1    0    0  501    0  0.00000000000E+00  0.00000000000E+00  0.84302451944E+02  0.84302452095E+02  0.50400000000E-02 0. -1.
         -1   -1    0    0    0  501 -0.00000000000E+00 -0.00000000000E+00 -0.24900876041E+02  0.24900876551E+02  0.50400000000E-02 0.  1.
         23    2    1    2    0    0  0.71054273576E-14  0.00000000000E+00  0.59401575904E+02  0.10920332865E+03  0.91634162666E+02 0.  0.
    9000005    2    3    3    0    0 -0.43640950316E+02 -0.11519454359E+02  0.33093034099E+02  0.56959958300E+02  0.10585724842E+02 0.  0.
         22    1    3    3    0    0  0.43640950316E+02  0.11519454359E+02  0.26308541805E+02  0.52243370346E+02  0.00000000000E+00 0.  1.
         22    1    4    4    0    0 -0.76085939646E+01 -0.56059427043E+01  0.39565682059E+01  0.10245571126E+02  0.00000000000E+00 0.  1.
         22    1    4    4    0    0 -0.36032356352E+02 -0.59135116544E+01  0.29136465893E+02  0.46714387174E+02  0.00000000000E+00 0.  1.
<mgrwt>
<rscale>  0 0.91634163E+02</rscale>
<asrwt>0</asrwt>
<pdfrwt beam="1">  1        1 0.12969608E-01 0.91634163E+02</pdfrwt>
<pdfrwt beam="2">  1       -1 0.38309041E-02 0.91634163E+02</pdfrwt>
<totfact> 0.10020028E+05</totfact>
</mgrwt>
</event>
<event>
 7    1  0.3345055E-009  0.9167392E+02  0.7818608E-02  0.1298848E+00
          1   -1    0    0  501    0  0.00000000000E+00  0.00000000000E+00  0.11419449947E+02  0.11419451060E+02  0.50400000000E-02 0. -1.
         -1   -1    0    0    0  501 -0.00000000000E+00 -0.00000000000E+00 -0.18398669863E+03  0.18398669870E+03  0.50400000000E-02 0.  1.
         23    2    1    2    0    0 -0.17763568394E-14  0.00000000000E+00 -0.17256724869E+03  0.19540614976E+03  0.91673922387E+02 0.  0.
    9000005    2    3    3    0    0  0.12292720549E+02 -0.32266525943E+02 -0.14862334070E+03  0.15338769662E+03  0.15705043709E+02 0.  0.
         22    1    3    3    0    0 -0.12292720549E+02  0.32266525943E+02 -0.23943907983E+02  0.42018453142E+02  0.00000000000E+00 0. -1.
         22    1    4    4    0    0  0.13222154684E+02 -0.14861356291E+02 -0.65377376736E+02  0.68336569084E+02  0.00000000000E+00 0.  1.
         22    1    4    4    0    0 -0.92943413511E+00 -0.17405169652E+02 -0.83245963967E+02  0.85051127537E+02  0.00000000000E+00 0.  1.
<mgrwt>
<rscale>  0 0.91673922E+02</rscale>
<asrwt>0</asrwt>
<pdfrwt beam="1">  1        1 0.17568387E-02 0.91673922E+02</pdfrwt>
<pdfrwt beam="2">  1       -1 0.28305644E-01 0.91673922E+02</pdfrwt>
<totfact> 0.70052503E+04</totfact>
</mgrwt>
</event>
<event>
 7    1  0.3345055E-009  0.1194623E+03  0.7818608E-02  0.1243987E+00
         -1   -1    0    0    0  501 -0.00000000000E+00  0.00000000000E+00  0.58210110060E+02  0.58210110278E+02  0.50400000000E-02 0.  1.
          1   -1    0    0  501    0  0.00000000000E+00 -0.00000000000E+00 -0.61291894322E+02  0.61291894529E+02  0.50400000000E-02 0. -1.
         23    2    1    2    0    0  0.00000000000E+00  0.71054273576E-14 -0.30817842620E+01  0.11950200481E+03  0.11946226081E+03 0.  0.
    9000005    2    3    3    0    0 -0.45140614362E+02  0.37585834460E+02  0.82515443451E+01  0.59678812363E+02  0.65652603853E+01 0.  0.
         22    1    3    3    0    0  0.45140614362E+02 -0.37585834460E+02 -0.11333328607E+02  0.59823192445E+02  0.00000000000E+00 0. -1.
         22    1    4    4    0    0 -0.91880438580E+01  0.52837860791E+01  0.32623504067E+01  0.11089701323E+02  0.00000000000E+00 0.  1.
         22    1    4    4    0    0 -0.35952570504E+02  0.32302048381E+02  0.49891939384E+01  0.48589111039E+02  0.00000000000E+00 0.  1.
<mgrwt>
<rscale>  0 0.11946226E+03</rscale>
<asrwt>0</asrwt>
<pdfrwt beam="2">  1        1 0.94295222E-02 0.11946226E+03</pdfrwt>
<pdfrwt beam="1">  1       -1 0.89554016E-02 0.11946226E+03</pdfrwt>
<totfact> 0.44971259E+04</totfact>
</mgrwt>
</event>
<event>
 7    1  0.3345055E-009  0.9252640E+02  0.7818608E-02  0.1296846E+00
          1   -1    0    0  501    0  0.00000000000E+00  0.00000000000E+00  0.42808882132E+02  0.42808882429E+02  0.50400000000E-02 0. -1.
         -1   -1    0    0    0  501 -0.00000000000E+00 -0.00000000000E+00 -0.49996256613E+02  0.49996256867E+02  0.50400000000E-02 0.  1.
         23    2    1    2    0    0  0.00000000000E+00  0.00000000000E+00 -0.71873744803E+01  0.92805139296E+02  0.92526404490E+02 0.  0.
    9000005    2    3    3    0    0 -0.93395748568E+01  0.18203355149E+02 -0.44752953951E+02  0.50029415361E+02  0.90291592578E+01 0.  0.
         22    1    3    3    0    0  0.93395748568E+01 -0.18203355149E+02  0.37565579470E+02  0.42775723934E+02  0.00000000000E+00 0. -1.
         22    1    4    4    0    0 -0.90720839036E+01  0.12047809444E+02 -0.23685262501E+02  0.28079246402E+02  0.00000000000E+00 0. -1.
         22    1    4    4    0    0 -0.26749095320E+00  0.61555457049E+01 -0.21067691449E+02  0.21950168959E+02  0.00000000000E+00 0. -1.
<mgrwt>
<rscale>  0 0.92526404E+02</rscale>
<asrwt>0</asrwt>
<pdfrwt beam="1">  1        1 0.65859819E-02 0.92526404E+02</pdfrwt>
<pdfrwt beam="2">  1       -1 0.76917318E-02 0.92526404E+02</pdfrwt>
<totfact> 0.87880392E+04</totfact>
</mgrwt>
</event>
<event>
 7    1  0.3345055E-009  0.8604122E+02  0.7818608E-02  0.1312732E+00
         -1   -1    0    0    0  501 -0.00000000000E+00  0.00000000000E+00  0.31037984575E+01  0.31038025495E+01  0.50400000000E-02 0.  1.
          1   -1    0    0  501    0  0.00000000000E+00 -0.00000000000E+00 -0.59629244843E+03  0.59629244845E+03  0.50400000000E-02 0. -1.
         23    2    1    2    0    0  0.00000000000E+00  0.00000000000E+00 -0.59318864998E+03  0.59939625100E+03  0.86041218365E+02 0.  0.
    9000005    2    3    3    0    0 -0.22050775471E+02 -0.21670875245E+02 -0.50181836524E+03  0.50293697221E+03  0.12963903376E+02 0.  0.
         22    1    3    3    0    0  0.22050775471E+02  0.21670875245E+02 -0.91370284735E+02  0.96459278793E+02  0.00000000000E+00 0.  1.
         22    1    4    4    0    0  0.78931234807E+00 -0.52690295959E+00 -0.66735999289E+02  0.66742746736E+02  0.00000000000E+00 0.  1.
         22    1    4    4    0    0 -0.22840087819E+02 -0.21143972286E+02 -0.43508236595E+03  0.43619422547E+03  0.00000000000E+00 0.  1.
<mgrwt>
<rscale>  0 0.86041218E+02</rscale>
<asrwt>0</asrwt>
<pdfrwt beam="2">  1        1 0.91737209E-01 0.86041218E+02</pdfrwt>
<pdfrwt beam="1">  1       -1 0.47750825E-03 0.86041218E+02</pdfrwt>
<totfact> 0.16493032E+05</totfact>
</mgrwt>
</event>
<event>
 7    1  0.3345055E-009  0.9141679E+02  0.7818608E-02  0.1299457E+00
          1   -1    0    0  501    0  0.00000000000E+00  0.00000000000E+00  0.85861483643E+02  0.85861483791E+02  0.50400000000E-02 0. -1.
         -1   -1    0    0    0  501 -0.00000000000E+00 -0.00000000000E+00 -0.24332879427E+02  0.24332879949E+02  0.50400000000E-02 0.  1.
         23    2    1    2    0    0  0.88817841970E-15  0.00000000000E+00  0.61528604216E+02  0.11019436374E+03  0.91416785456E+02 0.  0.
    9000005    2    3    3    0    0  0.42597935258E+01 -0.36124510013E+02  0.47863145645E+00  0.39129426967E+02  0.14413774737E+02 0.  0.
         22    1    3    3    0    0 -0.42597935258E+01  0.36124510013E+02  0.61049972760E+02  0.71064936773E+02  0.00000000000E+00 0. -1.
         22    1    4    4    0    0 -0.12883346930E+01 -0.31020878246E+02  0.29714023957E+01  0.31189484215E+02  0.00000000000E+00 0. -1.
         22    1    4    4    0    0  0.55481282188E+01 -0.51036317667E+01 -0.24927709393E+01  0.79399427516E+01  0.00000000000E+00 0. -1.
<mgrwt>
<rscale>  0 0.91416785E+02</rscale>
<asrwt>0</asrwt>
<pdfrwt beam="1">  1        1 0.13209459E-01 0.91416785E+02</pdfrwt>
<pdfrwt beam="2">  1       -1 0.37435200E-02 0.91416785E+02</pdfrwt>
<totfact> 0.10115228E+05</totfact>
</mgrwt>
</event>
<event>
 7    1  0.3345055E-009  0.8878249E+02  0.7818608E-02  0.1305827E+00
          1   -1    0    0  501    0  0.00000000000E+00  0.00000000000E+00  0.17681593347E+02  0.17681594066E+02  0.50400000000E-02 0.  1.
         -1   -1    0    0    0  501 -0.00000000000E+00 -0.00000000000E+00 -0.11144823779E+03  0.11144823791E+03  0.50400000000E-02 0. -1.
         23    2    1    2    0    0  0.55511151231E-16  0.71054273576E-14 -0.93766644445E+02  0.12912983197E+03  0.88782486419E+02 0.  0.
    9000005    2    3    3    0    0  0.38353612797E+00 -0.42964498092E+02 -0.42868382479E+02  0.62521061773E+02  0.15002991456E+02 0.  0.
         22    1    3    3    0    0 -0.38353612797E+00  0.42964498092E+02 -0.50898261966E+02  0.66608770199E+02  0.00000000000E+00 0.  1.
         22    1    4    4    0    0 -0.12998630233E+01 -0.19752230845E+02 -0.98109010968E+01  0.22092850599E+02  0.00000000000E+00 0.  1.
         22    1    4    4    0    0  0.16833991513E+01 -0.23212267247E+02 -0.33057481382E+02  0.40428211175E+02  0.00000000000E+00 0.  1.
<mgrwt>
<rscale>  0 0.88782486E+02</rscale>
<asrwt>0</asrwt>
<pdfrwt beam="1">  1        1 0.27202453E-02 0.88782486E+02</pdfrwt>
<pdfrwt beam="2">  1       -1 0.17145882E-01 0.88782486E+02</pdfrwt>
<totfact> 0.85362178E+04</totfact>
</mgrwt>
</event>
<event>
 7    1  0.3345055E-009  0.9315042E+02  0.7818608E-02  0.1295397E+00
         -1   -1    0    0    0  501 -0.00000000000E+00  0.00000000000E+00  0.25198661571E+02  0.25198662075E+02  0.50400000000E-02 0.  1.
          1   -1    0    0  501    0  0.00000000000E+00 -0.00000000000E+00 -0.86085923668E+02  0.86085923816E+02  0.50400000000E-02 0. -1.
         23    2    1    2    0    0  0.00000000000E+00  0.71054273576E-14 -0.60887262097E+02  0.11128458589E+03  0.93150417988E+02 0.  0.
    9000005    2    3    3    0    0  0.39125316624E+01  0.39630538318E+02 -0.58977352940E+02  0.71415610179E+02  0.59978117733E+01 0.  0.
         22    1    3    3    0    0 -0.39125316624E+01 -0.39630538318E+02 -0.19099091575E+01  0.39868975713E+02  0.00000000000E+00 0.  1.
         22    1    4    4    0    0  0.74892752327E+00  0.29235430660E+02 -0.40050231402E+02  0.49591252592E+02  0.00000000000E+00 0.  1.
         22    1    4    4    0    0  0.31636041391E+01  0.10395107658E+02 -0.18927121538E+02  0.21824357587E+02  0.00000000000E+00 0.  1.
<mgrwt>
<rscale>  0 0.93150418E+02</rscale>
<asrwt>0</asrwt>
<pdfrwt beam="2">  1        1 0.13243988E-01 0.93150418E+02</pdfrwt>
<pdfrwt beam="1">  1       -1 0.38767173E-02 0.93150418E+02</pdfrwt>
<totfact> 0.96108036E+04</totfact>
</mgrwt>
</event>
<event>
 7    1  0.3345055E-009  0.9200667E+02  0.7818608E-02  0.1298064E+00
          1   -1    0    0  501    0  0.00000000000E+00  0.00000000000E+00  0.89849627722E+03  0.89849627723E+03  0.50400000000E-02 0. -1.
         -1   -1    0    0    0  501 -0.00000000000E+00 -0.00000000000E+00 -0.23553844945E+01  0.23553898867E+01  0.50400000000E-02 0.  1.
         23    2    1    2    0    0  0.00000000000E+00  0.00000000000E+00  0.89614089272E+03  0.90085166712E+03  0.92006665734E+02 0.  0.
    9000005    2    3    3    0    0  0.38089965918E+02 -0.32213004913E+01  0.68975339559E+03  0.69095402241E+03  0.14017563225E+02 0.  0.
         22    1    3    3    0    0 -0.38089965918E+02  0.32213004913E+01  0.20638749713E+03  0.20989764470E+03  0.00000000000E+00 0.  1.
         22    1    4    4    0    0  0.54115375005E+01  0.11712151992E+01  0.42193843066E+02  0.42555573970E+02  0.00000000000E+00 0. -1.
         22    1    4    4    0    0  0.32678428417E+02 -0.43925156905E+01  0.64755955253E+03  0.64839844845E+03  0.00000000000E+00 0. -1.
<mgrwt>
<rscale>  0 0.92006666E+02</rscale>
<asrwt>0</asrwt>
<pdfrwt beam="1">  1        1 0.13823028E+00 0.92006666E+02</pdfrwt>
<pdfrwt beam="2">  1       -1 0.36236705E-03 0.92006666E+02</pdfrwt>
<totfact> 0.13592036E+05</totfact>
</mgrwt>
</event>
<event>
 7    1  0.3345055E-009  0.8981597E+02  0.7818608E-02  0.1303298E+00
         -1   -1    0    0    0  501 -0.00000000000E+00  0.00000000000E+00  0.28467143113E+03  0.28467143117E+03  0.50400000000E-02 0. -1.
          1   -1    0    0  501    0  0.00000000000E+00 -0.00000000000E+00 -0.70844020219E+01  0.70844038146E+01  0.50400000000E-02 0.  1.
         23    2    1    2    0    0  0.00000000000E+00  0.17763568394E-14  0.27758702911E+03  0.29175583499E+03  0.89815970301E+02 0.  0.
    9000005    2    3    3    0    0  0.27822284330E+02 -0.14222301621E+02  0.24143360980E+03  0.24397065845E+03  0.15973129836E+02 0.  0.
         22    1    3    3    0    0 -0.27822284330E+02  0.14222301621E+02  0.36153419306E+02  0.47785176533E+02  0.00000000000E+00 0.  1.
         22    1    4    4    0    0  0.20075437879E+02 -0.12977504112E+02  0.12450382970E+03  0.12677792564E+03  0.00000000000E+00 0. -1.
         22    1    4    4    0    0  0.77468464517E+01 -0.12447975091E+01  0.11692978010E+03  0.11719273282E+03  0.00000000000E+00 0. -1.
<mgrwt>
<rscale>  0 0.89815970E+02</rscale>
<asrwt>0</asrwt>
<pdfrwt beam="2">  1        1 0.10899084E-02 0.89815970E+02</pdfrwt>
<pdfrwt beam="1">  1       -1 0.43795594E-01 0.89815970E+02</pdfrwt>
<totfact> 0.64299458E+04</totfact>
</mgrwt>
</event>
<event>
 7    1  0.3345055E-009  0.9059415E+02  0.7818608E-02  0.1301419E+00
          1   -1    0    0  501    0  0.00000000000E+00  0.00000000000E+00  0.18661250276E+03  0.18661250282E+03  0.50400000000E-02 0. -1.
         -1   -1    0    0    0  501 -0.00000000000E+00 -0.00000000000E+00 -0.10995109303E+02  0.10995110458E+02  0.50400000000E-02 0.  1.
         23    2    1    2    0    0  0.22204460493E-15  0.35527136788E-14  0.17561739345E+03  0.19760761328E+03  0.90594149611E+02 0.  0.
    9000005    2    3    3    0    0 -0.16141548177E+01 -0.29745306488E+02  0.16171111208E+03  0.16473249479E+03  0.99459699269E+01 0.  0.
         22    1    3    3    0    0  0.16141548177E+01  0.29745306488E+02  0.13906281375E+02  0.32875118487E+02  0.00000000000E+00 0.  1.
         22    1    4    4    0    0  0.14070053373E+01 -0.30539455620E+01  0.37476733032E+02  0.37627274234E+02  0.00000000000E+00 0. -1.
         22    1    4    4    0    0 -0.30211601550E+01 -0.26691360926E+02  0.12423437905E+03  0.12710522056E+03  0.00000000000E+00 0. -1.
<mgrwt>
<rscale>  0 0.90594150E+02</rscale>
<asrwt>0</asrwt>
<pdfrwt beam="1">  1        1 0.28709615E-01 0.90594150E+02</pdfrwt>
<pdfrwt beam="2">  1       -1 0.16915554E-02 0.90594150E+02</pdfrwt>
<totfact> 0.11885908E+05</totfact>
</mgrwt>
</event>
<event>
 6    1  0.3345055E-009  0.3785287E+03  0.7818608E-02  0.1051479E+00
         -1   -1    0    0    0  501 -0.00000000000E+00  0.00000000000E+00  0.54413850356E+03  0.54413850359E+03  0.50400000000E-02 0.  1.
          1   -1    0    0  501    0  0.00000000000E+00 -0.00000000000E+00 -0.65830656356E+02  0.65830656549E+02  0.50400000000E-02 0. -1.
    9000005    2    1    2    0    0  0.68743305748E+02  0.98005884921E+02  0.37514839305E+01  0.12054650282E+03  0.13659800405E+02 0.  0.
         22    1    1    2    0    0 -0.68743305748E+02 -0.98005884921E+02  0.47455636328E+03  0.48942265731E+03  0.00000000000E+00 0.  1.
         22    1    3    3    0    0  0.21246491477E+02  0.20364305085E+02 -0.43162619307E+00  0.29433053237E+02  0.00000000000E+00 0. -1.
         22    1    3    3    0    0  0.47496814270E+02  0.77641579836E+02  0.41831101235E+01  0.91113449586E+02  0.00000000000E+00 0. -1.
<mgrwt>
<rscale>  0 0.37852870E+03</rscale>
<asrwt>0</asrwt>
<pdfrwt beam="2">  1        1 0.10127793E-01 0.37852870E+03</pdfrwt>
<pdfrwt beam="1">  1       -1 0.83713616E-01 0.37852870E+03</pdfrwt>
<totfact> 0.93824339E+02</totfact>
</mgrwt>
</event>
<event>
 7    1  0.3345055E-009  0.9266113E+02  0.7818608E-02  0.1296532E+00
          1   -1    0    0  501    0  0.00000000000E+00  0.00000000000E+00  0.90564885280E+02  0.90564885420E+02  0.50400000000E-02 0. -1.
         -1   -1    0    0    0  501 -0.00000000000E+00 -0.00000000000E+00 -0.23701472166E+02  0.23701472702E+02  0.50400000000E-02 0.  1.
         23    2    1    2    0    0  0.00000000000E+00 -0.35527136788E-14  0.66863413114E+02  0.11426635812E+03  0.92661127693E+02 0.  0.
    9000005    2    3    3    0    0 -0.49682339699E+01 -0.30046653895E+02 -0.78357249297E+01  0.33597615827E+02  0.11828628198E+02 0.  0.
         22    1    3    3    0    0  0.49682339699E+01  0.30046653895E+02  0.74699138044E+02  0.80668742295E+02  0.00000000000E+00 0. -1.
         22    1    4    4    0    0 -0.35822044884E+01 -0.27836631333E+02 -0.31601505276E+01  0.28243526415E+02  0.00000000000E+00 0.  1.
         22    1    4    4    0    0 -0.13860294815E+01 -0.22100225612E+01 -0.46755744021E+01  0.53540894123E+01  0.00000000000E+00 0.  1.
<mgrwt>
<rscale>  0 0.92661128E+02</rscale>
<asrwt>0</asrwt>
<pdfrwt beam="1">  1        1 0.13933059E-01 0.92661128E+02</pdfrwt>
<pdfrwt beam="2">  1       -1 0.36463804E-02 0.92661128E+02</pdfrwt>
<totfact> 0.98317640E+04</totfact>
</mgrwt>
</event>
<event>
 7    1  0.3345055E-009  0.9108551E+02  0.7818608E-02  0.1300244E+00
         -1   -1    0    0    0  501 -0.00000000000E+00  0.00000000000E+00  0.91582511019E+02  0.91582511158E+02  0.50400000000E-02 0.  1.
          1   -1    0    0  501    0  0.00000000000E+00 -0.00000000000E+00 -0.22647800943E+02  0.22647801503E+02  0.50400000000E-02 0. -1.
         23    2    1    2    0    0  0.00000000000E+00  0.00000000000E+00  0.68934710076E+02  0.11423031266E+03  0.91085509700E+02 0.  0.
    9000005    2    3    3    0    0  0.42692239854E+02  0.21713717786E+01  0.49465266681E+02  0.67257965207E+02  0.15794906673E+02 0.  0.
         22    1    3    3    0    0 -0.42692239854E+02 -0.21713717786E+01  0.19469443396E+02  0.46972347454E+02  0.00000000000E+00 0. -1.
         22    1    4    4    0    0 -0.11331407138E+01  0.32949277696E+00  0.36240712922E+01  0.38113601376E+01  0.00000000000E+00 0. -1.
         22    1    4    4    0    0  0.43825380568E+02  0.18418790016E+01  0.45841195388E+02  0.63446605070E+02  0.00000000000E+00 0. -1.
<mgrwt>
<rscale>  0 0.91085510E+02</rscale>
<asrwt>0</asrwt>
<pdfrwt beam="2">  1        1 0.34842771E-02 0.91085510E+02</pdfrwt>
<pdfrwt beam="1">  1       -1 0.14089617E-01 0.91085510E+02</pdfrwt>
<totfact> 0.82898529E+04</totfact>
</mgrwt>
</event>
<event>
 7    1  0.3345055E-009  0.9269205E+02  0.7818608E-02  0.1296460E+00
          1   -1    0    0  501    0  0.00000000000E+00  0.00000000000E+00  0.14756350643E+03  0.14756350651E+03  0.50400000000E-02 0. -1.
         -1   -1    0    0    0  501 -0.00000000000E+00 -0.00000000000E+00 -0.14556131796E+02  0.14556132668E+02  0.50400000000E-02 0.  1.
         23    2    1    2    0    0  0.00000000000E+00  0.00000000000E+00  0.13300737463E+03  0.16211963918E+03  0.92692047673E+02 0.  0.
    9000005    2    3    3    0    0  0.34242352870E+02 -0.19554169362E+02  0.10856769509E+03  0.11572780579E+03  0.71467716814E+01 0.  0.
         22    1    3    3    0    0 -0.34242352870E+02  0.19554169362E+02  0.24439679538E+02  0.46391833392E+02  0.00000000000E+00 0.  1.
         22    1    4    4    0    0  0.74058188989E+01 -0.13885689162E+01  0.17009185185E+02  0.18603404469E+02  0.00000000000E+00 0. -1.
         22    1    4    4    0    0  0.26836533971E+02 -0.18165600445E+02  0.91558509907E+02  0.97124401319E+02  0.00000000000E+00 0. -1.
<mgrwt>
<rscale>  0 0.92692048E+02</rscale>
<asrwt>0</asrwt>
<pdfrwt beam="1">  1        1 0.22702077E-01 0.92692048E+02</pdfrwt>
<pdfrwt beam="2">  1       -1 0.22394051E-02 0.92692048E+02</pdfrwt>
<totfact> 0.10692381E+05</totfact>
</mgrwt>
</event>
<event>
 7    1  0.3345055E-009  0.8347452E+02  0.7818608E-02  0.1319471E+00
         -1   -1    0    0    0  501 -0.00000000000E+00  0.00000000000E+00  0.54006715861E+01  0.54006739378E+01  0.50400000000E-02 0.  1.
          1   -1    0    0  501    0  0.00000000000E+00 -0.00000000000E+00 -0.32255216496E+03  0.32255216500E+03  0.50400000000E-02 0. -1.
         23    2    1    2    0    0  0.00000000000E+00  0.00000000000E+00 -0.31715149337E+03  0.32795283893E+03  0.83474515977E+02 0.  0.
    9000005    2    3    3    0    0  0.34923568647E+02  0.19335821080E+02 -0.19491999855E+03  0.19936797221E+03  0.12659102861E+02 0.  0.
         22    1    3    3    0    0 -0.34923568647E+02 -0.19335821080E+02 -0.12223149482E+03  0.12858486673E+03  0.00000000000E+00 0.  1.
         22    1    4    4    0    0  0.11553135849E+02  0.43005151428E+00 -0.64566124636E+02  0.65593020534E+02  0.00000000000E+00 0.  1.
         22    1    4    4    0    0  0.23370432798E+02  0.18905769566E+02 -0.13035387391E+03  0.13377495167E+03  0.00000000000E+00 0.  1.
<mgrwt>
<rscale>  0 0.83474516E+02</rscale>
<asrwt>0</asrwt>
<pdfrwt beam="2">  1        1 0.49623395E-01 0.83474516E+02</pdfrwt>
<pdfrwt beam="1">  1       -1 0.83087299E-03 0.83474516E+02</pdfrwt>
<totfact> 0.16409028E+05</totfact>
</mgrwt>
</event>
<event>
 7    1  0.3345055E-009  0.8671417E+02  0.7818608E-02  0.1311010E+00
         -1   -1    0    0    0  501 -0.00000000000E+00  0.00000000000E+00  0.14344040421E+03  0.14344040430E+03  0.50400000000E-02 0.  1.
          1   -1    0    0  501    0  0.00000000000E+00 -0.00000000000E+00 -0.13105350391E+02  0.13105351360E+02  0.50400000000E-02 0. -1.
         23    2    1    2    0    0  0.00000000000E+00  0.00000000000E+00  0.13033505382E+03  0.15654575566E+03  0.86714170472E+02 0.  0.
    9000005    2    3    3    0    0  0.14355761298E+02  0.11666863149E+02  0.13534099176E+03  0.13738164877E+03  0.14640006527E+02 0.  0.
         22    1    3    3    0    0 -0.14355761298E+02 -0.11666863149E+02 -0.50059379369E+01  0.19164106888E+02  0.00000000000E+00 0. -1.
         22    1    4    4    0    0  0.77594145831E+01  0.93329280836E+01  0.11884331909E+03  0.11946148565E+03  0.00000000000E+00 0.  1.
         22    1    4    4    0    0  0.65963467147E+01  0.23339350658E+01  0.16497672667E+02  0.17920163122E+02  0.00000000000E+00 0.  1.
<mgrwt>
<rscale>  0 0.86714170E+02</rscale>
<asrwt>0</asrwt>
<pdfrwt beam="2">  1        1 0.20162077E-02 0.86714170E+02</pdfrwt>
<pdfrwt beam="1">  1       -1 0.22067756E-01 0.86714170E+02</pdfrwt>
<totfact> 0.86046223E+04</totfact>
</mgrwt>
</event>
<event>
 7    1  0.3345055E-009  0.8961442E+02  0.7818608E-02  0.1303788E+00
          1   -1    0    0  501    0  0.00000000000E+00  0.00000000000E+00  0.46115386558E+02  0.46115386834E+02  0.50400000000E-02 0. -1.
         -1   -1    0    0    0  501 -0.00000000000E+00 -0.00000000000E+00 -0.43536138171E+02  0.43536138463E+02  0.50400000000E-02 0.  1.
         23    2    1    2    0    0 -0.35527136788E-14  0.00000000000E+00  0.25792483870E+01  0.89651525297E+02  0.89614415502E+02 0.  0.
    9000005    2    3    3    0    0  0.23059727239E+02 -0.32216911638E+02 -0.19627037721E+02  0.44233472074E+02  0.13034669932E+01 0.  0.
         22    1    3    3    0    0 -0.23059727239E+02  0.32216911638E+02  0.22206286108E+02  0.45418053223E+02  0.00000000000E+00 0. -1.
         22    1    4    4    0    0  0.18333080101E+02 -0.24860949269E+02 -0.15648490575E+02  0.34627213025E+02  0.00000000000E+00 0.  1.
         22    1    4    4    0    0  0.47266471378E+01 -0.73559623686E+01 -0.39785471451E+01  0.96062590491E+01  0.00000000000E+00 0.  1.
<mgrwt>
<rscale>  0 0.89614416E+02</rscale>
<asrwt>0</asrwt>
<pdfrwt beam="1">  1        1 0.70946749E-02 0.89614416E+02</pdfrwt>
<pdfrwt beam="2">  1       -1 0.66978675E-02 0.89614416E+02</pdfrwt>
<totfact> 0.97224219E+04</totfact>
</mgrwt>
</event>
<event>
 7    1  0.3345055E-009  0.9193013E+02  0.7818608E-02  0.1298244E+00
         -1   -1    0    0    0  501 -0.00000000000E+00  0.00000000000E+00  0.54839244310E+02  0.54839244542E+02  0.50400000000E-02 0.  1.
          1   -1    0    0  501    0  0.00000000000E+00 -0.00000000000E+00 -0.38526919453E+02  0.38526919783E+02  0.50400000000E-02 0. -1.
         23    2    1    2    0    0  0.00000000000E+00  0.00000000000E+00  0.16312324857E+02  0.93366164324E+02  0.91930129438E+02 0.  0.
    9000005    2    3    3    0    0 -0.33064442425E+02 -0.10146807756E+02 -0.20536233528E+02  0.42828739424E+02  0.14708805954E+02 0.  0.
         22    1    3    3    0    0  0.33064442425E+02  0.10146807756E+02  0.36848558386E+02  0.50537424901E+02  0.00000000000E+00 0.  1.
         22    1    4    4    0    0 -0.29535290811E+02 -0.38260070115E+01 -0.13380696124E+02  0.32649881496E+02  0.00000000000E+00 0. -1.
         22    1    4    4    0    0 -0.35291516137E+01 -0.63208007444E+01 -0.71555374042E+01  0.10178857927E+02  0.00000000000E+00 0. -1.
<mgrwt>
<rscale>  0 0.91930129E+02</rscale>
<asrwt>0</asrwt>
<pdfrwt beam="2">  1        1 0.59272184E-02 0.91930129E+02</pdfrwt>
<pdfrwt beam="1">  1       -1 0.84368068E-02 0.91930129E+02</pdfrwt>
<totfact> 0.88068381E+04</totfact>
</mgrwt>
</event>
<event>
 7    1  0.3345055E-009  0.8087728E+02  0.7818608E-02  0.1326580E+00
          1   -1    0    0  501    0  0.00000000000E+00  0.00000000000E+00  0.39901926993E+02  0.39901927311E+02  0.50400000000E-02 0. -1.
         -1   -1    0    0    0  501 -0.00000000000E+00 -0.00000000000E+00 -0.40982575399E+02  0.40982575709E+02  0.50400000000E-02 0.  1.
         23    2    1    2    0    0  0.00000000000E+00  0.00000000000E+00 -0.10806484061E+01  0.80884503020E+02  0.80877283756E+02 0.  0.
    9000005    2    3    3    0    0 -0.11428464234E+02  0.26947361502E+02  0.26109614991E+02  0.40933526683E+02  0.11707754913E+02 0.  0.
         22    1    3    3    0    0  0.11428464234E+02 -0.26947361502E+02 -0.27190263397E+02  0.39950976336E+02  0.00000000000E+00 0.  1.
         22    1    4    4    0    0 -0.10953205297E+02  0.26577447770E+02  0.20537052999E+02  0.35328515142E+02  0.00000000000E+00 0.  1.
         22    1    4    4    0    0 -0.47525893626E+00  0.36991373179E+00  0.55725619917E+01  0.56050115412E+01  0.00000000000E+00 0.  1.
<mgrwt>
<rscale>  0 0.80877284E+02</rscale>
<asrwt>0</asrwt>
<pdfrwt beam="1">  1        1 0.61387581E-02 0.80877284E+02</pdfrwt>
<pdfrwt beam="2">  1       -1 0.63050116E-02 0.80877284E+02</pdfrwt>
<totfact> 0.12669875E+05</totfact>
</mgrwt>
</event>
<event>
 7    1  0.3345055E-009  0.9085432E+02  0.7818608E-02  0.1300796E+00
          1   -1    0    0  501    0  0.00000000000E+00  0.00000000000E+00  0.20294276802E+02  0.20294277428E+02  0.50400000000E-02 0. -1.
         -1   -1    0    0    0  501 -0.00000000000E+00 -0.00000000000E+00 -0.10168515855E+03  0.10168515867E+03  0.50400000000E-02 0.  1.
         23    2    1    2    0    0  0.71054273576E-14  0.88817841970E-15 -0.81390881745E+02  0.12197943610E+03  0.90854318556E+02 0.  0.
    9000005    2    3    3    0    0 -0.38034989070E+02 -0.73275188849E+01 -0.11205492877E+02  0.41814969303E+02  0.11071389281E+02 0.  0.
         22    1    3    3    0    0  0.38034989070E+02  0.73275188849E+01 -0.70185388868E+02  0.80164466798E+02  0.00000000000E+00 0.  1.
         22    1    4    4    0    0 -0.22264640036E+02  0.91807030911E+00 -0.41244756817E+01  0.22662046437E+02  0.00000000000E+00 0. -1.
         22    1    4    4    0    0 -0.15770349033E+02 -0.82455891940E+01 -0.70810171958E+01  0.19152922866E+02  0.00000000000E+00 0. -1.
<mgrwt>
<rscale>  0 0.90854319E+02</rscale>
<asrwt>0</asrwt>
<pdfrwt beam="1">  1        1 0.31221966E-02 0.90854319E+02</pdfrwt>
<pdfrwt beam="2">  1       -1 0.15643870E-01 0.90854319E+02</pdfrwt>
<totfact> 0.81860866E+04</totfact>
</mgrwt>
</event>
<event>
 7    1  0.3345055E-009  0.9302872E+02  0.7818608E-02  0.1295679E+00
         -1   -1    0    0    0  501 -0.00000000000E+00  0.00000000000E+00  0.57894380015E+02  0.57894380235E+02  0.50400000000E-02 0.  1.
          1   -1    0    0  501    0  0.00000000000E+00 -0.00000000000E+00 -0.37371258250E+02  0.37371258590E+02  0.50400000000E-02 0. -1.
         23    2    1    2    0    0  0.00000000000E+00  0.00000000000E+00  0.20523121765E+02  0.95265638825E+02  0.93028723595E+02 0.  0.
    9000005    2    3    3    0    0  0.27795462407E+02 -0.12527666306E+02  0.45908266674E+02  0.55592779896E+02  0.73115028589E+01 0.  0.
         22    1    3    3    0    0 -0.27795462407E+02  0.12527666306E+02 -0.25385144910E+02  0.39672858929E+02  0.00000000000E+00 0. -1.
         22    1    4    4    0    0  0.21163372408E+02 -0.12760244614E+02  0.36544254919E+02  0.44115697227E+02  0.00000000000E+00 0.  1.
         22    1    4    4    0    0  0.66320899995E+01  0.23257830865E+00  0.93640117554E+01  0.11477082669E+02  0.00000000000E+00 0.  1.
<mgrwt>
<rscale>  0 0.93028724E+02</rscale>
<asrwt>0</asrwt>
<pdfrwt beam="2">  1        1 0.57494244E-02 0.93028724E+02</pdfrwt>
<pdfrwt beam="1">  1       -1 0.89068277E-02 0.93028724E+02</pdfrwt>
<totfact> 0.84742959E+04</totfact>
</mgrwt>
</event>
<event>
 7    1  0.3345055E-009  0.9314765E+02  0.7818608E-02  0.1295403E+00
          1   -1    0    0  501    0  0.00000000000E+00  0.00000000000E+00  0.37228604381E+03  0.37228604385E+03  0.50400000000E-02 0. -1.
         -1   -1    0    0    0  501 -0.00000000000E+00 -0.00000000000E+00 -0.58264894225E+01  0.58264916024E+01  0.50400000000E-02 0.  1.
         23    2    1    2    0    0  0.00000000000E+00  0.00000000000E+00  0.36645955439E+03  0.37811253545E+03  0.93147648709E+02 0.  0.
    9000005    2    3    3    0    0 -0.45481536476E+02 -0.66567725738E+01  0.19834784394E+03  0.20382992022E+03  0.95857393591E+01 0.  0.
         22    1    3    3    0    0  0.45481536476E+02  0.66567725738E+01  0.16811171045E+03  0.17428261523E+03  0.00000000000E+00 0.  1.
         22    1    4    4    0    0 -0.38897949093E+02 -0.28032511536E+01  0.15602572340E+03  0.16082579091E+03  0.00000000000E+00 0. -1.
         22    1    4    4    0    0 -0.65835873835E+01 -0.38535214202E+01  0.42322120545E+02  0.43004129309E+02  0.00000000000E+00 0. -1.
<mgrwt>
<rscale>  0 0.93147649E+02</rscale>
<asrwt>0</asrwt>
<pdfrwt beam="1">  1        1 0.57274775E-01 0.93147649E+02</pdfrwt>
<pdfrwt beam="2">  1       -1 0.89638318E-03 0.93147649E+02</pdfrwt>
<totfact> 0.12589340E+05</totfact>
</mgrwt>
</event>
<event>
 7    1  0.3345055E-009  0.9826524E+02  0.7818608E-02  0.1283987E+00
         -1   -1    0    0    0  501 -0.00000000000E+00  0.00000000000E+00  0.12052929031E+03  0.12052929041E+03  0.50400000000E-02 0.  1.
          1   -1    0    0  501    0  0.00000000000E+00 -0.00000000000E+00 -0.20028447111E+02  0.20028447745E+02  0.50400000000E-02 0. -1.
         23    2    1    2    0    0 -0.35527136788E-14  0.00000000000E+00  0.10050084319E+03  0.14055773816E+03  0.98265244480E+02 0.  0.
    9000005    2    3    3    0    0  0.17011450147E+02 -0.19270255237E+02 -0.96253445743E+01  0.27471446301E+02  0.11405834843E+01 0.  0.
         22    1    3    3    0    0 -0.17011450147E+02  0.19270255237E+02  0.11012618777E+03  0.11308629185E+03  0.00000000000E+00 0.  1.
         22    1    4    4    0    0  0.11772485236E+02 -0.12561748734E+02 -0.62696804479E+01  0.18322058640E+02  0.00000000000E+00 0.  1.
         22    1    4    4    0    0  0.52389649106E+01 -0.67085065032E+01 -0.33556641264E+01  0.91493876608E+01  0.00000000000E+00 0.  1.
<mgrwt>
<rscale>  0 0.98265244E+02</rscale>
<asrwt>0</asrwt>
<pdfrwt beam="2">  1        1 0.30812996E-02 0.98265244E+02</pdfrwt>
<pdfrwt beam="1">  1       -1 0.18542968E-01 0.98265244E+02</pdfrwt>
<totfact> 0.64624798E+04</totfact>
</mgrwt>
</event>
<event>
 7    1  0.3345055E-009  0.7828765E+02  0.7818608E-02  0.1333982E+00
         -1   -1    0    0    0  501 -0.00000000000E+00  0.00000000000E+00  0.22252089395E+03  0.22252089401E+03  0.50400000000E-02 0. -1.
          1   -1    0    0  501    0  0.00000000000E+00 -0.00000000000E+00 -0.68858193930E+01  0.68858212375E+01  0.50400000000E-02 0.  1.
         23    2    1    2    0    0  0.00000000000E+00  0.35527136788E-14  0.21563507456E+03  0.22940671525E+03  0.78287646664E+02 0.  0.
    9000005    2    3    3    0    0 -0.73822384661E+01  0.31469538433E+02  0.17233073224E+03  0.17536880857E+03  0.33924109837E+01 0.  0.
         22    1    3    3    0    0  0.73822384661E+01 -0.31469538433E+02  0.43304342322E+02  0.54037906675E+02  0.00000000000E+00 0.  1.
         22    1    4    4    0    0 -0.76704741914E+01  0.29716067513E+02  0.16089825124E+03  0.16379904790E+03  0.00000000000E+00 0.  1.
         22    1    4    4    0    0  0.28823572533E+00  0.17534709200E+01  0.11432480999E+02  0.11569760667E+02  0.00000000000E+00 0.  1.
<mgrwt>
<rscale>  0 0.78287647E+02</rscale>
<asrwt>0</asrwt>
<pdfrwt beam="2">  1        1 0.10593572E-02 0.78287647E+02</pdfrwt>
<pdfrwt beam="1">  1       -1 0.34233976E-01 0.78287647E+02</pdfrwt>
<totfact> 0.99874517E+04</totfact>
</mgrwt>
</event>
<event>
 7    1  0.3345055E-009  0.9202097E+02  0.7818608E-02  0.1298030E+00
         -1   -1    0    0    0  501 -0.00000000000E+00  0.00000000000E+00  0.52092175327E+01  0.52092199709E+01  0.50400000000E-02 0.  1.
          1   -1    0    0  501    0  0.00000000000E+00 -0.00000000000E+00 -0.40638812292E+03  0.40638812295E+03  0.50400000000E-02 0. -1.
         23    2    1    2    0    0  0.35527136788E-14  0.00000000000E+00 -0.40117890538E+03  0.41159734292E+03  0.92020968115E+02 0.  0.
    9000005    2    3    3    0    0 -0.30040572596E+02  0.33102909873E+02 -0.21976083279E+03  0.22475314122E+03  0.14863115982E+02 0.  0.
         22    1    3    3    0    0  0.30040572596E+02 -0.33102909873E+02 -0.18141807260E+03  0.18684420170E+03  0.00000000000E+00 0.  1.
         22    1    4    4    0    0 -0.22149519641E+02  0.29388649863E+02 -0.14995787588E+03  0.15440744315E+03  0.00000000000E+00 0.  1.
         22    1    4    4    0    0 -0.78910529552E+01  0.37142600108E+01 -0.69802956906E+02  0.70345698071E+02  0.00000000000E+00 0.  1.
<mgrwt>
<rscale>  0 0.92020968E+02</rscale>
<asrwt>0</asrwt>
<pdfrwt beam="2">  1        1 0.62521225E-01 0.92020968E+02</pdfrwt>
<pdfrwt beam="1">  1       -1 0.80141859E-03 0.92020968E+02</pdfrwt>
<totfact> 0.13196761E+05</totfact>
</mgrwt>
</event>
<event>
 7    1  0.3345055E-009  0.9158226E+02  0.7818608E-02  0.1299065E+00
         -1   -1    0    0    0  501 -0.00000000000E+00  0.00000000000E+00  0.94184308478E+02  0.94184308613E+02  0.50400000000E-02 0.  1.
          1   -1    0    0  501    0  0.00000000000E+00 -0.00000000000E+00 -0.22263026369E+02  0.22263026940E+02  0.50400000000E-02 0. -1.
         23    2    1    2    0    0  0.00000000000E+00  0.00000000000E+00  0.71921282109E+02  0.11644733555E+03  0.91582264315E+02 0.  0.
    9000005    2    3    3    0    0  0.29330542971E+01  0.34270200154E+02  0.73768053727E+02  0.82002307007E+02  0.99801391643E+01 0.  0.
         22    1    3    3    0    0 -0.29330542971E+01 -0.34270200154E+02 -0.18467716180E+01  0.34445028545E+02  0.00000000000E+00 0. -1.
         22    1    4    4    0    0  0.64719068701E+00  0.14144200522E+02  0.19665850829E+02  0.24232683570E+02  0.00000000000E+00 0. -1.
         22    1    4    4    0    0  0.22858636101E+01  0.20125999632E+02  0.54102202898E+02  0.57769623437E+02  0.00000000000E+00 0. -1.
<mgrwt>
<rscale>  0 0.91582264E+02</rscale>
<asrwt>0</asrwt>
<pdfrwt beam="2">  1        1 0.34250810E-02 0.91582264E+02</pdfrwt>
<pdfrwt beam="1">  1       -1 0.14489894E-01 0.91582264E+02</pdfrwt>
<totfact> 0.81335427E+04</totfact>
</mgrwt>
</event>
<event>
 7    1  0.3345055E-009  0.1049123E+03  0.7818608E-02  0.1270292E+00
          1   -1    0    0  501    0  0.00000000000E+00  0.00000000000E+00  0.80326802201E+01  0.80326818013E+01  0.50400000000E-02 0. -1.
         -1   -1    0    0    0  501 -0.00000000000E+00 -0.00000000000E+00 -0.34255677859E+03  0.34255677863E+03  0.50400000000E-02 0.  1.
         23    2    1    2    0    0  0.00000000000E+00  0.00000000000E+00 -0.33452409837E+03  0.35058946043E+03  0.10491233185E+03 0.  0.
    9000005    2    3    3    0    0  0.39983932613E+02 -0.27848300194E+02 -0.10323606962E+03  0.11422449912E+03  0.39124721022E+01 0.  0.
         22    1    3    3    0    0 -0.39983932613E+02  0.27848300194E+02 -0.23128802875E+03  0.23636496131E+03  0.00000000000E+00 0.  1.
         22    1    4    4    0    0  0.36612133665E+02 -0.25508692734E+02 -0.96823132564E+02  0.10661079090E+03  0.00000000000E+00 0.  1.
         22    1    4    4    0    0  0.33717989486E+01 -0.23396074595E+01 -0.64129370571E+01  0.76137082235E+01  0.00000000000E+00 0.  1.
<mgrwt>
<rscale>  0 0.10491233E+03</rscale>
<asrwt>0</asrwt>
<pdfrwt beam="1">  1        1 0.12357974E-02 0.10491233E+03</pdfrwt>
<pdfrwt beam="2">  1       -1 0.52701031E-01 0.10491233E+03</pdfrwt>
<totfact> 0.39633444E+04</totfact>
</mgrwt>
</event>
<event>
 7    1  0.3345055E-009  0.9471550E+02  0.7818608E-02  0.1291818E+00
          1   -1    0    0  501    0  0.00000000000E+00  0.00000000000E+00  0.24435181811E+02  0.24435182331E+02  0.50400000000E-02 0. -1.
         -1   -1    0    0    0  501 -0.00000000000E+00 -0.00000000000E+00 -0.91783912871E+02  0.91783913009E+02  0.50400000000E-02 0.  1.
         23    2    1    2    0    0 -0.17763568394E-14 -0.17763568394E-14 -0.67348731059E+02  0.11621909534E+03  0.94715503200E+02 0.  0.
    9000005    2    3    3    0    0 -0.12119881383E+02 -0.14420056058E+02  0.18934705606E+02  0.27903405996E+02  0.80775892640E+01 0.  0.
         22    1    3    3    0    0  0.12119881383E+02  0.14420056058E+02 -0.86283436666E+02  0.88315689344E+02  0.00000000000E+00 0.  1.
         22    1    4    4    0    0 -0.11728370888E+00 -0.55532165735E+01  0.56747062299E+01  0.79406712926E+01  0.00000000000E+00 0. -1.
         22    1    4    4    0    0 -0.12002597674E+02 -0.88668394848E+01  0.13259999376E+02  0.19962734704E+02  0.00000000000E+00 0. -1.
<mgrwt>
<rscale>  0 0.94715503E+02</rscale>
<asrwt>0</asrwt>
<pdfrwt beam="1">  1        1 0.37592588E-02 0.94715503E+02</pdfrwt>
<pdfrwt beam="2">  1       -1 0.14120602E-01 0.94715503E+02</pdfrwt>
<totfact> 0.74938252E+04</totfact>
</mgrwt>
</event>
<event>
 7    1  0.3345055E-009  0.9409065E+02  0.7818608E-02  0.1293237E+00
          1   -1    0    0  501    0  0.00000000000E+00  0.00000000000E+00  0.31654799196E+01  0.31654839319E+01  0.50400000000E-02 0. -1.
         -1   -1    0    0    0  501 -0.00000000000E+00 -0.00000000000E+00 -0.69918664669E+03  0.69918664671E+03  0.50400000000E-02 0.  1.
         23    2    1    2    0    0  0.00000000000E+00 -0.88817841970E-15 -0.69602116677E+03  0.70235213064E+03  0.94090652151E+02 0.  0.
    9000005    2    3    3    0    0  0.21209873164E+02  0.72905807437E+01 -0.65599109800E+03  0.65646729989E+03  0.11044631369E+02 0.  0.
         22    1    3    3    0    0 -0.21209873164E+02 -0.72905807437E+01 -0.40030068768E+02  0.45884830748E+02  0.00000000000E+00 0. -1.
         22    1    4    4    0    0  0.21115646452E+02  0.88123281691E+01 -0.56452939318E+03  0.56499288794E+03  0.00000000000E+00 0. -1.
         22    1    4    4    0    0  0.94226711575E-01 -0.15217474254E+01 -0.91461704817E+02  0.91474411952E+02  0.00000000000E+00 0. -1.
<mgrwt>
<rscale>  0 0.94090652E+02</rscale>
<asrwt>0</asrwt>
<pdfrwt beam="1">  1        1 0.48699778E-03 0.94090652E+02</pdfrwt>
<pdfrwt beam="2">  1       -1 0.10756705E+00 0.94090652E+02</pdfrwt>
<totfact> 0.33952914E+04</totfact>
</mgrwt>
</event>
<event>
 7    1  0.3345055E-009  0.9252552E+02  0.7818608E-02  0.1296849E+00
         -1   -1    0    0    0  501 -0.00000000000E+00  0.00000000000E+00  0.36762773955E+02  0.36762774300E+02  0.50400000000E-02 0.  1.
          1   -1    0    0  501    0  0.00000000000E+00 -0.00000000000E+00 -0.58217668857E+02  0.58217669076E+02  0.50400000000E-02 0. -1.
         23    2    1    2    0    0  0.88817841970E-15  0.00000000000E+00 -0.21454894903E+02  0.94980443376E+02  0.92525521391E+02 0.  0.
    9000005    2    3    3    0    0 -0.43781232519E+01 -0.19990600815E+02 -0.52481993043E+02  0.57812272810E+02  0.13004122790E+02 0.  0.
         22    1    3    3    0    0  0.43781232519E+01  0.19990600815E+02  0.31027098141E+02  0.37168170566E+02  0.00000000000E+00 0.  1.
         22    1    4    4    0    0  0.83687511759E+00 -0.17803034662E+02 -0.32745924183E+02  0.37281952118E+02  0.00000000000E+00 0.  1.
         22    1    4    4    0    0 -0.52149983695E+01 -0.21875661532E+01 -0.19736068861E+02  0.20530320693E+02  0.00000000000E+00 0.  1.
<mgrwt>
<rscale>  0 0.92525521E+02</rscale>
<asrwt>0</asrwt>
<pdfrwt beam="2">  1        1 0.89565645E-02 0.92525521E+02</pdfrwt>
<pdfrwt beam="1">  1       -1 0.56558114E-02 0.92525521E+02</pdfrwt>
<totfact> 0.92091977E+04</totfact>
</mgrwt>
</event>
<event>
 7    1  0.3345055E-009  0.9428881E+02  0.7818608E-02  0.1292786E+00
          1   -1    0    0  501    0  0.00000000000E+00  0.00000000000E+00  0.14965393009E+04  0.14965393009E+04  0.50400000000E-02 0. -1.
         -1   -1    0    0    0  501 -0.00000000000E+00 -0.00000000000E+00 -0.14851520543E+01  0.14851606061E+01  0.50400000000E-02 0.  1.
         23    2    1    2    0    0  0.17763568394E-14  0.00000000000E+00  0.14950541488E+04  0.14980244615E+04  0.94288808005E+02 0.  0.
    9000005    2    3    3    0    0 -0.10788084744E+02  0.18840628429E+02  0.14109403405E+04  0.14111539555E+04  0.11466898666E+02 0.  0.
         22    1    3    3    0    0  0.10788084744E+02 -0.18840628429E+02  0.84113808360E+02  0.86870505978E+02  0.00000000000E+00 0.  1.
         22    1    4    4    0    0 -0.81869412029E+01  0.67868018507E+01  0.41087999421E+03  0.41101758640E+03  0.00000000000E+00 0. -1.
         22    1    4    4    0    0 -0.26011435409E+01  0.12053826578E+02  0.10000603462E+04  0.10001363691E+04  0.00000000000E+00 0. -1.
<mgrwt>
<rscale>  0 0.94288808E+02</rscale>
<asrwt>0</asrwt>
<pdfrwt beam="1">  1        1 0.23023697E+00 0.94288808E+02</pdfrwt>
<pdfrwt beam="2">  1       -1 0.22848543E-03 0.94288808E+02</pdfrwt>
<totfact> 0.10129282E+05</totfact>
</mgrwt>
</event>
<event>
 7    1  0.3345055E-009  0.9047097E+02  0.7818608E-02  0.1301715E+00
          1   -1    0    0  501    0  0.00000000000E+00  0.00000000000E+00  0.47595359925E+02  0.47595360192E+02  0.50400000000E-02 0. -1.
         -1   -1    0    0    0  501 -0.00000000000E+00 -0.00000000000E+00 -0.42992618242E+02  0.42992618537E+02  0.50400000000E-02 0.  1.
         23    2    1    2    0    0  0.00000000000E+00  0.35527136788E-14  0.46027416836E+01  0.90587978730E+02  0.90470971363E+02 0.  0.
    9000005    2    3    3    0    0 -0.80665490483E+01  0.29700628364E+02 -0.28953327684E+02  0.45055503175E+02  0.15636708208E+02 0.  0.
         22    1    3    3    0    0  0.80665490483E+01 -0.29700628364E+02  0.33556069368E+02  0.45532475555E+02  0.00000000000E+00 0. -1.
         22    1    4    4    0    0  0.13613999497E+01 -0.81596985592E+00  0.44214514748E+00  0.16476373874E+01  0.00000000000E+00 0. -1.
         22    1    4    4    0    0 -0.94279489980E+01  0.30516598220E+02 -0.29395472832E+02  0.43407865787E+02  0.00000000000E+00 0. -1.
<mgrwt>
<rscale>  0 0.90470971E+02</rscale>
<asrwt>0</asrwt>
<pdfrwt beam="1">  1        1 0.73223631E-02 0.90470971E+02</pdfrwt>
<pdfrwt beam="2">  1       -1 0.66142490E-02 0.90470971E+02</pdfrwt>
<totfact> 0.95118808E+04</totfact>
</mgrwt>
</event>
<event>
 6    1  0.3345055E-009  0.2857481E+03  0.7818608E-02  0.1092590E+00
         -1   -1    0    0    0  501 -0.00000000000E+00  0.00000000000E+00  0.57995881014E+02  0.57995881233E+02  0.50400000000E-02 0. -1.
          1   -1    0    0  501    0  0.00000000000E+00 -0.00000000000E+00 -0.35197313323E+03  0.35197313326E+03  0.50400000000E-02 0.  1.
    9000005    2    1    2    0    0  0.56013040272E+02 -0.10183043404E+03 -0.27922532135E+02  0.11963814798E+03  0.51692043500E+01 0.  0.
         22    1    1    2    0    0 -0.56013040272E+02  0.10183043404E+03 -0.26605472008E+03  0.29033086652E+03  0.00000000000E+00 0.  1.
         22    1    3    3    0    0  0.37265224636E+02 -0.65580208471E+02 -0.20411328472E+02  0.78141429730E+02  0.00000000000E+00 0.  1.
         22    1    3    3    0    0  0.18747815636E+02 -0.36250225568E+02 -0.75112036632E+01  0.41496718247E+02  0.00000000000E+00 0.  1.
<mgrwt>
<rscale>  0 0.28574808E+03</rscale>
<asrwt>0</asrwt>
<pdfrwt beam="2">  1        1 0.54149711E-01 0.28574808E+03</pdfrwt>
<pdfrwt beam="1">  1       -1 0.89224435E-02 0.28574808E+03</pdfrwt>
<totfact> 0.51766390E+03</totfact>
</mgrwt>
</event>
<event>
 7    1  0.3345055E-009  0.9098667E+02  0.7818608E-02  0.1300480E+00
          1   -1    0    0  501    0  0.00000000000E+00  0.00000000000E+00  0.18207720755E+03  0.18207720762E+03  0.50400000000E-02 0. -1.
         -1   -1    0    0    0  501 -0.00000000000E+00 -0.00000000000E+00 -0.11366845384E+02  0.11366846501E+02  0.50400000000E-02 0.  1.
         23    2    1    2    0    0  0.00000000000E+00  0.17763568394E-14  0.17071036217E+03  0.19344405413E+03  0.90986671135E+02 0.  0.
    9000005    2    3    3    0    0 -0.40296008798E+02 -0.13389856315E+02  0.11406956560E+03  0.12265396716E+03  0.15135167178E+02 0.  0.
         22    1    3    3    0    0  0.40296008798E+02  0.13389856315E+02  0.56640796569E+02  0.70790086970E+02  0.00000000000E+00 0. -1.
         22    1    4    4    0    0 -0.21436245398E+02  0.50139276132E+00  0.60497141470E+02  0.64184640979E+02  0.00000000000E+00 0. -1.
         22    1    4    4    0    0 -0.18859763399E+02 -0.13891249077E+02  0.53572424131E+02  0.58469326177E+02  0.00000000000E+00 0. -1.
<mgrwt>
<rscale>  0 0.90986671E+02</rscale>
<asrwt>0</asrwt>
<pdfrwt beam="1">  1        1 0.28011877E-01 0.90986671E+02</pdfrwt>
<pdfrwt beam="2">  1       -1 0.17487456E-02 0.90986671E+02</pdfrwt>
<totfact> 0.11693561E+05</totfact>
</mgrwt>
</event>
<event>
 7    1  0.3345055E-009  0.8985337E+02  0.7818608E-02  0.1303207E+00
          1   -1    0    0  501    0  0.00000000000E+00  0.00000000000E+00  0.32618914977E+03  0.32618914981E+03  0.50400000000E-02 0. -1.
         -1   -1    0    0    0  501 -0.00000000000E+00 -0.00000000000E+00 -0.61878413105E+01  0.61878433630E+01  0.50400000000E-02 0.  1.
         23    2    1    2    0    0  0.00000000000E+00  0.00000000000E+00  0.32000130846E+03  0.33237699317E+03  0.89853370411E+02 0.  0.
    9000005    2    3    3    0    0  0.38181558776E+02 -0.19373458245E+02  0.11286303095E+03  0.12086002382E+03  0.59932701580E+01 0.  0.
         22    1    3    3    0    0 -0.38181558776E+02  0.19373458245E+02  0.20713827751E+03  0.21151696936E+03  0.00000000000E+00 0. -1.
         22    1    4    4    0    0  0.29153300786E+02 -0.17483296530E+02  0.87445557954E+02  0.93820606533E+02  0.00000000000E+00 0.  1.
         22    1    4    4    0    0  0.90282579901E+01 -0.18901617157E+01  0.25417472997E+02  0.27039417287E+02  0.00000000000E+00 0.  1.
<mgrwt>
<rscale>  0 0.89853370E+02</rscale>
<asrwt>0</asrwt>
<pdfrwt beam="1">  1        1 0.50182947E-01 0.89853370E+02</pdfrwt>
<pdfrwt beam="2">  1       -1 0.95197574E-03 0.89853370E+02</pdfrwt>
<totfact> 0.13531245E+05</totfact>
</mgrwt>
</event>
<event>
 7    1  0.3345055E-009  0.9121854E+02  0.7818608E-02  0.1299927E+00
          1   -1    0    0  501    0  0.00000000000E+00  0.00000000000E+00  0.17456151615E+03  0.17456151623E+03  0.50400000000E-02 0. -1.
         -1   -1    0    0    0  501 -0.00000000000E+00 -0.00000000000E+00 -0.11916747125E+02  0.11916748191E+02  0.50400000000E-02 0.  1.
         23    2    1    2    0    0  0.00000000000E+00  0.00000000000E+00  0.16264476903E+03  0.18647826442E+03  0.91218540921E+02 0.  0.
    9000005    2    3    3    0    0 -0.34619778920E+02  0.27085408477E+02  0.10283197738E+03  0.11225078642E+03  0.96785864448E+01 0.  0.
         22    1    3    3    0    0  0.34619778920E+02 -0.27085408477E+02  0.59812791652E+02  0.74227477999E+02  0.00000000000E+00 0.  1.
         22    1    4    4    0    0 -0.77434765933E+01  0.11671227445E+02  0.33580303434E+02  0.36384279003E+02  0.00000000000E+00 0.  1.
         22    1    4    4    0    0 -0.26876302327E+02  0.15414181033E+02  0.69251673944E+02  0.75866507417E+02  0.00000000000E+00 0.  1.
<mgrwt>
<rscale>  0 0.91218541E+02</rscale>
<asrwt>0</asrwt>
<pdfrwt beam="1">  1        1 0.26855616E-01 0.91218541E+02</pdfrwt>
<pdfrwt beam="2">  1       -1 0.18333460E-02 0.91218541E+02</pdfrwt>
<totfact> 0.11520870E+05</totfact>
</mgrwt>
</event>
<event>
 6    1  0.5804849E-009  0.1585365E+03  0.7818608E-02  0.1190359E+00
          1   -1    0    0  501    0  0.00000000000E+00  0.00000000000E+00  0.34144967886E+02  0.34144968258E+02  0.50400000000E-02 0. -1.
         -1   -1    0    0    0  501 -0.00000000000E+00 -0.00000000000E+00 -0.18402289197E+03  0.18402289204E+03  0.50400000000E-02 0.  1.
    9000005    2    1    2    0    0 -0.44392991818E+02 -0.13403177889E+02  0.11568759213E+02  0.50193414479E+02  0.15334919863E+02 0.  0.
         22    1    1    2    0    0  0.44392991818E+02  0.13403177889E+02 -0.16144668329E+03  0.16797444581E+03  0.00000000000E+00 0.  1.
         22    1    3    3    0    0 -0.80600725977E+00  0.17161948054E+01  0.25625801333E+01  0.31877561470E+01  0.00000000000E+00 0.  1.
         22    1    3    3    0    0 -0.43586984558E+02 -0.15119372694E+02  0.90061790797E+01  0.47005658332E+02  0.00000000000E+00 0.  1.
<mgrwt>
<rscale>  0 0.15853650E+03</rscale>
<asrwt>0</asrwt>
<pdfrwt beam="1">  1        1 0.52530721E-02 0.15853650E+03</pdfrwt>
<pdfrwt beam="2">  1       -1 0.28311214E-01 0.15853650E+03</pdfrwt>
<totfact> 0.16562578E+04</totfact>
</mgrwt>
</event>
<event>
 7    1  0.3345055E-009  0.8394617E+02  0.7818608E-02  0.1318212E+00
         -1   -1    0    0    0  501 -0.00000000000E+00  0.00000000000E+00  0.21229663292E+02  0.21229663890E+02  0.50400000000E-02 0.  1.
          1   -1    0    0  501    0  0.00000000000E+00 -0.00000000000E+00 -0.82984829186E+02  0.82984829339E+02  0.50400000000E-02 0. -1.
         23    2    1    2    0    0  0.00000000000E+00 -0.11102230246E-15 -0.61755165894E+02  0.10421449323E+03  0.83946173733E+02 0.  0.
    9000005    2    3    3    0    0 -0.35178439111E+02 -0.75582493282E+00 -0.58090421190E+02  0.68837605246E+02  0.11226086245E+02 0.  0.
         22    1    3    3    0    0  0.35178439111E+02  0.75582493282E+00 -0.36647447043E+01  0.35376887983E+02  0.00000000000E+00 0.  1.
         22    1    4    4    0    0 -0.21188957649E+02 -0.55317034659E+01 -0.30660343274E+02  0.37677955347E+02  0.00000000000E+00 0. -1.
         22    1    4    4    0    0 -0.13989481462E+02  0.47758785331E+01 -0.27430077916E+02  0.31159649899E+02  0.00000000000E+00 0. -1.
<mgrwt>
<rscale>  0 0.83946174E+02</rscale>
<asrwt>0</asrwt>
<pdfrwt beam="2">  1        1 0.12766897E-01 0.83946174E+02</pdfrwt>
<pdfrwt beam="1">  1       -1 0.32661021E-02 0.83946174E+02</pdfrwt>
<totfact> 0.12691097E+05</totfact>
</mgrwt>
</event>
<event>
 7    1  0.3345055E-009  0.9108575E+02  0.7818608E-02  0.1300243E+00
         -1   -1    0    0    0  501 -0.00000000000E+00  0.00000000000E+00  0.52831539656E+01  0.52831563696E+01  0.50400000000E-02 0.  1.
          1   -1    0    0  501    0  0.00000000000E+00 -0.00000000000E+00 -0.39259751566E+03  0.39259751569E+03  0.50400000000E-02 0. -1.
         23    2    1    2    0    0  0.00000000000E+00  0.00000000000E+00 -0.38731436169E+03  0.39788067206E+03  0.91085753143E+02 0.  0.
    9000005    2    3    3    0    0  0.88178048478E+01  0.30045116763E+02 -0.33640009875E+03  0.33810839676E+03  0.13107203963E+02 0.  0.
         22    1    3    3    0    0 -0.88178048478E+01 -0.30045116763E+02 -0.50914262936E+02  0.59772275295E+02  0.00000000000E+00 0.  1.
         22    1    4    4    0    0  0.98576030187E+01  0.29401221497E+02 -0.33377472525E+03  0.33521212892E+03  0.00000000000E+00 0. -1.
         22    1    4    4    0    0 -0.10397981709E+01  0.64389526620E+00 -0.26253735069E+01  0.28962678399E+01  0.00000000000E+00 0. -1.
<mgrwt>
<rscale>  0 0.91085753E+02</rscale>
<asrwt>0</asrwt>
<pdfrwt beam="2">  1        1 0.60399595E-01 0.91085753E+02</pdfrwt>
<pdfrwt beam="1">  1       -1 0.81279342E-03 0.91085753E+02</pdfrwt>
<totfact> 0.13483372E+05</totfact>
</mgrwt>
</event>
<event>
 7    1  0.4599837E-009  0.1007545E+03  0.7818608E-02  0.1278717E+00
         -1   -1    0    0    0  501 -0.00000000000E+00  0.00000000000E+00  0.50220601366E+01  0.50220626656E+01  0.50400000000E-02 0.  1.
          1   -1    0    0  501    0  0.00000000000E+00 -0.00000000000E+00 -0.50534377471E+03  0.50534377474E+03  0.50400000000E-02 0. -1.
         23    2    1    2    0    0  0.35527136788E-14  0.00000000000E+00 -0.50032171458E+03  0.51036583740E+03  0.10075450319E+03 0.  0.
    9000005    2    3    3    0    0 -0.24620213561E+02 -0.15530901127E+02 -0.45741183391E+03  0.45851391686E+03  0.12730370961E+02 0.  0.
         22    1    3    3    0    0  0.24620213561E+02  0.15530901127E+02 -0.42909880666E+02  0.51851920546E+02  0.00000000000E+00 0.  1.
         22    1    4    4    0    0 -0.85768580775E+01 -0.12051898022E+02 -0.17431221013E+03  0.17493872454E+03  0.00000000000E+00 0.  1.
         22    1    4    4    0    0 -0.16043355483E+02 -0.34790031059E+01 -0.28309962378E+03  0.28357519232E+03  0.00000000000E+00 0.  1.
<mgrwt>
<rscale>  0 0.10075450E+03</rscale>
<asrwt>0</asrwt>
<pdfrwt beam="2">  1        1 0.77745156E-01 0.10075450E+03</pdfrwt>
<pdfrwt beam="1">  1       -1 0.77262523E-03 0.10075450E+03</pdfrwt>
<totfact> 0.10686656E+05</totfact>
</mgrwt>
</event>
<event>
 7    1  0.3345055E-009  0.8790643E+02  0.7818608E-02  0.1308002E+00
          1   -1    0    0  501    0  0.00000000000E+00  0.00000000000E+00  0.29187528166E+02  0.29187528601E+02  0.50400000000E-02 0. -1.
         -1   -1    0    0    0  501 -0.00000000000E+00 -0.00000000000E+00 -0.66188713098E+02  0.66188713290E+02  0.50400000000E-02 0.  1.
         23    2    1    2    0    0  0.00000000000E+00  0.00000000000E+00 -0.37001184932E+02  0.95376241892E+02  0.87906426562E+02 0.  0.
    9000005    2    3    3    0    0 -0.34925236986E+02 -0.14158093197E+01  0.99396257462E+01  0.36850893523E+02  0.61168209824E+01 0.  0.
         22    1    3    3    0    0  0.34925236986E+02  0.14158093197E+01 -0.46940810679E+02  0.58525348369E+02  0.00000000000E+00 0.  1.
         22    1    4    4    0    0 -0.17395779217E+02  0.42891011013E+00  0.78886875593E+01  0.19105718774E+02  0.00000000000E+00 0.  1.
         22    1    4    4    0    0 -0.17529457768E+02 -0.18447194299E+01  0.20509381869E+01  0.17745174749E+02  0.00000000000E+00 0.  1.
<mgrwt>
<rscale>  0 0.87906427E+02</rscale>
<asrwt>0</asrwt>
<pdfrwt beam="1">  1        1 0.44903890E-02 0.87906427E+02</pdfrwt>
<pdfrwt beam="2">  1       -1 0.10182879E-01 0.87906427E+02</pdfrwt>
<totfact> 0.95815351E+04</totfact>
</mgrwt>
</event>
<event>
 7    1  0.3345055E-009  0.9325365E+02  0.7818608E-02  0.1295158E+00
         -1   -1    0    0    0  501 -0.00000000000E+00  0.00000000000E+00  0.25972955862E+01  0.25973004762E+01  0.50400000000E-02 0.  1.
          1   -1    0    0  501    0  0.00000000000E+00 -0.00000000000E+00 -0.83704708130E+03  0.83704708131E+03  0.50400000000E-02 0. -1.
         23    2    1    2    0    0  0.00000000000E+00  0.35527136788E-14 -0.83444978571E+03  0.83964438179E+03  0.93253648700E+02 0.  0.
    9000005    2    3    3    0    0  0.25389417307E+01 -0.26685307814E+02 -0.76039550127E+03  0.76088786509E+03  0.55202366978E+01 0.  0.
         22    1    3    3    0    0 -0.25389417307E+01  0.26685307814E+02 -0.74054284441E+02  0.78756516697E+02  0.00000000000E+00 0.  1.
         22    1    4    4    0    0 -0.14369344917E+00 -0.87365123097E+01 -0.18498964422E+03  0.18519588485E+03  0.00000000000E+00 0.  1.
         22    1    4    4    0    0  0.26826351799E+01 -0.17948795504E+02 -0.57540585705E+03  0.57569198024E+03  0.00000000000E+00 0.  1.
<mgrwt>
<rscale>  0 0.93253649E+02</rscale>
<asrwt>0</asrwt>
<pdfrwt beam="2">  1        1 0.12877626E+00 0.93253649E+02</pdfrwt>
<pdfrwt beam="1">  1       -1 0.39958498E-03 0.93253649E+02</pdfrwt>
<totfact> 0.13250661E+05</totfact>
</mgrwt>
</event>
<event>
 7    1  0.3345055E-009  0.9186876E+02  0.7818608E-02  0.1298388E+00
          1   -1    0    0  501    0  0.00000000000E+00  0.00000000000E+00  0.19675062914E+02  0.19675063559E+02  0.50400000000E-02 0. -1.
         -1   -1    0    0    0  501 -0.00000000000E+00 -0.00000000000E+00 -0.10724068370E+03  0.10724068382E+03  0.50400000000E-02 0.  1.
         23    2    1    2    0    0  0.00000000000E+00  0.00000000000E+00 -0.87565620783E+02  0.12691574737E+03  0.91868759589E+02 0.  0.
    9000005    2    3    3    0    0 -0.38530978444E+02  0.14344992944E+02 -0.18501927364E+02  0.46540322827E+02  0.11544055192E+02 0.  0.
         22    1    3    3    0    0  0.38530978444E+02 -0.14344992944E+02 -0.69063693419E+02  0.80375424547E+02  0.00000000000E+00 0.  1.
         22    1    4    4    0    0 -0.26897254318E+02  0.45565874456E+01 -0.95895688910E+01  0.28916856857E+02  0.00000000000E+00 0.  1.
         22    1    4    4    0    0 -0.11633724126E+02  0.97884054988E+01 -0.89123584730E+01  0.17623465970E+02  0.00000000000E+00 0.  1.
<mgrwt>
<rscale>  0 0.91868760E+02</rscale>
<asrwt>0</asrwt>
<pdfrwt beam="1">  1        1 0.30269329E-02 0.91868760E+02</pdfrwt>
<pdfrwt beam="2">  1       -1 0.16498566E-01 0.91868760E+02</pdfrwt>
<totfact> 0.78749173E+04</totfact>
</mgrwt>
</event>
<event>
 7    1  0.3345055E-009  0.9005846E+02  0.7818608E-02  0.1302710E+00
          1   -1    0    0  501    0  0.00000000000E+00  0.00000000000E+00  0.98675520426E+02  0.98675520554E+02  0.50400000000E-02 0. -1.
         -1   -1    0    0    0  501 -0.00000000000E+00 -0.00000000000E+00 -0.20548477314E+02  0.20548477932E+02  0.50400000000E-02 0.  1.
         23    2    1    2    0    0  0.00000000000E+00  0.00000000000E+00  0.78127043112E+02  0.11922399849E+03  0.90058464064E+02 0.  0.
    9000005    2    3    3    0    0  0.84309446061E+01 -0.24637897279E+02  0.87138654987E+02  0.91668310183E+02  0.11481597863E+02 0.  0.
         22    1    3    3    0    0 -0.84309446061E+01  0.24637897279E+02 -0.90116118749E+01  0.27555688304E+02  0.00000000000E+00 0.  1.
         22    1    4    4    0    0  0.18309415142E+01 -0.16233821144E+02  0.37691194550E+02  0.41079379771E+02  0.00000000000E+00 0.  1.
         22    1    4    4    0    0  0.66000030919E+01 -0.84040761349E+01  0.49447460437E+02  0.50588930412E+02  0.00000000000E+00 0.  1.
<mgrwt>
<rscale>  0 0.90058464E+02</rscale>
<asrwt>0</asrwt>
<pdfrwt beam="1">  1        1 0.15180849E-01 0.90058464E+02</pdfrwt>
<pdfrwt beam="2">  1       -1 0.31613043E-02 0.90058464E+02</pdfrwt>
<totfact> 0.10778284E+05</totfact>
</mgrwt>
</event>
<event>
 7    1  0.3345055E-009  0.9115074E+02  0.7818608E-02  0.1300089E+00
         -1   -1    0    0    0  501 -0.00000000000E+00  0.00000000000E+00  0.62408475625E+01  0.62408495976E+01  0.50400000000E-02 0.  1.
          1   -1    0    0  501    0  0.00000000000E+00 -0.00000000000E+00 -0.33282559935E+03  0.33282559939E+03  0.50400000000E-02 0. -1.
         23    2    1    2    0    0  0.00000000000E+00  0.00000000000E+00 -0.32658475179E+03  0.33906644899E+03  0.91150736299E+02 0.  0.
    9000005    2    3    3    0    0  0.10300011694E+02 -0.38397553277E+02 -0.95259473936E+02  0.10434992526E+03  0.15299581297E+02 0.  0.
         22    1    3    3    0    0 -0.10300011694E+02  0.38397553277E+02 -0.23132527785E+03  0.23471652373E+03  0.00000000000E+00 0. -1.
         22    1    4    4    0    0  0.77430297229E+01 -0.56663948554E+01 -0.17832180220E+02  0.20249671388E+02  0.00000000000E+00 0.  1.
         22    1    4    4    0    0  0.25569819708E+01 -0.32731158422E+02 -0.77427293716E+02  0.84100253868E+02  0.00000000000E+00 0.  1.
<mgrwt>
<rscale>  0 0.91150736E+02</rscale>
<asrwt>0</asrwt>
<pdfrwt beam="2">  1        1 0.51203925E-01 0.91150736E+02</pdfrwt>
<pdfrwt beam="1">  1       -1 0.96013081E-03 0.91150736E+02</pdfrwt>
<totfact> 0.13073708E+05</totfact>
</mgrwt>
</event>
<event>
 7    1  0.3345055E-009  0.9138376E+02  0.7818608E-02  0.1299535E+00
         -1   -1    0    0    0  501 -0.00000000000E+00  0.00000000000E+00  0.59576562234E+01  0.59576583552E+01  0.50400000000E-02 0.  1.
          1   -1    0    0  501    0  0.00000000000E+00 -0.00000000000E+00 -0.35043097666E+03  0.35043097669E+03  0.50400000000E-02 0. -1.
         23    2    1    2    0    0 -0.71054273576E-14  0.00000000000E+00 -0.34447332043E+03  0.35638863505E+03  0.91383755127E+02 0.  0.
    9000005    2    3    3    0    0 -0.34571837245E+02  0.25175918971E+02 -0.23470537339E+03  0.23858353743E+03  0.25403166075E+01 0.  0.
         22    1    3    3    0    0  0.34571837245E+02 -0.25175918971E+02 -0.10976794705E+03  0.11780509762E+03  0.00000000000E+00 0.  1.
         22    1    4    4    0    0 -0.25882807971E+01  0.27287420608E+01 -0.21863383443E+02  0.22184516364E+02  0.00000000000E+00 0. -1.
         22    1    4    4    0    0 -0.31983556448E+02  0.22447176910E+02 -0.21284198994E+03  0.21639902106E+03  0.00000000000E+00 0. -1.
<mgrwt>
<rscale>  0 0.91383755E+02</rscale>
<asrwt>0</asrwt>
<pdfrwt beam="2">  1        1 0.53912442E-01 0.91383755E+02</pdfrwt>
<pdfrwt beam="1">  1       -1 0.91656294E-03 0.91383755E+02</pdfrwt>
<totfact> 0.13106847E+05</totfact>
</mgrwt>
</event>
<event>
 7    1  0.3345055E-009  0.8828758E+02  0.7818608E-02  0.1307052E+00
         -1   -1    0    0    0  501 -0.00000000000E+00  0.00000000000E+00  0.39522688801E+01  0.39522720936E+01  0.50400000000E-02 0.  1.
          1   -1    0    0  501    0  0.00000000000E+00 -0.00000000000E+00 -0.49305183341E+03  0.49305183344E+03  0.50400000000E-02 0. -1.
         23    2    1    2    0    0  0.00000000000E+00  0.17763568394E-14 -0.48909956453E+03  0.49700410553E+03  0.88287580609E+02 0.  0.
    9000005    2    3    3    0    0  0.38741416297E+02  0.96325008373E+01 -0.34697900769E+03  0.34938318870E+03  0.89720878033E+01 0.  0.
         22    1    3    3    0    0 -0.38741416297E+02 -0.96325008373E+01 -0.14212055685E+03  0.14762091684E+03  0.00000000000E+00 0.  1.
         22    1    4    4    0    0  0.13057905694E+02  0.64253120774E+01 -0.10036105748E+03  0.10141072623E+03  0.00000000000E+00 0. -1.
         22    1    4    4    0    0  0.25683510603E+02  0.32071887599E+01 -0.24661795021E+03  0.24797246246E+03  0.00000000000E+00 0. -1.
<mgrwt>
<rscale>  0 0.88287581E+02</rscale>
<asrwt>0</asrwt>
<pdfrwt beam="2">  1        1 0.75854079E-01 0.88287581E+02</pdfrwt>
<pdfrwt beam="1">  1       -1 0.60804201E-03 0.88287581E+02</pdfrwt>
<totfact> 0.15139298E+05</totfact>
</mgrwt>
</event>
<event>
 7    1  0.3345055E-009  0.9057859E+02  0.7818608E-02  0.1301457E+00
          1   -1    0    0  501    0  0.00000000000E+00  0.00000000000E+00  0.49640496177E+02  0.49640496433E+02  0.50400000000E-02 0.  1.
         -1   -1    0    0    0  501 -0.00000000000E+00 -0.00000000000E+00 -0.41319491774E+02  0.41319492081E+02  0.50400000000E-02 0. -1.
         23    2    1    2    0    0 -0.71054273576E-14 -0.35527136788E-14  0.83210044035E+01  0.90959988514E+02  0.90578586853E+02 0.  0.
    9000005    2    3    3    0    0  0.36966860015E+02  0.18231793435E+02  0.22551096418E+02  0.47354455035E+02  0.59114660451E+01 0.  0.
         22    1    3    3    0    0 -0.36966860015E+02 -0.18231793435E+02 -0.14230092014E+02  0.43605533479E+02  0.00000000000E+00 0.  1.
         22    1    4    4    0    0  0.24943011125E+01  0.19194949136E+01  0.20809800824E+00  0.31542516615E+01  0.00000000000E+00 0. -1.
         22    1    4    4    0    0  0.34472558903E+02  0.16312298521E+02  0.22342998410E+02  0.44200203374E+02  0.00000000000E+00 0. -1.
<mgrwt>
<rscale>  0 0.90578587E+02</rscale>
<asrwt>0</asrwt>
<pdfrwt beam="1">  1        1 0.76369994E-02 0.90578587E+02</pdfrwt>
<pdfrwt beam="2">  1       -1 0.63568450E-02 0.90578587E+02</pdfrwt>
<totfact> 0.95400556E+04</totfact>
</mgrwt>
</event>
<event>
 7    1  0.3345055E-009  0.8669852E+02  0.7818608E-02  0.1311050E+00
          1   -1    0    0  501    0  0.00000000000E+00  0.00000000000E+00  0.46017078373E+03  0.46017078376E+03  0.50400000000E-02 0. -1.
         -1   -1    0    0    0  501 -0.00000000000E+00 -0.00000000000E+00 -0.40836090848E+01  0.40836121950E+01  0.50400000000E-02 0.  1.
         23    2    1    2    0    0  0.00000000000E+00 -0.33306690739E-15  0.45608717465E+03  0.46425439596E+03  0.86698519512E+02 0.  0.
    9000005    2    3    3    0    0 -0.26615015380E+02 -0.44698467081E+00  0.41048073774E+03  0.41144809021E+03  0.93024751239E+01 0.  0.
         22    1    3    3    0    0  0.26615015380E+02  0.44698467081E+00  0.45606436907E+02  0.52806305744E+02  0.00000000000E+00 0.  1.
         22    1    4    4    0    0 -0.11077446208E+02 -0.36057817599E+01  0.22018454674E+03  0.22049250803E+03  0.00000000000E+00 0.  1.
         22    1    4    4    0    0 -0.15537569171E+02  0.31587970891E+01  0.19029619100E+03  0.19095558218E+03  0.00000000000E+00 0.  1.
<mgrwt>
<rscale>  0 0.86698520E+02</rscale>
<asrwt>0</asrwt>
<pdfrwt beam="1">  1        1 0.70795549E-01 0.86698520E+02</pdfrwt>
<pdfrwt beam="2">  1       -1 0.62824741E-03 0.86698520E+02</pdfrwt>
<totfact> 0.15741755E+05</totfact>
</mgrwt>
</event>
<event>
 7    1  0.3345055E-009  0.7737697E+02  0.7818608E-02  0.1336664E+00
          1   -1    0    0  501    0  0.00000000000E+00  0.00000000000E+00  0.54625809843E+02  0.54625810075E+02  0.50400000000E-02 0. -1.
         -1   -1    0    0    0  501 -0.00000000000E+00 -0.00000000000E+00 -0.27400947507E+02  0.27400947971E+02  0.50400000000E-02 0.  1.
         23    2    1    2    0    0  0.00000000000E+00  0.00000000000E+00  0.27224862335E+02  0.82026758046E+02  0.77376972714E+02 0.  0.
    9000005    2    3    3    0    0  0.13338403977E+01 -0.32887174822E+02 -0.66987318379E+01  0.34759902433E+02  0.89460835529E+01 0.  0.
         22    1    3    3    0    0 -0.13338403977E+01  0.32887174822E+02  0.33923594173E+02  0.47266855613E+02  0.00000000000E+00 0. -1.
         22    1    4    4    0    0 -0.73689688091E+00 -0.17746846965E+01 -0.27134125969E+01  0.33249256693E+01  0.00000000000E+00 0. -1.
         22    1    4    4    0    0  0.20707372786E+01 -0.31112490125E+02 -0.39853192410E+01  0.31434976763E+02  0.00000000000E+00 0. -1.
<mgrwt>
<rscale>  0 0.77376973E+02</rscale>
<asrwt>0</asrwt>
<pdfrwt beam="1">  1        1 0.84039706E-02 0.77376973E+02</pdfrwt>
<pdfrwt beam="2">  1       -1 0.42155305E-02 0.77376973E+02</pdfrwt>
<totfact> 0.14918178E+05</totfact>
</mgrwt>
</event>
<event>
 6    1  0.3345055E-009  0.1303451E+03  0.7818608E-02  0.1226945E+00
         -1   -1    0    0    0  501 -0.00000000000E+00  0.00000000000E+00  0.14681254187E+04  0.14681254187E+04  0.50400000000E-02 0.  1.
          1   -1    0    0  501    0  0.00000000000E+00 -0.00000000000E+00 -0.28931148839E+01  0.28931192739E+01  0.50400000000E-02 0. -1.
    9000005    2    1    2    0    0 -0.95708462825E+01 -0.43188293026E+02  0.12701039538E+04  0.12709387971E+04  0.12827416761E+02 0.  0.
         22    1    1    2    0    0  0.95708462825E+01  0.43188293026E+02  0.19512834993E+03  0.20007974085E+03  0.00000000000E+00 0. -1.
         22    1    3    3    0    0 -0.30532610942E+01 -0.46246772957E+01  0.29302849081E+03  0.29308088725E+03  0.00000000000E+00 0.  1.
         22    1    3    3    0    0 -0.65175851883E+01 -0.38563615731E+02  0.97707546303E+03  0.97785790984E+03  0.00000000000E+00 0.  1.
<mgrwt>
<rscale>  0 0.13034506E+03</rscale>
<asrwt>0</asrwt>
<pdfrwt beam="2">  1        1 0.44509503E-03 0.13034506E+03</pdfrwt>
<pdfrwt beam="1">  1       -1 0.22586540E+00 0.13034506E+03</pdfrwt>
<totfact> 0.55156728E+03</totfact>
</mgrwt>
</event>
<event>
 7    1  0.3345055E-009  0.8792972E+02  0.7818608E-02  0.1307944E+00
          1   -1    0    0  501    0  0.00000000000E+00  0.00000000000E+00  0.47757229230E+02  0.47757229496E+02  0.50400000000E-02 0. -1.
         -1   -1    0    0    0  501 -0.00000000000E+00 -0.00000000000E+00 -0.40473640860E+02  0.40473641174E+02  0.50400000000E-02 0.  1.
         23    2    1    2    0    0  0.00000000000E+00  0.00000000000E+00  0.72835883704E+01  0.88230870670E+02  0.87929721253E+02 0.  0.
    9000005    2    3    3    0    0 -0.20182274001E+02  0.19704768648E+02  0.35817187568E+02  0.48108951792E+02  0.15362233753E+02 0.  0.
         22    1    3    3    0    0  0.20182274001E+02 -0.19704768648E+02 -0.28533599198E+02  0.40121918878E+02  0.00000000000E+00 0.  1.
         22    1    4    4    0    0 -0.12482314157E+02  0.50279976860E+01  0.24773989330E+02  0.28192897594E+02  0.00000000000E+00 0.  1.
         22    1    4    4    0    0 -0.76999598448E+01  0.14676770962E+02  0.11043198238E+02  0.19916054197E+02  0.00000000000E+00 0.  1.
<mgrwt>
<rscale>  0 0.87929721E+02</rscale>
<asrwt>0</asrwt>
<pdfrwt beam="1">  1        1 0.73472661E-02 0.87929721E+02</pdfrwt>
<pdfrwt beam="2">  1       -1 0.62267140E-02 0.87929721E+02</pdfrwt>
<totfact> 0.10303616E+05</totfact>
</mgrwt>
</event>
<event>
 7    1  0.3345055E-009  0.8340656E+02  0.7818608E-02  0.1319653E+00
          1   -1    0    0  501    0  0.00000000000E+00  0.00000000000E+00  0.27501516176E+03  0.27501516180E+03  0.50400000000E-02 0. -1.
         -1   -1    0    0    0  501 -0.00000000000E+00 -0.00000000000E+00 -0.63238813033E+01  0.63238833117E+01  0.50400000000E-02 0.  1.
         23    2    1    2    0    0 -0.35527136788E-14  0.00000000000E+00  0.26869128045E+03  0.28133904512E+03  0.83406559181E+02 0.  0.
    9000005    2    3    3    0    0  0.19019715782E+02  0.35134645272E+02  0.10926756488E+03  0.11698542035E+03  0.12247242644E+02 0.  0.
         22    1    3    3    0    0 -0.19019715782E+02 -0.35134645272E+02  0.15942371557E+03  0.16435362477E+03  0.00000000000E+00 0. -1.
         22    1    4    4    0    0 -0.21772028328E+00  0.46879319716E+01  0.59970138210E+01  0.76150038123E+01  0.00000000000E+00 0.  1.
         22    1    4    4    0    0  0.19237436065E+02  0.30446713300E+02  0.10327055106E+03  0.10937041654E+03  0.00000000000E+00 0.  1.
<mgrwt>
<rscale>  0 0.83406559E+02</rscale>
<asrwt>0</asrwt>
<pdfrwt beam="1">  1        1 0.42310016E-01 0.83406559E+02</pdfrwt>
<pdfrwt beam="2">  1       -1 0.97290518E-03 0.83406559E+02</pdfrwt>
<totfact> 0.15959547E+05</totfact>
</mgrwt>
</event>
<event>
 7    1  0.3345055E-009  0.9321871E+02  0.7818608E-02  0.1295239E+00
         -1   -1    0    0    0  501 -0.00000000000E+00  0.00000000000E+00  0.29512241710E+01  0.29512284746E+01  0.50400000000E-02 0.  1.
          1   -1    0    0  501    0  0.00000000000E+00 -0.00000000000E+00 -0.73611158821E+03  0.73611158823E+03  0.50400000000E-02 0. -1.
         23    2    1    2    0    0  0.00000000000E+00  0.00000000000E+00 -0.73316036404E+03  0.73906281670E+03  0.93218708602E+02 0.  0.
    9000005    2    3    3    0    0 -0.13237776092E+02 -0.41421765919E+02 -0.48135521787E+03  0.48353036662E+03  0.14414168897E+02 0.  0.
         22    1    3    3    0    0  0.13237776092E+02  0.41421765919E+02 -0.25180514616E+03  0.25553245008E+03  0.00000000000E+00 0.  1.
         22    1    4    4    0    0  0.11676928379E+00 -0.78479906437E+01 -0.15126261827E+03  0.15146611594E+03  0.00000000000E+00 0.  1.
         22    1    4    4    0    0 -0.13354545376E+02 -0.33573775276E+02 -0.33009259960E+03  0.33206425068E+03  0.00000000000E+00 0.  1.
<mgrwt>
<rscale>  0 0.93218709E+02</rscale>
<asrwt>0</asrwt>
<pdfrwt beam="2">  1        1 0.11324779E+00 0.93218709E+02</pdfrwt>
<pdfrwt beam="1">  1       -1 0.45403541E-03 0.93218709E+02</pdfrwt>
<totfact> 0.13392821E+05</totfact>
</mgrwt>
</event>
<event>
 7    1  0.3345055E-009  0.9199505E+02  0.7818608E-02  0.1298091E+00
         -1   -1    0    0    0  501 -0.00000000000E+00  0.00000000000E+00  0.16138622605E+03  0.16138622613E+03  0.50400000000E-02 0.  1.
          1   -1    0    0  501    0  0.00000000000E+00 -0.00000000000E+00 -0.13109992057E+02  0.13109993026E+02  0.50400000000E-02 0. -1.
         23    2    1    2    0    0 -0.71054273576E-14 -0.35527136788E-14  0.14827623399E+03  0.17449621916E+03  0.91995048411E+02 0.  0.
    9000005    2    3    3    0    0 -0.36588136366E+02 -0.26045228848E+02  0.77612771717E+02  0.90768263433E+02  0.14074432304E+02 0.  0.
         22    1    3    3    0    0  0.36588136366E+02  0.26045228848E+02  0.70663462277E+02  0.83727955722E+02  0.00000000000E+00 0. -1.
         22    1    4    4    0    0 -0.15749196438E+02 -0.49644414682E+01  0.36718744420E+02  0.40261011653E+02  0.00000000000E+00 0. -1.
         22    1    4    4    0    0 -0.20838939928E+02 -0.21080787380E+02  0.40894027297E+02  0.50507251781E+02  0.00000000000E+00 0. -1.
<mgrwt>
<rscale>  0 0.91995048E+02</rscale>
<asrwt>0</asrwt>
<pdfrwt beam="2">  1        1 0.20169219E-02 0.91995048E+02</pdfrwt>
<pdfrwt beam="1">  1       -1 0.24828650E-01 0.91995048E+02</pdfrwt>
<totfact> 0.71799725E+04</totfact>
</mgrwt>
</event>
<event>
 7    1  0.3345055E-009  0.9240950E+02  0.7818608E-02  0.1297119E+00
          1   -1    0    0  501    0  0.00000000000E+00  0.00000000000E+00  0.29351058220E+02  0.29351058652E+02  0.50400000000E-02 0. -1.
         -1   -1    0    0    0  501 -0.00000000000E+00 -0.00000000000E+00 -0.72736003234E+02  0.72736003408E+02  0.50400000000E-02 0.  1.
         23    2    1    2    0    0  0.00000000000E+00  0.35527136788E-14 -0.43384945014E+02  0.10208706206E+03  0.92409495109E+02 0.  0.
    9000005    2    3    3    0    0 -0.10510886736E+02  0.27412787810E+02 -0.60630022003E+02  0.68038092093E+02  0.95521061593E+01 0.  0.
         22    1    3    3    0    0  0.10510886736E+02 -0.27412787810E+02  0.17245076989E+02  0.34048969968E+02  0.00000000000E+00 0. -1.
         22    1    4    4    0    0  0.53012385181E+00  0.11411787337E+02 -0.23238359740E+02  0.25894618841E+02  0.00000000000E+00 0. -1.
         22    1    4    4    0    0 -0.11041010588E+02  0.16001000473E+02 -0.37391662263E+02  0.42143473252E+02  0.00000000000E+00 0. -1.
<mgrwt>
<rscale>  0 0.92409495E+02</rscale>
<asrwt>0</asrwt>
<pdfrwt beam="1">  1        1 0.45155475E-02 0.92409495E+02</pdfrwt>
<pdfrwt beam="2">  1       -1 0.11190154E-01 0.92409495E+02</pdfrwt>
<totfact> 0.83099945E+04</totfact>
</mgrwt>
</event>
<event>
 7    1  0.3345055E-009  0.9241085E+02  0.7818608E-02  0.1297116E+00
          1   -1    0    0  501    0  0.00000000000E+00  0.00000000000E+00  0.77146132703E+02  0.77146132868E+02  0.50400000000E-02 0. -1.
         -1   -1    0    0    0  501 -0.00000000000E+00 -0.00000000000E+00 -0.27673989121E+02  0.27673989580E+02  0.50400000000E-02 0.  1.
         23    2    1    2    0    0 -0.22204460493E-15  0.00000000000E+00  0.49472143582E+02  0.10482012245E+03  0.92410849360E+02 0.  0.
    9000005    2    3    3    0    0 -0.12801712576E+01 -0.18458613002E+02 -0.22122179515E+02  0.30873477276E+02  0.11019144258E+02 0.  0.
         22    1    3    3    0    0  0.12801712576E+01  0.18458613002E+02  0.71594323097E+02  0.73946645172E+02  0.00000000000E+00 0. -1.
         22    1    4    4    0    0 -0.42176366191E+01 -0.94988985469E+01 -0.54888307294E+01  0.11753501395E+02  0.00000000000E+00 0.  1.
         22    1    4    4    0    0  0.29374653615E+01 -0.89597144553E+01 -0.16633348786E+02  0.19119975881E+02  0.00000000000E+00 0.  1.
<mgrwt>
<rscale>  0 0.92410849E+02</rscale>
<asrwt>0</asrwt>
<pdfrwt beam="1">  1        1 0.11868636E-01 0.92410849E+02</pdfrwt>
<pdfrwt beam="2">  1       -1 0.42575369E-02 0.92410849E+02</pdfrwt>
<totfact> 0.96530185E+04</totfact>
</mgrwt>
</event>
<event>
 7    1  0.3345055E-009  0.9280664E+02  0.7818608E-02  0.1296194E+00
         -1   -1    0    0    0  501 -0.00000000000E+00  0.00000000000E+00  0.50617073232E+01  0.50617098324E+01  0.50400000000E-02 0.  1.
          1   -1    0    0  501    0  0.00000000000E+00 -0.00000000000E+00 -0.42540342393E+03  0.42540342396E+03  0.50400000000E-02 0. -1.
         23    2    1    2    0    0  0.71054273576E-14 -0.35527136788E-14 -0.42034171661E+03  0.43046513379E+03  0.92806641416E+02 0.  0.
    9000005    2    3    3    0    0 -0.33820855614E+02  0.16741073114E+02 -0.33226706863E+03  0.33464625559E+03  0.12751379609E+02 0.  0.
         22    1    3    3    0    0  0.33820855614E+02 -0.16741073114E+02 -0.88074647980E+02  0.95818878204E+02  0.00000000000E+00 0.  1.
         22    1    4    4    0    0 -0.91232376951E+00  0.41542144739E+01 -0.24200376800E+02  0.24571285473E+02  0.00000000000E+00 0. -1.
         22    1    4    4    0    0 -0.32908531844E+02  0.12586858640E+02 -0.30806669183E+03  0.31007497012E+03  0.00000000000E+00 0. -1.
<mgrwt>
<rscale>  0 0.92806641E+02</rscale>
<asrwt>0</asrwt>
<pdfrwt beam="2">  1        1 0.65446653E-01 0.92806641E+02</pdfrwt>
<pdfrwt beam="1">  1       -1 0.77872473E-03 0.92806641E+02</pdfrwt>
<totfact> 0.12995265E+05</totfact>
</mgrwt>
</event>
<event>
 7    1  0.3345055E-009  0.8937083E+02  0.7818608E-02  0.1304383E+00
         -1   -1    0    0    0  501 -0.00000000000E+00  0.00000000000E+00  0.22172670513E+01  0.22172727794E+01  0.50400000000E-02 0.  1.
          1   -1    0    0  501    0  0.00000000000E+00 -0.00000000000E+00 -0.90056078038E+03  0.90056078039E+03  0.50400000000E-02 0. -1.
         23    2    1    2    0    0  0.00000000000E+00 -0.33306690739E-15 -0.89834351332E+03  0.90277805317E+03  0.89370830543E+02 0.  0.
    9000005    2    3    3    0    0 -0.35888317072E+02 -0.85603822682E+00 -0.71269867754E+03  0.71369418512E+03  0.11457783402E+02 0.  0.
         22    1    3    3    0    0  0.35888317072E+02  0.85603822682E+00 -0.18564483578E+03  0.18908386805E+03  0.00000000000E+00 0.  1.
         22    1    4    4    0    0 -0.10770973349E+02 -0.50883264116E+01 -0.18729337199E+03  0.18767182027E+03  0.00000000000E+00 0.  1.
         22    1    4    4    0    0 -0.25117343723E+02  0.42322881848E+01 -0.52540530555E+03  0.52602236485E+03  0.00000000000E+00 0.  1.
<mgrwt>
<rscale>  0 0.89370831E+02</rscale>
<asrwt>0</asrwt>
<pdfrwt beam="2">  1        1 0.13854752E+00 0.89370831E+02</pdfrwt>
<pdfrwt beam="1">  1       -1 0.34111917E-03 0.89370831E+02</pdfrwt>
<totfact> 0.14671177E+05</totfact>
</mgrwt>
</event>
<event>
 7    1  0.3345055E-009  0.9220467E+02  0.7818608E-02  0.1297599E+00
         -1   -1    0    0    0  501 -0.00000000000E+00  0.00000000000E+00  0.19615525495E+03  0.19615525501E+03  0.50400000000E-02 0.  1.
          1   -1    0    0  501    0  0.00000000000E+00 -0.00000000000E+00 -0.10835424101E+02  0.10835425273E+02  0.50400000000E-02 0. -1.
         23    2    1    2    0    0  0.71054273576E-14 -0.44408920985E-15  0.18531983085E+03  0.20699068028E+03  0.92204674610E+02 0.  0.
    9000005    2    3    3    0    0  0.44690763179E+02 -0.31182085717E+01  0.11090317663E+03  0.12012972264E+03  0.11164592996E+02 0.  0.
         22    1    3    3    0    0 -0.44690763179E+02  0.31182085717E+01  0.74416654212E+02  0.86860957641E+02  0.00000000000E+00 0.  1.
         22    1    4    4    0    0  0.35863847035E+02  0.45535661274E-02  0.96519034479E+02  0.10296669152E+03  0.00000000000E+00 0.  1.
         22    1    4    4    0    0  0.88269161436E+01 -0.31227621378E+01  0.14384142155E+02  0.17163031129E+02  0.00000000000E+00 0.  1.
<mgrwt>
<rscale>  0 0.92204675E+02</rscale>
<asrwt>0</asrwt>
<pdfrwt beam="2">  1        1 0.16669885E-02 0.92204675E+02</pdfrwt>
<pdfrwt beam="1">  1       -1 0.30177730E-01 0.92204675E+02</pdfrwt>
<totfact> 0.67797198E+04</totfact>
</mgrwt>
</event>
<event>
 7    1  0.3345055E-009  0.9063761E+02  0.7818608E-02  0.1301315E+00
          1   -1    0    0  501    0  0.00000000000E+00  0.00000000000E+00  0.81101074717E+03  0.81101074718E+03  0.50400000000E-02 0. -1.
         -1   -1    0    0    0  501 -0.00000000000E+00 -0.00000000000E+00 -0.25323856846E+01  0.25323906999E+01  0.50400000000E-02 0.  1.
         23    2    1    2    0    0  0.35527136788E-14  0.00000000000E+00  0.80847836148E+03  0.81354313788E+03  0.90637609250E+02 0.  0.
    9000005    2    3    3    0    0 -0.30590703934E+02 -0.15174052859E+02  0.66586603375E+03  0.66689962774E+03  0.14542885638E+02 0.  0.
         22    1    3    3    0    0  0.30590703934E+02  0.15174052859E+02  0.14261232773E+03  0.14664351014E+03  0.00000000000E+00 0.  1.
         22    1    4    4    0    0 -0.24829975438E+02 -0.14603293438E+02  0.43063172283E+03  0.43159409701E+03  0.00000000000E+00 0. -1.
         22    1    4    4    0    0 -0.57607284965E+01 -0.57075942091E+00  0.23523431092E+03  0.23530553073E+03  0.00000000000E+00 0. -1.
<mgrwt>
<rscale>  0 0.90637609E+02</rscale>
<asrwt>0</asrwt>
<pdfrwt beam="1">  1        1 0.12477109E+00 0.90637609E+02</pdfrwt>
<pdfrwt beam="2">  1       -1 0.38959754E-03 0.90637609E+02</pdfrwt>
<totfact> 0.14335127E+05</totfact>
</mgrwt>
</event>
<event>
 7    1  0.3345055E-009  0.9159474E+02  0.7818608E-02  0.1299035E+00
          1   -1    0    0  501    0  0.00000000000E+00  0.00000000000E+00  0.10888660803E+03  0.10888660815E+03  0.50400000000E-02 0. -1.
         -1   -1    0    0    0  501 -0.00000000000E+00 -0.00000000000E+00 -0.19262229728E+02  0.19262230387E+02  0.50400000000E-02 0.  1.
         23    2    1    2    0    0 -0.17763568394E-14  0.88817841970E-15  0.89624378307E+02  0.12814883854E+03  0.91594735831E+02 0.  0.
    9000005    2    3    3    0    0  0.13117273300E+02 -0.64449595828E+01  0.10534954015E+03  0.10668069754E+03  0.82852431597E+01 0.  0.
         22    1    3    3    0    0 -0.13117273300E+02  0.64449595828E+01 -0.15725161846E+02  0.21468140999E+02  0.00000000000E+00 0.  1.
         22    1    4    4    0    0  0.11986138187E+02 -0.39530026422E+01  0.63521051368E+02  0.64762780247E+02  0.00000000000E+00 0.  1.
         22    1    4    4    0    0  0.11311351130E+01 -0.24919569406E+01  0.41828488786E+02  0.41917917293E+02  0.00000000000E+00 0.  1.
<mgrwt>
<rscale>  0 0.91594736E+02</rscale>
<asrwt>0</asrwt>
<pdfrwt beam="1">  1        1 0.16751786E-01 0.91594736E+02</pdfrwt>
<pdfrwt beam="2">  1       -1 0.29634201E-02 0.91594736E+02</pdfrwt>
<totfact> 0.10464532E+05</totfact>
</mgrwt>
</event>
<event>
 7    1  0.3345055E-009  0.9335585E+02  0.7818608E-02  0.1294923E+00
         -1   -1    0    0    0  501 -0.00000000000E+00  0.00000000000E+00  0.38823571329E+02  0.38823571657E+02  0.50400000000E-02 0.  1.
          1   -1    0    0  501    0  0.00000000000E+00 -0.00000000000E+00 -0.56121284886E+02  0.56121285113E+02  0.50400000000E-02 0. -1.
         23    2    1    2    0    0  0.00000000000E+00  0.00000000000E+00 -0.17297713557E+02  0.94944856769E+02  0.93355851089E+02 0.  0.
    9000005    2    3    3    0    0 -0.18286241370E+02 -0.25383218128E+02  0.24682461879E+02  0.42590014437E+02  0.15032997684E+02 0.  0.
         22    1    3    3    0    0  0.18286241370E+02  0.25383218128E+02 -0.41980175436E+02  0.52354842332E+02  0.00000000000E+00 0. -1.
         22    1    4    4    0    0 -0.84247328357E+01 -0.15019082685E+01  0.87301167882E+01  0.12224843187E+02  0.00000000000E+00 0. -1.
         22    1    4    4    0    0 -0.98615085341E+01 -0.23881309860E+02  0.15952345091E+02  0.30365171251E+02  0.00000000000E+00 0. -1.
<mgrwt>
<rscale>  0 0.93355851E+02</rscale>
<asrwt>0</asrwt>
<pdfrwt beam="2">  1        1 0.86340438E-02 0.93355851E+02</pdfrwt>
<pdfrwt beam="1">  1       -1 0.59728572E-02 0.93355851E+02</pdfrwt>
<totfact> 0.89322889E+04</totfact>
</mgrwt>
</event>
<event>
 7    1  0.3397563E-009  0.9056781E+02  0.7818608E-02  0.1301482E+00
          1   -1    0    0  501    0  0.00000000000E+00  0.00000000000E+00  0.69709845038E+03  0.69709845040E+03  0.50400000000E-02 0. -1.
         -1   -1    0    0    0  501 -0.00000000000E+00 -0.00000000000E+00 -0.29416655810E+01  0.29416698985E+01  0.50400000000E-02 0.  1.
         23    2    1    2    0    0 -0.35527136788E-14 -0.27755575616E-15  0.69415678480E+03  0.70004012030E+03  0.90567809637E+02 0.  0.
    9000005    2    3    3    0    0  0.24056453851E+02 -0.31929445804E+00  0.64155606400E+03  0.64219851979E+03  0.15682494745E+02 0.  0.
         22    1    3    3    0    0 -0.24056453851E+02  0.31929445804E+00  0.52600720795E+02  0.57841600505E+02  0.00000000000E+00 0.  1.
         22    1    4    4    0    0  0.70791722912E+01  0.56598053601E+01  0.32883667721E+03  0.32896156060E+03  0.00000000000E+00 0.  1.
         22    1    4    4    0    0  0.16977281560E+02 -0.59790998181E+01  0.31271938680E+03  0.31323695919E+03  0.00000000000E+00 0.  1.
<mgrwt>
<rscale>  0 0.90567810E+02</rscale>
<asrwt>0</asrwt>
<pdfrwt beam="1">  1        1 0.10724587E+00 0.90567810E+02</pdfrwt>
<pdfrwt beam="2">  1       -1 0.45256447E-03 0.90567810E+02</pdfrwt>
<totfact> 0.14472170E+05</totfact>
</mgrwt>
</event>
<event>
 7    1  0.3345055E-009  0.9218668E+02  0.7818608E-02  0.1297641E+00
          1   -1    0    0  501    0  0.00000000000E+00  0.00000000000E+00  0.96517174632E+03  0.96517174633E+03  0.50400000000E-02 0. -1.
         -1   -1    0    0    0  501 -0.00000000000E+00 -0.00000000000E+00 -0.22012590770E+01  0.22012648468E+01  0.50400000000E-02 0.  1.
         23    2    1    2    0    0  0.00000000000E+00  0.00000000000E+00  0.96297048724E+03  0.96737301118E+03  0.92186677229E+02 0.  0.
    9000005    2    3    3    0    0 -0.14069674344E+02  0.86084704819E+01  0.93252360737E+03  0.93274536335E+03  0.11898447349E+02 0.  0.
         22    1    3    3    0    0  0.14069674344E+02 -0.86084704819E+01  0.30446879871E+02  0.34627647827E+02  0.00000000000E+00 0.  1.
         22    1    4    4    0    0 -0.70434312222E+01 -0.14859957779E+01  0.22571474526E+03  0.22582950279E+03  0.00000000000E+00 0.  1.
         22    1    4    4    0    0 -0.70262431218E+01  0.10094466260E+02  0.70680886212E+03  0.70691586056E+03  0.00000000000E+00 0.  1.
<mgrwt>
<rscale>  0 0.92186677E+02</rscale>
<asrwt>0</asrwt>
<pdfrwt beam="1">  1        1 0.14848810E+00 0.92186677E+02</pdfrwt>
<pdfrwt beam="2">  1       -1 0.33865537E-03 0.92186677E+02</pdfrwt>
<totfact> 0.13328173E+05</totfact>
</mgrwt>
</event>
<event>
 7    1  0.3345055E-009  0.9101516E+02  0.7818608E-02  0.1300412E+00
          1   -1    0    0  501    0  0.00000000000E+00  0.00000000000E+00  0.36116742786E+02  0.36116743137E+02  0.50400000000E-02 0. -1.
         -1   -1    0    0    0  501 -0.00000000000E+00 -0.00000000000E+00 -0.57340161498E+02  0.57340161719E+02  0.50400000000E-02 0.  1.
         23    2    1    2    0    0  0.44408920985E-15  0.00000000000E+00 -0.21223418712E+02  0.93456904857E+02  0.91015161174E+02 0.  0.
    9000005    2    3    3    0    0 -0.33254460008E+01 -0.40816391269E+02 -0.29684536654E+02  0.51640318385E+02  0.10417023529E+02 0.  0.
         22    1    3    3    0    0  0.33254460008E+01  0.40816391269E+02  0.84611179418E+01  0.41816586472E+02  0.00000000000E+00 0. -1.
         22    1    4    4    0    0 -0.41011241348E+01 -0.92435978880E+01 -0.37896026910E+01  0.10799278200E+02  0.00000000000E+00 0. -1.
         22    1    4    4    0    0  0.77567813400E+00 -0.31572793381E+02 -0.25894933963E+02  0.40841040185E+02  0.00000000000E+00 0. -1.
<mgrwt>
<rscale>  0 0.91015161E+02</rscale>
<asrwt>0</asrwt>
<pdfrwt beam="1">  1        1 0.55564220E-02 0.91015161E+02</pdfrwt>
<pdfrwt beam="2">  1       -1 0.88215633E-02 0.91015161E+02</pdfrwt>
<totfact> 0.89708585E+04</totfact>
</mgrwt>
</event>
<event>
 7    1  0.3345055E-009  0.9531327E+02  0.7818608E-02  0.1290472E+00
         -1   -1    0    0    0  501 -0.00000000000E+00  0.00000000000E+00  0.23994788448E+01  0.23994841380E+01  0.50400000000E-02 0.  1.
          1   -1    0    0  501    0  0.00000000000E+00 -0.00000000000E+00 -0.94651910167E+03  0.94651910168E+03  0.50400000000E-02 0. -1.
         23    2    1    2    0    0  0.00000000000E+00  0.00000000000E+00 -0.94411962282E+03  0.94891858582E+03  0.95313274593E+02 0.  0.
    9000005    2    3    3    0    0 -0.23000632673E+02  0.20510830248E+02 -0.83273055425E+03  0.83334502544E+03  0.86041958151E+01 0.  0.
         22    1    3    3    0    0  0.23000632673E+02 -0.20510830248E+02 -0.11138906857E+03  0.11557356038E+03  0.00000000000E+00 0.  1.
         22    1    4    4    0    0 -0.21405674853E+02  0.19559824551E+02 -0.69845757906E+03  0.69905921023E+03  0.00000000000E+00 0. -1.
         22    1    4    4    0    0 -0.15949578199E+01  0.95100569697E+00 -0.13427297519E+03  0.13428581522E+03  0.00000000000E+00 0. -1.
<mgrwt>
<rscale>  0 0.95313275E+02</rscale>
<asrwt>0</asrwt>
<pdfrwt beam="2">  1        1 0.14561803E+00 0.95313275E+02</pdfrwt>
<pdfrwt beam="1">  1       -1 0.36915176E-03 0.95313275E+02</pdfrwt>
<totfact> 0.12254011E+05</totfact>
</mgrwt>
</event>
<event>
 7    1  0.3345055E-009  0.9198752E+02  0.7818608E-02  0.1298109E+00
          1   -1    0    0  501    0  0.00000000000E+00  0.00000000000E+00  0.12340757334E+04  0.12340757335E+04  0.50400000000E-02 0. -1.
         -1   -1    0    0    0  501 -0.00000000000E+00 -0.00000000000E+00 -0.17141747573E+01  0.17141821666E+01  0.50400000000E-02 0.  1.
         23    2    1    2    0    0  0.00000000000E+00  0.00000000000E+00  0.12323615587E+04  0.12357899156E+04  0.91987522097E+02 0.  0.
    9000005    2    3    3    0    0  0.13265038756E+02  0.32367821850E+01  0.12061616200E+04  0.12062454610E+04  0.39775106324E+01 0.  0.
         22    1    3    3    0    0 -0.13265038756E+02 -0.32367821850E+01  0.26199938686E+02  0.29544454628E+02  0.00000000000E+00 0.  1.
         22    1    4    4    0    0  0.90105212346E+00 -0.81015808567E+00  0.10589921129E+03  0.10590614337E+03  0.00000000000E+00 0.  1.
         22    1    4    4    0    0  0.12363986633E+02  0.40469402707E+01  0.11002624087E+04  0.11003393176E+04  0.00000000000E+00 0.  1.
<mgrwt>
<rscale>  0 0.91987522E+02</rscale>
<asrwt>0</asrwt>
<pdfrwt beam="1">  1        1 0.18985781E+00 0.91987522E+02</pdfrwt>
<pdfrwt beam="2">  1       -1 0.26371976E-03 0.91987522E+02</pdfrwt>
<totfact> 0.12266512E+05</totfact>
</mgrwt>
</event>
<event>
 7    1  0.3345055E-009  0.9103262E+02  0.7818608E-02  0.1300370E+00
         -1   -1    0    0    0  501 -0.00000000000E+00  0.00000000000E+00  0.58407853709E+02  0.58407853927E+02  0.50400000000E-02 0.  1.
          1   -1    0    0  501    0  0.00000000000E+00 -0.00000000000E+00 -0.35470136642E+02  0.35470137001E+02  0.50400000000E-02 0. -1.
         23    2    1    2    0    0  0.00000000000E+00  0.00000000000E+00  0.22937717067E+02  0.93877990927E+02  0.91032622264E+02 0.  0.
    9000005    2    3    3    0    0  0.39763293302E+01  0.39995627426E+02  0.33096514542E+02  0.52421235455E+02  0.60946897971E+01 0.  0.
         22    1    3    3    0    0 -0.39763293302E+01 -0.39995627426E+02 -0.10158797475E+02  0.41456755472E+02  0.00000000000E+00 0. -1.
         22    1    4    4    0    0  0.32076877663E+01  0.19309958181E+02  0.12530922659E+02  0.23241939860E+02  0.00000000000E+00 0.  1.
         22    1    4    4    0    0  0.76864156398E+00  0.20685669244E+02  0.20565591883E+02  0.29179295595E+02  0.00000000000E+00 0.  1.
<mgrwt>
<rscale>  0 0.91032622E+02</rscale>
<asrwt>0</asrwt>
<pdfrwt beam="2">  1        1 0.54569442E-02 0.91032622E+02</pdfrwt>
<pdfrwt beam="1">  1       -1 0.89858236E-02 0.91032622E+02</pdfrwt>
<totfact> 0.89409975E+04</totfact>
</mgrwt>
</event>
<event>
 7    1  0.3345055E-009  0.8980438E+02  0.7818608E-02  0.1303326E+00
          1   -1    0    0  501    0  0.00000000000E+00  0.00000000000E+00  0.49876050056E+03  0.49876050059E+03  0.50400000000E-02 0. -1.
         -1   -1    0    0    0  501 -0.00000000000E+00 -0.00000000000E+00 -0.40424325157E+01  0.40424356576E+01  0.50400000000E-02 0.  1.
         23    2    1    2    0    0  0.00000000000E+00  0.00000000000E+00  0.49471806805E+03  0.50280293625E+03  0.89804375424E+02 0.  0.
    9000005    2    3    3    0    0  0.24008083280E+02 -0.36044917024E+02  0.31070762439E+03  0.31376466636E+03  0.57804754658E+01 0.  0.
         22    1    3    3    0    0 -0.24008083280E+02  0.36044917024E+02  0.18401044366E+03  0.18903826989E+03  0.00000000000E+00 0.  1.
         22    1    4    4    0    0  0.19397080023E+02 -0.31852890589E+02  0.27500589798E+03  0.27752314728E+03  0.00000000000E+00 0.  1.
         22    1    4    4    0    0  0.46110032579E+01 -0.41920264357E+01  0.35701726410E+02  0.36241519082E+02  0.00000000000E+00 0.  1.
<mgrwt>
<rscale>  0 0.89804375E+02</rscale>
<asrwt>0</asrwt>
<pdfrwt beam="1">  1        1 0.76732345E-01 0.89804375E+02</pdfrwt>
<pdfrwt beam="2">  1       -1 0.62191326E-03 0.89804375E+02</pdfrwt>
<totfact> 0.14492777E+05</totfact>
</mgrwt>
</event>
<event>
 7    1  0.3345055E-009  0.8896744E+02  0.7818608E-02  0.1305372E+00
         -1   -1    0    0    0  501 -0.00000000000E+00  0.00000000000E+00  0.55448367340E+03  0.55448367342E+03  0.50400000000E-02 0.  1.
          1   -1    0    0  501    0  0.00000000000E+00 -0.00000000000E+00 -0.35687257821E+01  0.35687293410E+01  0.50400000000E-02 0. -1.
         23    2    1    2    0    0  0.00000000000E+00  0.44408920985E-15  0.55091494762E+03  0.55805240276E+03  0.88967436300E+02 0.  0.
    9000005    2    3    3    0    0  0.21265154372E+02 -0.36465642891E+01  0.51918897216E+03  0.51968520662E+03  0.70725482938E+01 0.  0.
         22    1    3    3    0    0 -0.21265154372E+02  0.36465642891E+01  0.31725975452E+02  0.38367196144E+02  0.00000000000E+00 0. -1.
         22    1    4    4    0    0  0.35621883435E+01 -0.35079694787E+01  0.11138458346E+03  0.11149672851E+03  0.00000000000E+00 0.  1.
         22    1    4    4    0    0  0.17702966028E+02 -0.13859481036E+00  0.40780438870E+03  0.40818847811E+03  0.00000000000E+00 0.  1.
<mgrwt>
<rscale>  0 0.88967436E+02</rscale>
<asrwt>0</asrwt>
<pdfrwt beam="2">  1        1 0.54903501E-03 0.88967436E+02</pdfrwt>
<pdfrwt beam="1">  1       -1 0.85305180E-01 0.88967436E+02</pdfrwt>
<totfact> 0.46917260E+04</totfact>
</mgrwt>
</event>
<event>
 7    1  0.3345055E-009  0.9346947E+02  0.7818608E-02  0.1294661E+00
         -1   -1    0    0    0  501 -0.00000000000E+00  0.00000000000E+00  0.11710791870E+02  0.11710792955E+02  0.50400000000E-02 0.  1.
          1   -1    0    0  501    0  0.00000000000E+00 -0.00000000000E+00 -0.18650621680E+03  0.18650621687E+03  0.50400000000E-02 0. -1.
         23    2    1    2    0    0 -0.35527136788E-14  0.00000000000E+00 -0.17479542493E+03  0.19821700982E+03  0.93469473127E+02 0.  0.
    9000005    2    3    3    0    0 -0.20563465613E+02 -0.40927135441E+02 -0.92549101036E+02  0.10407698471E+03  0.12992155756E+02 0.  0.
         22    1    3    3    0    0  0.20563465613E+02  0.40927135441E+02 -0.82246323896E+02  0.94140025111E+02  0.00000000000E+00 0. -1.
         22    1    4    4    0    0 -0.17934410609E+02 -0.31461580014E+02 -0.82114540749E+02  0.89745595454E+02  0.00000000000E+00 0. -1.
         22    1    4    4    0    0 -0.26290550045E+01 -0.94655554271E+01 -0.10434560286E+02  0.14331389260E+02  0.00000000000E+00 0. -1.
<mgrwt>
<rscale>  0 0.93469473E+02</rscale>
<asrwt>0</asrwt>
<pdfrwt beam="2">  1        1 0.28693262E-01 0.93469473E+02</pdfrwt>
<pdfrwt beam="1">  1       -1 0.18016605E-02 0.93469473E+02</pdfrwt>
<totfact> 0.10926714E+05</totfact>
</mgrwt>
</event>
<event>
 7    1  0.3345055E-009  0.9229520E+02  0.7818608E-02  0.1297387E+00
         -1   -1    0    0    0  501 -0.00000000000E+00  0.00000000000E+00  0.59579314670E+02  0.59579314883E+02  0.50400000000E-02 0.  1.
          1   -1    0    0  501    0  0.00000000000E+00 -0.00000000000E+00 -0.35743963334E+02  0.35743963689E+02  0.50400000000E-02 0. -1.
         23    2    1    2    0    0  0.00000000000E+00  0.71054273576E-14  0.23835351336E+02  0.95323278572E+02  0.92295197407E+02 0.  0.
    9000005    2    3    3    0    0 -0.43785670620E+01 -0.40616363533E+02  0.31807274704E+02  0.53701020124E+02  0.14256086492E+02 0.  0.
         22    1    3    3    0    0  0.43785670620E+01  0.40616363533E+02 -0.79719233682E+01  0.41622258448E+02  0.00000000000E+00 0.  1.
         22    1    4    4    0    0  0.25348766219E+01 -0.29674778643E+02  0.18112723305E+02  0.34858124341E+02  0.00000000000E+00 0.  1.
         22    1    4    4    0    0 -0.69134436839E+01 -0.10941584890E+02  0.13694551399E+02  0.18842895783E+02  0.00000000000E+00 0.  1.
<mgrwt>
<rscale>  0 0.92295197E+02</rscale>
<asrwt>0</asrwt>
<pdfrwt beam="2">  1        1 0.54990713E-02 0.92295197E+02</pdfrwt>
<pdfrwt beam="1">  1       -1 0.91660485E-02 0.92295197E+02</pdfrwt>
<totfact> 0.86073466E+04</totfact>
</mgrwt>
</event>
<event>
 7    1  0.3345055E-009  0.9161765E+02  0.7818608E-02  0.1298981E+00
         -1   -1    0    0    0  501 -0.00000000000E+00  0.00000000000E+00  0.65888435305E+01  0.65888454582E+01  0.50400000000E-02 0.  1.
          1   -1    0    0  501    0  0.00000000000E+00 -0.00000000000E+00 -0.31848503063E+03  0.31848503067E+03  0.50400000000E-02 0. -1.
         23    2    1    2    0    0  0.00000000000E+00  0.00000000000E+00 -0.31189618710E+03  0.32507387613E+03  0.91617647938E+02 0.  0.
    9000005    2    3    3    0    0 -0.20639688290E+02 -0.39265991557E+02 -0.12290187441E+03  0.13094334000E+03  0.85716237073E+01 0.  0.
         22    1    3    3    0    0  0.20639688290E+02  0.39265991557E+02 -0.18899431269E+03  0.19413053613E+03  0.00000000000E+00 0. -1.
         22    1    4    4    0    0 -0.15409380808E+02 -0.31261540066E+02 -0.85320317689E+02  0.92164469915E+02  0.00000000000E+00 0.  1.
         22    1    4    4    0    0 -0.52303074819E+01 -0.80044514914E+01 -0.37581556716E+02  0.38778870087E+02  0.00000000000E+00 0.  1.
<mgrwt>
<rscale>  0 0.91617648E+02</rscale>
<asrwt>0</asrwt>
<pdfrwt beam="2">  1        1 0.48997685E-01 0.91617648E+02</pdfrwt>
<pdfrwt beam="1">  1       -1 0.10136686E-02 0.91617648E+02</pdfrwt>
<totfact> 0.12792187E+05</totfact>
</mgrwt>
</event>
<event>
 7    1  0.3345055E-009  0.8847032E+02  0.7818608E-02  0.1306599E+00
          1   -1    0    0  501    0  0.00000000000E+00  0.00000000000E+00  0.17609391556E+02  0.17609392277E+02  0.50400000000E-02 0. -1.
         -1   -1    0    0    0  501 -0.00000000000E+00 -0.00000000000E+00 -0.11111964431E+03  0.11111964443E+03  0.50400000000E-02 0.  1.
         23    2    1    2    0    0 -0.44408920985E-15  0.00000000000E+00 -0.93510252755E+02  0.12872903670E+03  0.88470319996E+02 0.  0.
    9000005    2    3    3    0    0 -0.28970163765E+01 -0.42903755896E+02 -0.54653507389E+02  0.70772400894E+02  0.13137803643E+02 0.  0.
         22    1    3    3    0    0  0.28970163765E+01  0.42903755896E+02 -0.38856745366E+02  0.57956635809E+02  0.00000000000E+00 0. -1.
         22    1    4    4    0    0 -0.67050519238E+01 -0.31624855033E+02 -0.33874343447E+02  0.46824783193E+02  0.00000000000E+00 0.  1.
         22    1    4    4    0    0  0.38080355473E+01 -0.11278900862E+02 -0.20779163942E+02  0.23947617701E+02  0.00000000000E+00 0.  1.
<mgrwt>
<rscale>  0 0.88470320E+02</rscale>
<asrwt>0</asrwt>
<pdfrwt beam="1">  1        1 0.27091373E-02 0.88470320E+02</pdfrwt>
<pdfrwt beam="2">  1       -1 0.17095330E-01 0.88470320E+02</pdfrwt>
<totfact> 0.86189801E+04</totfact>
</mgrwt>
</event>
<event>
 7    1  0.3345055E-009  0.9152369E+02  0.7818608E-02  0.1299203E+00
         -1   -1    0    0    0  501 -0.00000000000E+00  0.00000000000E+00  0.17551337366E+03  0.17551337373E+03  0.50400000000E-02 0.  1.
          1   -1    0    0  501    0  0.00000000000E+00 -0.00000000000E+00 -0.11931548973E+02  0.11931550038E+02  0.50400000000E-02 0. -1.
         23    2    1    2    0    0  0.00000000000E+00  0.00000000000E+00  0.16358182468E+03  0.18744492377E+03  0.91523691355E+02 0.  0.
    9000005    2    3    3    0    0 -0.25251335558E+01 -0.41731336217E+02  0.11956675817E+03  0.12673901959E+03  0.43230435290E+01 0.  0.
         22    1    3    3    0    0  0.25251335558E+01  0.41731336217E+02  0.44015066517E+02  0.60705904180E+02  0.00000000000E+00 0. -1.
         22    1    4    4    0    0 -0.88730619573E+00 -0.35612961871E+02  0.10404617267E+03  0.10997579921E+03  0.00000000000E+00 0. -1.
         22    1    4    4    0    0 -0.16378273600E+01 -0.61183743454E+01  0.15520585500E+02  0.16763220375E+02  0.00000000000E+00 0. -1.
<mgrwt>
<rscale>  0 0.91523691E+02</rscale>
<asrwt>0</asrwt>
<pdfrwt beam="2">  1        1 0.18356229E-02 0.91523691E+02</pdfrwt>
<pdfrwt beam="1">  1       -1 0.27002059E-01 0.91523691E+02</pdfrwt>
<totfact> 0.71237337E+04</totfact>
</mgrwt>
</event>
<event>
 7    1  0.3345055E-009  0.9071513E+02  0.7818608E-02  0.1301129E+00
         -1   -1    0    0    0  501 -0.00000000000E+00  0.00000000000E+00  0.47778512573E+03  0.47778512576E+03  0.50400000000E-02 0.  1.
          1   -1    0    0  501    0  0.00000000000E+00 -0.00000000000E+00 -0.43059277039E+01  0.43059306535E+01  0.50400000000E-02 0. -1.
         23    2    1    2    0    0 -0.35527136788E-14  0.00000000000E+00  0.47347919803E+03  0.48209105641E+03  0.90715134940E+02 0.  0.
    9000005    2    3    3    0    0 -0.27830793535E+02  0.35466319753E+02  0.24758379304E+03  0.25174100345E+03  0.65867545524E+01 0.  0.
         22    1    3    3    0    0  0.27830793535E+02 -0.35466319753E+02  0.22589540498E+03  0.23035005296E+03  0.00000000000E+00 0. -1.
         22    1    4    4    0    0 -0.12499438651E+00  0.25766605833E+00  0.24391749054E+00  0.37617965982E+00  0.00000000000E+00 0. -1.
         22    1    4    4    0    0 -0.27705799148E+02  0.35208653695E+02  0.24733987555E+03  0.25136482379E+03  0.00000000000E+00 0. -1.
<mgrwt>
<rscale>  0 0.90715135E+02</rscale>
<asrwt>0</asrwt>
<pdfrwt beam="2">  1        1 0.66245082E-03 0.90715135E+02</pdfrwt>
<pdfrwt beam="1">  1       -1 0.73505384E-01 0.90715135E+02</pdfrwt>
<totfact> 0.49000243E+04</totfact>
</mgrwt>
</event>
<event>
 7    1  0.3345055E-009  0.9121203E+02  0.7818608E-02  0.1299943E+00
          1   -1    0    0  501    0  0.00000000000E+00  0.00000000000E+00  0.21747065946E+02  0.21747066530E+02  0.50400000000E-02 0. -1.
         -1   -1    0    0    0  501 -0.00000000000E+00 -0.00000000000E+00 -0.95640872580E+02  0.95640872712E+02  0.50400000000E-02 0.  1.
         23    2    1    2    0    0  0.00000000000E+00  0.00000000000E+00 -0.73893806633E+02  0.11738793924E+03  0.91212025637E+02 0.  0.
    9000005    2    3    3    0    0  0.25937745651E+02 -0.29855128148E+02 -0.96636501707E+01  0.41958446832E+02  0.10150359587E+02 0.  0.
         22    1    3    3    0    0 -0.25937745651E+02  0.29855128148E+02 -0.64230156463E+02  0.75429492411E+02  0.00000000000E+00 0.  1.
         22    1    4    4    0    0  0.10931380546E+02 -0.19118699853E+02 -0.80032520803E+01  0.23432281335E+02  0.00000000000E+00 0.  1.
         22    1    4    4    0    0  0.15006365105E+02 -0.10736428295E+02 -0.16603980904E+01  0.18526165497E+02  0.00000000000E+00 0.  1.
<mgrwt>
<rscale>  0 0.91212026E+02</rscale>
<asrwt>0</asrwt>
<pdfrwt beam="1">  1        1 0.33457026E-02 0.91212026E+02</pdfrwt>
<pdfrwt beam="2">  1       -1 0.14713980E-01 0.91212026E+02</pdfrwt>
<totfact> 0.81959338E+04</totfact>
</mgrwt>
</event>
<event>
 7    1  0.3345055E-009  0.9147081E+02  0.7818608E-02  0.1299329E+00
         -1   -1    0    0    0  501 -0.00000000000E+00  0.00000000000E+00  0.11486133102E+02  0.11486134208E+02  0.50400000000E-02 0.  1.
          1   -1    0    0  501    0  0.00000000000E+00 -0.00000000000E+00 -0.18210889517E+03  0.18210889523E+03  0.50400000000E-02 0. -1.
         23    2    1    2    0    0 -0.35527136788E-14  0.17763568394E-14 -0.17062276206E+03  0.19359502944E+03  0.91470806769E+02 0.  0.
    9000005    2    3    3    0    0  0.24344308959E+02 -0.14891660771E+02 -0.16006829936E+03  0.16316800819E+03  0.13694214041E+02 0.  0.
         22    1    3    3    0    0 -0.24344308959E+02  0.14891660771E+02 -0.10554462703E+02  0.30427021251E+02  0.00000000000E+00 0.  1.
         22    1    4    4    0    0  0.10411263991E+02 -0.12079758591E+02 -0.10892686813E+03  0.11008804470E+03  0.00000000000E+00 0. -1.
         22    1    4    4    0    0  0.13933044969E+02 -0.28119021808E+01 -0.51141431228E+02  0.53079963489E+02  0.00000000000E+00 0. -1.
<mgrwt>
<rscale>  0 0.91470807E+02</rscale>
<asrwt>0</asrwt>
<pdfrwt beam="2">  1        1 0.28016751E-01 0.91470807E+02</pdfrwt>
<pdfrwt beam="1">  1       -1 0.17670976E-02 0.91470807E+02</pdfrwt>
<totfact> 0.11528289E+05</totfact>
</mgrwt>
</event>
<event>
 7    1  0.3345055E-009  0.9226946E+02  0.7818608E-02  0.1297447E+00
         -1   -1    0    0    0  501 -0.00000000000E+00  0.00000000000E+00  0.21924090486E+02  0.21924091065E+02  0.50400000000E-02 0.  1.
          1   -1    0    0  501    0  0.00000000000E+00 -0.00000000000E+00 -0.97081028916E+02  0.97081029047E+02  0.50400000000E-02 0. -1.
         23    2    1    2    0    0  0.00000000000E+00  0.00000000000E+00 -0.75156938430E+02  0.11900512011E+03  0.92269459837E+02 0.  0.
    9000005    2    3    3    0    0  0.55622337950E+01  0.42962312049E+02 -0.58021737437E+02  0.72418493120E+02  0.11033717309E+01 0.  0.
         22    1    3    3    0    0 -0.55622337950E+01 -0.42962312049E+02 -0.17135200994E+02  0.46586626992E+02  0.00000000000E+00 0.  1.
         22    1    4    4    0    0  0.65976619398E+00  0.69954244907E+01 -0.88739299551E+01  0.11318917266E+02  0.00000000000E+00 0. -1.
         22    1    4    4    0    0  0.49024676010E+01  0.35966887559E+02 -0.49147807481E+02  0.61099575853E+02  0.00000000000E+00 0. -1.
<mgrwt>
<rscale>  0 0.92269460E+02</rscale>
<asrwt>0</asrwt>
<pdfrwt beam="2">  1        1 0.14935543E-01 0.92269460E+02</pdfrwt>
<pdfrwt beam="1">  1       -1 0.33729371E-02 0.92269460E+02</pdfrwt>
<totfact> 0.10061086E+05</totfact>
</mgrwt>
</event>
<event>
 7    1  0.3345055E-009  0.9027663E+02  0.7818608E-02  0.1302183E+00
          1   -1    0    0  501    0  0.00000000000E+00  0.00000000000E+00  0.23174384780E+03  0.23174384786E+03  0.50400000000E-02 0. -1.
         -1   -1    0    0    0  501 -0.00000000000E+00 -0.00000000000E+00 -0.87918935276E+01  0.87918949722E+01  0.50400000000E-02 0.  1.
         23    2    1    2    0    0  0.17763568394E-14  0.00000000000E+00  0.22295195427E+03  0.24053574283E+03  0.90276628556E+02 0.  0.
    9000005    2    3    3    0    0  0.90651911401E+01 -0.31971997135E+02  0.37054230923E+02  0.51690965728E+02  0.13948247824E+02 0.  0.
         22    1    3    3    0    0 -0.90651911401E+01  0.31971997135E+02  0.18589772335E+03  0.18884477710E+03  0.00000000000E+00 0. -1.
         22    1    4    4    0    0 -0.20145327826E+01 -0.12012863480E+02  0.19076814309E+02  0.22633870095E+02  0.00000000000E+00 0. -1.
         22    1    4    4    0    0  0.11079723923E+02 -0.19959133655E+02  0.17977416614E+02  0.29057095632E+02  0.00000000000E+00 0. -1.
<mgrwt>
<rscale>  0 0.90276629E+02</rscale>
<asrwt>0</asrwt>
<pdfrwt beam="1">  1        1 0.35652900E-01 0.90276629E+02</pdfrwt>
<pdfrwt beam="2">  1       -1 0.13525991E-02 0.90276629E+02</pdfrwt>
<totfact> 0.12512834E+05</totfact>
</mgrwt>
</event>
<event>
 7    1  0.3345055E-009  0.9110113E+02  0.7818608E-02  0.1300207E+00
          1   -1    0    0  501    0  0.00000000000E+00  0.00000000000E+00  0.13654505938E+02  0.13654506869E+02  0.50400000000E-02 0. -1.
         -1   -1    0    0    0  501 -0.00000000000E+00 -0.00000000000E+00 -0.15195377177E+03  0.15195377185E+03  0.50400000000E-02 0.  1.
         23    2    1    2    0    0  0.00000000000E+00  0.00000000000E+00 -0.13829926583E+03  0.16560827872E+03  0.91101125414E+02 0.  0.
    9000005    2    3    3    0    0  0.36513994549E+02  0.20582210789E+01 -0.11792840601E+03  0.12374564620E+03  0.82684905877E+01 0.  0.
         22    1    3    3    0    0 -0.36513994549E+02 -0.20582210789E+01 -0.20370859817E+02  0.41862632521E+02  0.00000000000E+00 0. -1.
         22    1    4    4    0    0  0.36339736957E+02  0.30481989309E+01 -0.11539363860E+03  0.12101884080E+03  0.00000000000E+00 0.  1.
         22    1    4    4    0    0  0.17425759153E+00 -0.98997785203E+00 -0.25347674082E+01  0.27268053963E+01  0.00000000000E+00 0.  1.
<mgrwt>
<rscale>  0 0.91101125E+02</rscale>
<asrwt>0</asrwt>
<pdfrwt beam="1">  1        1 0.21006934E-02 0.91101125E+02</pdfrwt>
<pdfrwt beam="2">  1       -1 0.23377502E-01 0.91101125E+02</pdfrwt>
<totfact> 0.74722428E+04</totfact>
</mgrwt>
</event>
<event>
 7    1  0.3345055E-009  0.9127105E+02  0.7818608E-02  0.1299803E+00
          1   -1    0    0  501    0  0.00000000000E+00  0.00000000000E+00  0.18931361802E+02  0.18931362473E+02  0.50400000000E-02 0. -1.
         -1   -1    0    0    0  501 -0.00000000000E+00 -0.00000000000E+00 -0.11000799848E+03  0.11000799859E+03  0.50400000000E-02 0.  1.
         23    2    1    2    0    0  0.00000000000E+00  0.00000000000E+00 -0.91076636677E+02  0.12893936107E+03  0.91271052826E+02 0.  0.
    9000005    2    3    3    0    0 -0.28645709397E+02  0.28799904333E+02 -0.20468534264E+02  0.47480688829E+02  0.13617773691E+02 0.  0.
         22    1    3    3    0    0  0.28645709397E+02 -0.28799904333E+02 -0.70608102413E+02  0.81458672238E+02  0.00000000000E+00 0. -1.
         22    1    4    4    0    0 -0.25565825638E+02  0.24114731482E+02 -0.11639399752E+02  0.37021714461E+02  0.00000000000E+00 0.  1.
         22    1    4    4    0    0 -0.30798837581E+01  0.46851728517E+01 -0.88291345113E+01  0.10458974368E+02  0.00000000000E+00 0.  1.
<mgrwt>
<rscale>  0 0.91271053E+02</rscale>
<asrwt>0</asrwt>
<pdfrwt beam="1">  1        1 0.29125173E-02 0.91271053E+02</pdfrwt>
<pdfrwt beam="2">  1       -1 0.16924307E-01 0.91271053E+02</pdfrwt>
<totfact> 0.79693352E+04</totfact>
</mgrwt>
</event>
<event>
 7    1  0.3686828E-009  0.9010924E+02  0.7818608E-02  0.1302587E+00
         -1   -1    0    0    0  501 -0.00000000000E+00  0.00000000000E+00  0.22591993829E+02  0.22591994391E+02  0.50400000000E-02 0.  1.
          1   -1    0    0  501    0  0.00000000000E+00 -0.00000000000E+00 -0.89851250947E+02  0.89851251088E+02  0.50400000000E-02 0. -1.
         23    2    1    2    0    0  0.00000000000E+00  0.00000000000E+00 -0.67259257118E+02  0.11244324548E+03  0.90109243620E+02 0.  0.
    9000005    2    3    3    0    0  0.39383573268E+02 -0.10137717106E+02 -0.14455196718E+02  0.45794104854E+02  0.15307128264E+02 0.  0.
         22    1    3    3    0    0 -0.39383573268E+02  0.10137717106E+02 -0.52804060400E+02  0.66649140626E+02  0.00000000000E+00 0. -1.
         22    1    4    4    0    0  0.72401968266E+01 -0.83217586937E+01 -0.16813388004E+01  0.11157912798E+02  0.00000000000E+00 0. -1.
         22    1    4    4    0    0  0.32143376441E+02 -0.18159584120E+01 -0.12773857918E+02  0.34636192056E+02  0.00000000000E+00 0. -1.
<mgrwt>
<rscale>  0 0.90109244E+02</rscale>
<asrwt>0</asrwt>
<pdfrwt beam="2">  1        1 0.13823269E-01 0.90109244E+02</pdfrwt>
<pdfrwt beam="1">  1       -1 0.34756915E-02 0.90109244E+02</pdfrwt>
<totfact> 0.10598735E+05</totfact>
</mgrwt>
</event>
<event>
 7    1  0.3345055E-009  0.8771238E+02  0.7818608E-02  0.1308488E+00
         -1   -1    0    0    0  501 -0.00000000000E+00  0.00000000000E+00  0.75488742677E+02  0.75488742845E+02  0.50400000000E-02 0.  1.
          1   -1    0    0  501    0  0.00000000000E+00 -0.00000000000E+00 -0.25478839235E+02  0.25478839734E+02  0.50400000000E-02 0. -1.
         23    2    1    2    0    0  0.35527136788E-14  0.35527136788E-14  0.50009903442E+02  0.10096758258E+03  0.87712383901E+02 0.  0.
    9000005    2    3    3    0    0  0.16930490854E+02  0.30973679822E+02  0.53356451431E+02  0.65510428918E+02  0.14095922300E+02 0.  0.
         22    1    3    3    0    0 -0.16930490854E+02 -0.30973679822E+02 -0.33465479897E+01  0.35457153660E+02  0.00000000000E+00 0. -1.
         22    1    4    4    0    0  0.15713766117E+02  0.16400488382E+02  0.38247280350E+02  0.44483175684E+02  0.00000000000E+00 0.  1.
         22    1    4    4    0    0  0.12167247365E+01  0.14573191440E+02  0.15109171081E+02  0.21027253234E+02  0.00000000000E+00 0.  1.
<mgrwt>
<rscale>  0 0.87712384E+02</rscale>
<asrwt>0</asrwt>
<pdfrwt beam="2">  1        1 0.39198215E-02 0.87712384E+02</pdfrwt>
<pdfrwt beam="1">  1       -1 0.11613653E-01 0.87712384E+02</pdfrwt>
<totfact> 0.94359050E+04</totfact>
</mgrwt>
</event>
<event>
 7    1  0.3345055E-009  0.9110931E+02  0.7818608E-02  0.1300187E+00
          1   -1    0    0  501    0  0.00000000000E+00  0.00000000000E+00  0.43029433081E+02  0.43029433376E+02  0.50400000000E-02 0. -1.
         -1   -1    0    0    0  501 -0.00000000000E+00 -0.00000000000E+00 -0.48228072316E+02  0.48228072579E+02  0.50400000000E-02 0.  1.
         23    2    1    2    0    0  0.00000000000E+00  0.00000000000E+00 -0.51986392349E+01  0.91257505956E+02  0.91109310959E+02 0.  0.
    9000005    2    3    3    0    0 -0.13915593920E+02  0.16160443211E+02  0.36522127647E+02  0.44402132004E+02  0.13523307274E+02 0.  0.
         22    1    3    3    0    0  0.13915593920E+02 -0.16160443211E+02 -0.41720766882E+02  0.46855373952E+02  0.00000000000E+00 0.  1.
         22    1    4    4    0    0 -0.65318425899E+01  0.11269705780E+02  0.99452302323E+01  0.16388375159E+02  0.00000000000E+00 0.  1.
         22    1    4    4    0    0 -0.73837513304E+01  0.48907374313E+01  0.26576897415E+02  0.28013756845E+02  0.00000000000E+00 0.  1.
<mgrwt>
<rscale>  0 0.91109311E+02</rscale>
<asrwt>0</asrwt>
<pdfrwt beam="1">  1        1 0.66199128E-02 0.91109311E+02</pdfrwt>
<pdfrwt beam="2">  1       -1 0.74197035E-02 0.91109311E+02</pdfrwt>
<totfact> 0.91862821E+04</totfact>
</mgrwt>
</event>
<event>
 6    1  0.3345055E-009  0.1400013E+03  0.7818608E-02  0.1213327E+00
         -1   -1    0    0    0  501 -0.00000000000E+00  0.00000000000E+00  0.20318535581E+02  0.20318536206E+02  0.50400000000E-02 0.  1.
          1   -1    0    0  501    0  0.00000000000E+00 -0.00000000000E+00 -0.24116355109E+03  0.24116355114E+03  0.50400000000E-02 0. -1.
    9000005    2    1    2    0    0 -0.14693042133E+02 -0.67641888421E+02 -0.11603252367E+03  0.13587568225E+03  0.14399441703E+02 0.  0.
         22    1    1    2    0    0  0.14693042133E+02  0.67641888421E+02 -0.10481249184E+03  0.12560640510E+03  0.00000000000E+00 0.  1.
         22    1    3    3    0    0 -0.94508672861E+00 -0.67291108854E+01 -0.48195579157E+01  0.83308019263E+01  0.00000000000E+00 0.  1.
         22    1    3    3    0    0 -0.13747955404E+02 -0.60912777536E+02 -0.11121296575E+03  0.12754488032E+03  0.00000000000E+00 0.  1.
<mgrwt>
<rscale>  0 0.14000129E+03</rscale>
<asrwt>0</asrwt>
<pdfrwt beam="2">  1        1 0.37102083E-01 0.14000129E+03</pdfrwt>
<pdfrwt beam="1">  1       -1 0.31259288E-02 0.14000129E+03</pdfrwt>
<totfact> 0.37942723E+04</totfact>
</mgrwt>
</event>
<event>
 7    1  0.3345055E-009  0.9118550E+02  0.7818608E-02  0.1300006E+00
          1   -1    0    0  501    0  0.00000000000E+00  0.00000000000E+00  0.34269861479E+03  0.34269861483E+03  0.50400000000E-02 0. -1.
         -1   -1    0    0    0  501 -0.00000000000E+00 -0.00000000000E+00 -0.60656754002E+01  0.60656774941E+01  0.50400000000E-02 0.  1.
         23    2    1    2    0    0  0.35527136788E-14  0.00000000000E+00  0.33663293939E+03  0.34876429232E+03  0.91185501677E+02 0.  0.
    9000005    2    3    3    0    0 -0.24603088020E+02 -0.35877218739E+02  0.14110994834E+03  0.14846020651E+03  0.15359968465E+02 0.  0.
         22    1    3    3    0    0  0.24603088020E+02  0.35877218739E+02  0.19552299105E+03  0.20030408581E+03  0.00000000000E+00 0. -1.
         22    1    4    4    0    0 -0.38611151087E+01  0.38160317304E+00  0.19318790320E+02  0.19704555065E+02  0.00000000000E+00 0. -1.
         22    1    4    4    0    0 -0.20741972911E+02 -0.36258821912E+02  0.12179115802E+03  0.12875565144E+03  0.00000000000E+00 0. -1.
<mgrwt>
<rscale>  0 0.91185502E+02</rscale>
<asrwt>0</asrwt>
<pdfrwt beam="1">  1        1 0.52722885E-01 0.91185502E+02</pdfrwt>
<pdfrwt beam="2">  1       -1 0.93318062E-03 0.91185502E+02</pdfrwt>
<totfact> 0.13130108E+05</totfact>
</mgrwt>
</event>
<event>
 7    1  0.3345055E-009  0.9313756E+02  0.7818608E-02  0.1295427E+00
          1   -1    0    0  501    0  0.00000000000E+00  0.00000000000E+00  0.35410230402E+03  0.35410230406E+03  0.50400000000E-02 0. -1.
         -1   -1    0    0    0  501 -0.00000000000E+00 -0.00000000000E+00 -0.61243622528E+01  0.61243643266E+01  0.50400000000E-02 0.  1.
         23    2    1    2    0    0  0.71054273576E-14  0.00000000000E+00  0.34797794177E+03  0.36022666839E+03  0.93137557717E+02 0.  0.
    9000005    2    3    3    0    0  0.42296113854E+02 -0.11670042104E+02  0.12622670198E+03  0.13417631232E+03  0.12039574932E+02 0.  0.
         22    1    3    3    0    0 -0.42296113854E+02  0.11670042104E+02  0.22175123979E+03  0.22605035607E+03  0.00000000000E+00 0. -1.
         22    1    4    4    0    0  0.65377010022E+00 -0.58275770469E+00  0.12951557575E+02  0.12981134985E+02  0.00000000000E+00 0. -1.
         22    1    4    4    0    0  0.41642343754E+02 -0.11087284400E+02  0.11327514441E+03  0.12119517734E+03  0.00000000000E+00 0. -1.
<mgrwt>
<rscale>  0 0.93137558E+02</rscale>
<asrwt>0</asrwt>
<pdfrwt beam="1">  1        1 0.54477288E-01 0.93137558E+02</pdfrwt>
<pdfrwt beam="2">  1       -1 0.94220955E-03 0.93137558E+02</pdfrwt>
<totfact> 0.12482900E+05</totfact>
</mgrwt>
</event>
<event>
 7    1  0.3345055E-009  0.9149243E+02  0.7818608E-02  0.1299277E+00
          1   -1    0    0  501    0  0.00000000000E+00  0.00000000000E+00  0.10819833066E+03  0.10819833078E+03  0.50400000000E-02 0. -1.
         -1   -1    0    0    0  501 -0.00000000000E+00 -0.00000000000E+00 -0.19341483991E+02  0.19341484648E+02  0.50400000000E-02 0.  1.
         23    2    1    2    0    0 -0.88817841970E-15 -0.35527136788E-14  0.88856846673E+02  0.12753981543E+03  0.91492433124E+02 0.  0.
    9000005    2    3    3    0    0 -0.74669351166E+01 -0.28337980009E+02 -0.36719160978E+01  0.30481234299E+02  0.75383317510E+01 0.  0.
         22    1    3    3    0    0  0.74669351166E+01  0.28337980009E+02  0.92528762771E+02  0.97058581129E+02  0.00000000000E+00 0. -1.
         22    1    4    4    0    0  0.12628665235E+01 -0.53714309170E+01 -0.19458926624E+01  0.58509486586E+01  0.00000000000E+00 0.  1.
         22    1    4    4    0    0 -0.87298016400E+01 -0.22966549092E+02 -0.17260234355E+01  0.24630285641E+02  0.00000000000E+00 0.  1.
<mgrwt>
<rscale>  0 0.91492433E+02</rscale>
<asrwt>0</asrwt>
<pdfrwt beam="1">  1        1 0.16645897E-01 0.91492433E+02</pdfrwt>
<pdfrwt beam="2">  1       -1 0.29756129E-02 0.91492433E+02</pdfrwt>
<totfact> 0.10485128E+05</totfact>
</mgrwt>
</event>
<event>
 7    1  0.3345055E-009  0.9199478E+02  0.7818608E-02  0.1298092E+00
          1   -1    0    0  501    0  0.00000000000E+00  0.00000000000E+00  0.46403944390E+02  0.46403944663E+02  0.50400000000E-02 0. -1.
         -1   -1    0    0    0  501 -0.00000000000E+00 -0.00000000000E+00 -0.45594393349E+02  0.45594393628E+02  0.50400000000E-02 0.  1.
         23    2    1    2    0    0 -0.17763568394E-14  0.00000000000E+00  0.80955104033E+00  0.91998338291E+02  0.91994776349E+02 0.  0.
    9000005    2    3    3    0    0 -0.13689994994E+02  0.28663237263E+02 -0.30976117755E+02  0.47061428361E+02  0.15692706424E+02 0.  0.
         22    1    3    3    0    0  0.13689994994E+02 -0.28663237263E+02  0.31785668795E+02  0.44936909930E+02  0.00000000000E+00 0. -1.
         22    1    4    4    0    0 -0.13915054378E+01  0.20586471240E+02 -0.19653959299E+02  0.28495915525E+02  0.00000000000E+00 0. -1.
         22    1    4    4    0    0 -0.12298489557E+02  0.80767660229E+01 -0.11322158456E+02  0.18565512836E+02  0.00000000000E+00 0. -1.
<mgrwt>
<rscale>  0 0.91994776E+02</rscale>
<asrwt>0</asrwt>
<pdfrwt beam="1">  1        1 0.71390684E-02 0.91994776E+02</pdfrwt>
<pdfrwt beam="2">  1       -1 0.70145221E-02 0.91994776E+02</pdfrwt>
<totfact> 0.90421604E+04</totfact>
</mgrwt>
</event>
<event>
 7    1  0.4056429E-009  0.9682961E+02  0.7818608E-02  0.1287108E+00
          1   -1    0    0  501    0  0.00000000000E+00  0.00000000000E+00  0.28217522310E+03  0.28217522314E+03  0.50400000000E-02 0. -1.
         -1   -1    0    0    0  501 -0.00000000000E+00 -0.00000000000E+00 -0.83068713386E+01  0.83068728675E+01  0.50400000000E-02 0.  1.
         23    2    1    2    0    0  0.00000000000E+00  0.00000000000E+00  0.27386835176E+03  0.29048209601E+03  0.96829613276E+02 0.  0.
    9000005    2    3    3    0    0  0.20614389313E+02  0.18544869880E+02  0.25539800137E+03  0.25716514703E+03  0.11700790582E+02 0.  0.
         22    1    3    3    0    0 -0.20614389313E+02 -0.18544869880E+02  0.18470350394E+02  0.33316948979E+02  0.00000000000E+00 0.  1.
         22    1    4    4    0    0  0.12178206428E+01  0.77661989572E+01  0.60827300469E+02  0.61333167338E+02  0.00000000000E+00 0. -1.
         22    1    4    4    0    0  0.19396568670E+02  0.10778670923E+02  0.19457070090E+03  0.19583197969E+03  0.00000000000E+00 0. -1.
<mgrwt>
<rscale>  0 0.96829613E+02</rscale>
<asrwt>0</asrwt>
<pdfrwt beam="1">  1        1 0.43411578E-01 0.96829613E+02</pdfrwt>
<pdfrwt beam="2">  1       -1 0.12779802E-02 0.96829613E+02</pdfrwt>
<totfact> 0.10779298E+05</totfact>
</mgrwt>
</event>
<event>
 7    1  0.3345055E-009  0.8998917E+02  0.7818608E-02  0.1302878E+00
         -1   -1    0    0    0  501 -0.00000000000E+00  0.00000000000E+00  0.88847157520E+02  0.88847157663E+02  0.50400000000E-02 0.  1.
          1   -1    0    0  501    0  0.00000000000E+00 -0.00000000000E+00 -0.22786464937E+02  0.22786465495E+02  0.50400000000E-02 0. -1.
         23    2    1    2    0    0  0.00000000000E+00  0.00000000000E+00  0.66060692583E+02  0.11163362316E+03  0.89989169986E+02 0.  0.
    9000005    2    3    3    0    0 -0.34466056546E+01  0.95180245719E+01  0.87276817427E+02  0.88126266103E+02  0.68208529389E+01 0.  0.
         22    1    3    3    0    0  0.34466056546E+01 -0.95180245719E+01 -0.21216124844E+02  0.23507357054E+02  0.00000000000E+00 0. -1.
         22    1    4    4    0    0  0.76493521217E+00  0.63324537097E+01  0.60380537034E+02  0.60716508039E+02  0.00000000000E+00 0. -1.
         22    1    4    4    0    0 -0.42115408667E+01  0.31855708622E+01  0.26896280393E+02  0.27409758064E+02  0.00000000000E+00 0. -1.
<mgrwt>
<rscale>  0 0.89989170E+02</rscale>
<asrwt>0</asrwt>
<pdfrwt beam="2">  1        1 0.35056101E-02 0.89989170E+02</pdfrwt>
<pdfrwt beam="1">  1       -1 0.13668793E-01 0.89989170E+02</pdfrwt>
<totfact> 0.85974702E+04</totfact>
</mgrwt>
</event>
<event>
 7    1  0.3345055E-009  0.9214824E+02  0.7818608E-02  0.1297731E+00
         -1   -1    0    0    0  501 -0.00000000000E+00  0.00000000000E+00  0.11963151470E+03  0.11963151480E+03  0.50400000000E-02 0.  1.
          1   -1    0    0  501    0  0.00000000000E+00 -0.00000000000E+00 -0.17744693957E+02  0.17744694673E+02  0.50400000000E-02 0. -1.
         23    2    1    2    0    0 -0.35527136788E-14  0.00000000000E+00  0.10188682074E+03  0.13737620948E+03  0.92148243008E+02 0.  0.
    9000005    2    3    3    0    0  0.24799013643E+02  0.35429662827E+02  0.73261770800E+02  0.85514416509E+02  0.86704258476E+01 0.  0.
         22    1    3    3    0    0 -0.24799013643E+02 -0.35429662827E+02  0.28625049939E+02  0.51861792967E+02  0.00000000000E+00 0. -1.
         22    1    4    4    0    0  0.91758981328E+01  0.70027450717E+01  0.16472045764E+02  0.20113772315E+02  0.00000000000E+00 0. -1.
         22    1    4    4    0    0  0.15623115510E+02  0.28426917755E+02  0.56789725036E+02  0.65400644194E+02  0.00000000000E+00 0. -1.
<mgrwt>
<rscale>  0 0.92148243E+02</rscale>
<asrwt>0</asrwt>
<pdfrwt beam="2">  1        1 0.27299530E-02 0.92148243E+02</pdfrwt>
<pdfrwt beam="1">  1       -1 0.18404849E-01 0.92148243E+02</pdfrwt>
<totfact> 0.76454080E+04</totfact>
</mgrwt>
</event>
<event>
 7    1  0.3345055E-009  0.9043107E+02  0.7818608E-02  0.1301811E+00
         -1   -1    0    0    0  501 -0.00000000000E+00  0.00000000000E+00  0.34859618513E+01  0.34859654947E+01  0.50400000000E-02 0.  1.
          1   -1    0    0  501    0  0.00000000000E+00 -0.00000000000E+00 -0.58647904532E+03  0.58647904534E+03  0.50400000000E-02 0. -1.
         23    2    1    2    0    0  0.00000000000E+00  0.00000000000E+00 -0.58299308347E+03  0.58996501084E+03  0.90431071203E+02 0.  0.
    9000005    2    3    3    0    0 -0.37962381973E+02 -0.16587680921E+02 -0.40634091444E+03  0.40852002627E+03  0.77058100603E+01 0.  0.
         22    1    3    3    0    0  0.37962381973E+02  0.16587680921E+02 -0.17665216903E+03  0.18144498457E+03  0.00000000000E+00 0.  1.
         22    1    4    4    0    0 -0.26772596204E+02 -0.13490014864E+02 -0.26100522879E+03  0.26272130074E+03  0.00000000000E+00 0.  1.
         22    1    4    4    0    0 -0.11189785769E+02 -0.30976660568E+01 -0.14533568565E+03  0.14579872552E+03  0.00000000000E+00 0.  1.
<mgrwt>
<rscale>  0 0.90431071E+02</rscale>
<asrwt>0</asrwt>
<pdfrwt beam="2">  1        1 0.90227467E-01 0.90431071E+02</pdfrwt>
<pdfrwt beam="1">  1       -1 0.53630257E-03 0.90431071E+02</pdfrwt>
<totfact> 0.14448628E+05</totfact>
</mgrwt>
</event>
<event>
 7    1  0.3345055E-009  0.9161284E+02  0.7818608E-02  0.1298992E+00
          1   -1    0    0  501    0  0.00000000000E+00  0.00000000000E+00  0.86029814165E+02  0.86029814313E+02  0.50400000000E-02 0. -1.
         -1   -1    0    0    0  501 -0.00000000000E+00 -0.00000000000E+00 -0.24389543471E+02  0.24389543992E+02  0.50400000000E-02 0.  1.
         23    2    1    2    0    0  0.00000000000E+00  0.00000000000E+00  0.61640270694E+02  0.11041935830E+03  0.91612835985E+02 0.  0.
    9000005    2    3    3    0    0  0.16118945646E+02  0.11950159826E+02 -0.18277899533E+02  0.28020689256E+02  0.69606527338E+01 0.  0.
         22    1    3    3    0    0 -0.16118945646E+02 -0.11950159826E+02  0.79918170227E+02  0.82398669049E+02  0.00000000000E+00 0. -1.
         22    1    4    4    0    0  0.41267143505E+01  0.60107116052E+01 -0.96630903988E+01  0.12105112201E+02  0.00000000000E+00 0. -1.
         22    1    4    4    0    0  0.11992231295E+02  0.59394482203E+01 -0.86148091338E+01  0.15915577056E+02  0.00000000000E+00 0. -1.
<mgrwt>
<rscale>  0 0.91612836E+02</rscale>
<asrwt>0</asrwt>
<pdfrwt beam="1">  1        1 0.13235356E-01 0.91612836E+02</pdfrwt>
<pdfrwt beam="2">  1       -1 0.37522375E-02 0.91612836E+02</pdfrwt>
<totfact> 0.10059142E+05</totfact>
</mgrwt>
</event>
<event>
 7    1  0.3345055E-009  0.9018106E+02  0.7818608E-02  0.1302414E+00
         -1   -1    0    0    0  501 -0.00000000000E+00  0.00000000000E+00  0.71797354259E+01  0.71797371949E+01  0.50400000000E-02 0.  1.
          1   -1    0    0  501    0  0.00000000000E+00 -0.00000000000E+00 -0.28317975179E+03  0.28317975183E+03  0.50400000000E-02 0. -1.
         23    2    1    2    0    0  0.00000000000E+00 -0.35527136788E-14 -0.27600001636E+03  0.29035948903E+03  0.90181061407E+02 0.  0.
    9000005    2    3    3    0    0  0.31503874280E+02 -0.19536517330E+02 -0.60429184853E+02  0.71624596975E+02  0.10209157933E+02 0.  0.
         22    1    3    3    0    0 -0.31503874280E+02  0.19536517330E+02 -0.21557083151E+03  0.21873489205E+03  0.00000000000E+00 0. -1.
         22    1    4    4    0    0  0.37767936640E+01 -0.17941943134E+01 -0.14677793834E+02  0.15261747458E+02  0.00000000000E+00 0.  1.
         22    1    4    4    0    0  0.27727080616E+02 -0.17742323016E+02 -0.45751391019E+02  0.56362849517E+02  0.00000000000E+00 0.  1.
<mgrwt>
<rscale>  0 0.90181061E+02</rscale>
<asrwt>0</asrwt>
<pdfrwt beam="2">  1        1 0.43566107E-01 0.90181061E+02</pdfrwt>
<pdfrwt beam="1">  1       -1 0.11045750E-02 0.90181061E+02</pdfrwt>
<totfact> 0.13047117E+05</totfact>
</mgrwt>
</event>
<event>
 7    1  0.3345055E-009  0.9492837E+02  0.7818608E-02  0.1291337E+00
         -1   -1    0    0    0  501 -0.00000000000E+00  0.00000000000E+00  0.38601294439E+03  0.38601294443E+03  0.50400000000E-02 0.  1.
          1   -1    0    0  501    0  0.00000000000E+00 -0.00000000000E+00 -0.58361994496E+01  0.58362016258E+01  0.50400000000E-02 0. -1.
         23    2    1    2    0    0  0.00000000000E+00  0.00000000000E+00  0.38017674495E+03  0.39184914605E+03  0.94928372291E+02 0.  0.
    9000005    2    3    3    0    0  0.39741671425E+02 -0.15775857559E+02  0.27493327037E+03  0.27825131566E+03  0.26857737993E+01 0.  0.
         22    1    3    3    0    0 -0.39741671425E+02  0.15775857559E+02  0.10524347457E+03  0.11359783039E+03  0.00000000000E+00 0.  1.
         22    1    4    4    0    0  0.31082981717E+02 -0.13456605635E+02  0.21519474104E+03  0.21784400052E+03  0.00000000000E+00 0. -1.
         22    1    4    4    0    0  0.86586897073E+01 -0.23192519243E+01  0.59738529329E+02  0.60407315147E+02  0.00000000000E+00 0. -1.
<mgrwt>
<rscale>  0 0.94928372E+02</rscale>
<asrwt>0</asrwt>
<pdfrwt beam="2">  1        1 0.89787692E-03 0.94928372E+02</pdfrwt>
<pdfrwt beam="1">  1       -1 0.59386613E-01 0.94928372E+02</pdfrwt>
<totfact> 0.48794717E+04</totfact>
</mgrwt>
</event>
<event>
 7    1  0.3348544E-009  0.9089106E+02  0.7818608E-02  0.1300708E+00
          1   -1    0    0  501    0  0.00000000000E+00  0.00000000000E+00  0.24921126154E+03  0.24921126159E+03  0.50400000000E-02 0. -1.
         -1   -1    0    0    0  501 -0.00000000000E+00 -0.00000000000E+00 -0.82873309114E+01  0.82873324440E+01  0.50400000000E-02 0.  1.
         23    2    1    2    0    0  0.00000000000E+00 -0.35527136788E-14  0.24092393063E+03  0.25749859404E+03  0.90891064360E+02 0.  0.
    9000005    2    3    3    0    0 -0.32365803354E+02 -0.30177539905E+02  0.13480566431E+03  0.14252331152E+03  0.13494371305E+02 0.  0.
         22    1    3    3    0    0  0.32365803354E+02  0.30177539905E+02  0.10611826632E+03  0.11497528251E+03  0.00000000000E+00 0. -1.
         22    1    4    4    0    0 -0.18865080008E+01 -0.43425876251E+01  0.58855831386E+01  0.75536129502E+01  0.00000000000E+00 0.  1.
         22    1    4    4    0    0 -0.30479295353E+02 -0.25834952280E+02  0.12892008117E+03  0.13496969857E+03  0.00000000000E+00 0.  1.
<mgrwt>
<rscale>  0 0.90891064E+02</rscale>
<asrwt>0</asrwt>
<pdfrwt beam="1">  1        1 0.38340192E-01 0.90891064E+02</pdfrwt>
<pdfrwt beam="2">  1       -1 0.12749742E-02 0.90891064E+02</pdfrwt>
<totfact> 0.12463467E+05</totfact>
</mgrwt>
</event>
<event>
 6    1  0.3345055E-009  0.4732995E+03  0.7818608E-02  0.1020993E+00
          1   -1    0    0  501    0  0.00000000000E+00  0.00000000000E+00  0.14811803090E+03  0.14811803099E+03  0.50400000000E-02 0. -1.
         -1   -1    0    0    0  501 -0.00000000000E+00 -0.00000000000E+00 -0.37809778772E+03  0.37809778776E+03  0.50400000000E-02 0.  1.
    9000005    2    1    2    0    0  0.96585370615E+02 -0.89850849253E+01  0.12496570846E+03  0.15825420541E+03  0.43011243885E+01 0.  0.
         22    1    1    2    0    0 -0.96585370615E+02  0.89850849253E+01 -0.35494546528E+03  0.36796161334E+03  0.00000000000E+00 0.  1.
         22    1    3    3    0    0  0.58857701173E+01 -0.14945609456E+01  0.71231307431E+01  0.93602881300E+01  0.00000000000E+00 0.  1.
         22    1    3    3    0    0  0.90699600498E+02 -0.74905239797E+01  0.11784257772E+03  0.14889391728E+03  0.00000000000E+00 0.  1.
<mgrwt>
<rscale>  0 0.47329948E+03</rscale>
<asrwt>0</asrwt>
<pdfrwt beam="1">  1        1 0.22787390E-01 0.47329948E+03</pdfrwt>
<pdfrwt beam="2">  1       -1 0.58168890E-01 0.47329948E+03</pdfrwt>
<totfact> 0.66633078E+02</totfact>
</mgrwt>
</event>
<event>
 7    1  0.3345055E-009  0.9216230E+02  0.7818608E-02  0.1297698E+00
          1   -1    0    0  501    0  0.00000000000E+00  0.00000000000E+00  0.96076467755E+02  0.96076467888E+02  0.50400000000E-02 0. -1.
         -1   -1    0    0    0  501 -0.00000000000E+00 -0.00000000000E+00 -0.22101899295E+02  0.22101899870E+02  0.50400000000E-02 0.  1.
         23    2    1    2    0    0  0.00000000000E+00  0.00000000000E+00  0.73974568460E+02  0.11817836776E+03  0.92162301550E+02 0.  0.
    9000005    2    3    3    0    0  0.19307813819E+02 -0.11083833163E+02  0.88642224726E+02  0.91517850651E+02  0.47360269624E+01 0.  0.
         22    1    3    3    0    0 -0.19307813819E+02  0.11083833163E+02 -0.14667656266E+02  0.26660517107E+02  0.00000000000E+00 0.  1.
         22    1    4    4    0    0  0.57994989602E+01 -0.10429836097E+01  0.25354132063E+02  0.26029867761E+02  0.00000000000E+00 0. -1.
         22    1    4    4    0    0  0.13508314859E+02 -0.10040849554E+02  0.63288092663E+02  0.65487982890E+02  0.00000000000E+00 0. -1.
<mgrwt>
<rscale>  0 0.92162302E+02</rscale>
<asrwt>0</asrwt>
<pdfrwt beam="1">  1        1 0.14780995E-01 0.92162302E+02</pdfrwt>
<pdfrwt beam="2">  1       -1 0.34002923E-02 0.92162302E+02</pdfrwt>
<totfact> 0.10075726E+05</totfact>
</mgrwt>
</event>
<event>
 7    1  0.3345055E-009  0.9101741E+02  0.7818608E-02  0.1300406E+00
          1   -1    0    0  501    0  0.00000000000E+00  0.00000000000E+00  0.72189502845E+01  0.72189520439E+01  0.50400000000E-02 0. -1.
         -1   -1    0    0    0  501 -0.00000000000E+00 -0.00000000000E+00 -0.28688960650E+03  0.28688960655E+03  0.50400000000E-02 0.  1.
         23    2    1    2    0    0  0.00000000000E+00 -0.17763568394E-14 -0.27967065622E+03  0.29410855859E+03  0.91017406505E+02 0.  0.
    9000005    2    3    3    0    0 -0.33195003115E+02 -0.14943224664E+02 -0.22463654604E+03  0.22812400374E+03  0.15930319295E+02 0.  0.
         22    1    3    3    0    0  0.33195003115E+02  0.14943224664E+02 -0.55034110182E+02  0.65984554849E+02  0.00000000000E+00 0. -1.
         22    1    4    4    0    0 -0.11999184344E+02 -0.13716301991E+02 -0.90375398066E+02  0.92194522293E+02  0.00000000000E+00 0. -1.
         22    1    4    4    0    0 -0.21195818771E+02 -0.12269226727E+01 -0.13426114797E+03  0.13592948145E+03  0.00000000000E+00 0. -1.
<mgrwt>
<rscale>  0 0.91017407E+02</rscale>
<asrwt>0</asrwt>
<pdfrwt beam="1">  1        1 0.11106081E-02 0.91017407E+02</pdfrwt>
<pdfrwt beam="2">  1       -1 0.44136854E-01 0.91017407E+02</pdfrwt>
<totfact> 0.61924887E+04</totfact>
</mgrwt>
</event>
<event>
 7    1  0.3345055E-009  0.8696348E+02  0.7818608E-02  0.1310376E+00
          1   -1    0    0  501    0  0.00000000000E+00  0.00000000000E+00  0.73237952945E+02  0.73237953119E+02  0.50400000000E-02 0. -1.
         -1   -1    0    0    0  501 -0.00000000000E+00 -0.00000000000E+00 -0.25815326700E+02  0.25815327192E+02  0.50400000000E-02 0.  1.
         23    2    1    2    0    0  0.00000000000E+00  0.00000000000E+00  0.47422626246E+02  0.99053280311E+02  0.86963480038E+02 0.  0.
    9000005    2    3    3    0    0  0.17102115206E+02 -0.33497364456E+02  0.47108413552E+02  0.61441387250E+02  0.11886364870E+02 0.  0.
         22    1    3    3    0    0 -0.17102115206E+02  0.33497364456E+02  0.31421269350E+00  0.37611893061E+02  0.00000000000E+00 0.  1.
         22    1    4    4    0    0  0.21395887887E+01 -0.79586667986E+01  0.18609018424E+02  0.20352242729E+02  0.00000000000E+00 0. -1.
         22    1    4    4    0    0  0.14962526417E+02 -0.25538697657E+02  0.28499395129E+02  0.41089144521E+02  0.00000000000E+00 0. -1.
<mgrwt>
<rscale>  0 0.86963480E+02</rscale>
<asrwt>0</asrwt>
<pdfrwt beam="1">  1        1 0.11267378E-01 0.86963480E+02</pdfrwt>
<pdfrwt beam="2">  1       -1 0.39715887E-02 0.86963480E+02</pdfrwt>
<totfact> 0.11312292E+05</totfact>
</mgrwt>
</event>
<event>
 7    1  0.3345055E-009  0.8812686E+02  0.7818608E-02  0.1307452E+00
          1   -1    0    0  501    0  0.00000000000E+00  0.00000000000E+00  0.34214839594E+02  0.34214839965E+02  0.50400000000E-02 0. -1.
         -1   -1    0    0    0  501 -0.00000000000E+00 -0.00000000000E+00 -0.56746889415E+02  0.56746889639E+02  0.50400000000E-02 0.  1.
         23    2    1    2    0    0  0.71054273576E-14 -0.35527136788E-14 -0.22532049821E+02  0.90961729604E+02  0.88126857333E+02 0.  0.
    9000005    2    3    3    0    0 -0.32850434882E+02  0.22967390202E+02  0.43309173749E+01  0.42709568085E+02  0.14096037603E+02 0.  0.
         22    1    3    3    0    0  0.32850434882E+02 -0.22967390202E+02 -0.26862967196E+02  0.48252161518E+02  0.00000000000E+00 0. -1.
         22    1    4    4    0    0 -0.12317770346E+02  0.57888869635E+01 -0.47882197799E+01  0.14427949515E+02  0.00000000000E+00 0.  1.
         22    1    4    4    0    0 -0.20532664536E+02  0.17178503239E+02  0.91191371547E+01  0.28281618570E+02  0.00000000000E+00 0.  1.
<mgrwt>
<rscale>  0 0.88126857E+02</rscale>
<asrwt>0</asrwt>
<pdfrwt beam="1">  1        1 0.52638215E-02 0.88126857E+02</pdfrwt>
<pdfrwt beam="2">  1       -1 0.87302908E-02 0.88126857E+02</pdfrwt>
<totfact> 0.97481649E+04</totfact>
</mgrwt>
</event>
<event>
 7    1  0.3345055E-009  0.9102373E+02  0.7818608E-02  0.1300391E+00
         -1   -1    0    0    0  501 -0.00000000000E+00  0.00000000000E+00  0.48419352796E+01  0.48419379026E+01  0.50400000000E-02 0.  1.
          1   -1    0    0  501    0  0.00000000000E+00 -0.00000000000E+00 -0.42778956799E+03  0.42778956802E+03  0.50400000000E-02 0. -1.
         23    2    1    2    0    0  0.00000000000E+00  0.00000000000E+00 -0.42294763271E+03  0.43263150593E+03  0.91023732627E+02 0.  0.
    9000005    2    3    3    0    0  0.16327745550E+02  0.41712242666E+02 -0.17435367382E+03  0.18003407352E+03  0.25607788179E+01 0.  0.
         22    1    3    3    0    0 -0.16327745550E+02 -0.41712242666E+02 -0.24859395889E+03  0.25259743241E+03  0.00000000000E+00 0.  1.
         22    1    4    4    0    0  0.23061198021E+01  0.82209966444E+01 -0.31088951715E+02  0.32240128615E+02  0.00000000000E+00 0.  1.
         22    1    4    4    0    0  0.14021625748E+02  0.33491246022E+02 -0.14326472211E+03  0.14779394490E+03  0.00000000000E+00 0.  1.
<mgrwt>
<rscale>  0 0.91023733E+02</rscale>
<asrwt>0</asrwt>
<pdfrwt beam="2">  1        1 0.65813750E-01 0.91023733E+02</pdfrwt>
<pdfrwt beam="1">  1       -1 0.74491366E-03 0.91023733E+02</pdfrwt>
<totfact> 0.13694337E+05</totfact>
</mgrwt>
</event>
<event>
 7    1  0.3345055E-009  0.9066784E+02  0.7818608E-02  0.1301242E+00
         -1   -1    0    0    0  501 -0.00000000000E+00  0.00000000000E+00  0.11757065642E+02  0.11757066722E+02  0.50400000000E-02 0.  1.
          1   -1    0    0  501    0  0.00000000000E+00 -0.00000000000E+00 -0.17480248389E+03  0.17480248396E+03  0.50400000000E-02 0. -1.
         23    2    1    2    0    0 -0.35527136788E-14  0.00000000000E+00 -0.16304541825E+03  0.18655955068E+03  0.90667841819E+02 0.  0.
    9000005    2    3    3    0    0  0.27539705288E+02 -0.30141810102E+02 -0.11862728889E+03  0.12622768266E+03  0.13929469374E+02 0.  0.
         22    1    3    3    0    0 -0.27539705288E+02  0.30141810102E+02 -0.44418129356E+02  0.60331868023E+02  0.00000000000E+00 0.  1.
         22    1    4    4    0    0  0.18868881656E+02 -0.10441533620E+02 -0.56333955638E+02  0.60320600769E+02  0.00000000000E+00 0. -1.
         22    1    4    4    0    0  0.86708236319E+01 -0.19700276482E+02 -0.62293333252E+02  0.65907081893E+02  0.00000000000E+00 0. -1.
<mgrwt>
<rscale>  0 0.90667842E+02</rscale>
<asrwt>0</asrwt>
<pdfrwt beam="2">  1        1 0.26892688E-01 0.90667842E+02</pdfrwt>
<pdfrwt beam="1">  1       -1 0.18087795E-02 0.90667842E+02</pdfrwt>
<totfact> 0.11712931E+05</totfact>
</mgrwt>
</event>
<event>
 7    1  0.3345055E-009  0.9035226E+02  0.7818608E-02  0.1302001E+00
          1   -1    0    0  501    0  0.00000000000E+00  0.00000000000E+00  0.11013361822E+03  0.11013361834E+03  0.50400000000E-02 0. -1.
         -1   -1    0    0    0  501 -0.00000000000E+00 -0.00000000000E+00 -0.18530969700E+02  0.18530970385E+02  0.50400000000E-02 0.  1.
         23    2    1    2    0    0  0.00000000000E+00  0.00000000000E+00  0.91602648523E+02  0.12866458872E+03  0.90352261593E+02 0.  0.
    9000005    2    3    3    0    0 -0.32088809189E+02  0.39369410125E+01  0.26191362318E+01  0.33990111490E+02  0.10162510753E+02 0.  0.
         22    1    3    3    0    0  0.32088809189E+02 -0.39369410125E+01  0.88983512291E+02  0.94674477233E+02  0.00000000000E+00 0. -1.
         22    1    4    4    0    0 -0.24771875580E+02  0.29687442206E+01  0.63147425521E+01  0.25735874485E+02  0.00000000000E+00 0. -1.
         22    1    4    4    0    0 -0.73169336095E+01  0.96819679193E+00 -0.36956063203E+01  0.82542370058E+01  0.00000000000E+00 0. -1.
<mgrwt>
<rscale>  0 0.90352262E+02</rscale>
<asrwt>0</asrwt>
<pdfrwt beam="1">  1        1 0.16943634E-01 0.90352262E+02</pdfrwt>
<pdfrwt beam="2">  1       -1 0.28509185E-02 0.90352262E+02</pdfrwt>
<totfact> 0.10881278E+05</totfact>
</mgrwt>
</event>
<event>
 7    1  0.3345055E-009  0.9289276E+02  0.7818608E-02  0.1295994E+00
          1   -1    0    0  501    0  0.00000000000E+00  0.00000000000E+00  0.23402990037E+02  0.23402990580E+02  0.50400000000E-02 0. -1.
         -1   -1    0    0    0  501 -0.00000000000E+00 -0.00000000000E+00 -0.92179080523E+02  0.92179080661E+02  0.50400000000E-02 0.  1.
         23    2    1    2    0    0  0.00000000000E+00  0.00000000000E+00 -0.68776090486E+02  0.11558207124E+03  0.92892758436E+02 0.  0.
    9000005    2    3    3    0    0 -0.34071855728E+02  0.13746572316E+02 -0.11158522297E+01  0.38590075267E+02  0.11751135253E+02 0.  0.
         22    1    3    3    0    0  0.34071855728E+02 -0.13746572316E+02 -0.67660238257E+02  0.76991995974E+02  0.00000000000E+00 0.  1.
         22    1    4    4    0    0 -0.89446451041E+01  0.13928125088E+01  0.43792925940E+01  0.10056083052E+02  0.00000000000E+00 0.  1.
         22    1    4    4    0    0 -0.25127210624E+02  0.12353759807E+02 -0.54951448238E+01  0.28533992215E+02  0.00000000000E+00 0.  1.
<mgrwt>
<rscale>  0 0.92892758E+02</rscale>
<asrwt>0</asrwt>
<pdfrwt beam="1">  1        1 0.36004601E-02 0.92892758E+02</pdfrwt>
<pdfrwt beam="2">  1       -1 0.14181397E-01 0.92892758E+02</pdfrwt>
<totfact> 0.78720366E+04</totfact>
</mgrwt>
</event>
<event>
 7    1  0.3345055E-009  0.9312972E+02  0.7818608E-02  0.1295445E+00
          1   -1    0    0  501    0  0.00000000000E+00  0.00000000000E+00  0.38216758629E+03  0.38216758632E+03  0.50400000000E-02 0. -1.
         -1   -1    0    0    0  501 -0.00000000000E+00 -0.00000000000E+00 -0.56736516285E+01  0.56736538671E+01  0.50400000000E-02 0.  1.
         23    2    1    2    0    0  0.00000000000E+00  0.00000000000E+00  0.37649393466E+03  0.38784124019E+03  0.93129720044E+02 0.  0.
    9000005    2    3    3    0    0  0.11327585929E+02  0.42170205790E+02  0.24788121933E+03  0.25201830029E+03  0.12707648213E+02 0.  0.
         22    1    3    3    0    0 -0.11327585929E+02 -0.42170205790E+02  0.12861271533E+03  0.13582293990E+03  0.00000000000E+00 0.  1.
         22    1    4    4    0    0  0.12705813098E+02  0.26377751712E+02  0.17507107515E+03  0.17750240795E+03  0.00000000000E+00 0. -1.
         22    1    4    4    0    0 -0.13782271694E+01  0.15792454078E+02  0.72810144176E+02  0.74515892338E+02  0.00000000000E+00 0. -1.
<mgrwt>
<rscale>  0 0.93129720E+02</rscale>
<asrwt>0</asrwt>
<pdfrwt beam="1">  1        1 0.58795009E-01 0.93129720E+02</pdfrwt>
<pdfrwt beam="2">  1       -1 0.87286972E-03 0.93129720E+02</pdfrwt>
<totfact> 0.12652837E+05</totfact>
</mgrwt>
</event>
<event>
 7    1  0.3345055E-009  0.9205689E+02  0.7818608E-02  0.1297946E+00
         -1   -1    0    0    0  501 -0.00000000000E+00  0.00000000000E+00  0.18584241204E+02  0.18584241888E+02  0.50400000000E-02 0.  1.
          1   -1    0    0  501    0  0.00000000000E+00 -0.00000000000E+00 -0.11400077535E+03  0.11400077546E+03  0.50400000000E-02 0. -1.
         23    2    1    2    0    0  0.00000000000E+00  0.71054273576E-14 -0.95416534146E+02  0.13258501735E+03  0.92056894566E+02 0.  0.
    9000005    2    3    3    0    0  0.72608802549E+01 -0.38755594504E+02 -0.80840253524E+02  0.90547124393E+02  0.10436410239E+02 0.  0.
         22    1    3    3    0    0 -0.72608802549E+01  0.38755594504E+02 -0.14576280622E+02  0.42037892956E+02  0.00000000000E+00 0.  1.
         22    1    4    4    0    0  0.80636251572E+01 -0.33583505944E+02 -0.61753077784E+02  0.70755328689E+02  0.00000000000E+00 0. -1.
         22    1    4    4    0    0 -0.80274490226E+00 -0.51720885591E+01 -0.19087175740E+02  0.19791795704E+02  0.00000000000E+00 0. -1.
<mgrwt>
<rscale>  0 0.92056895E+02</rscale>
<asrwt>0</asrwt>
<pdfrwt beam="2">  1        1 0.17538580E-01 0.92056895E+02</pdfrwt>
<pdfrwt beam="1">  1       -1 0.28591142E-02 0.92056895E+02</pdfrwt>
<totfact> 0.10403524E+05</totfact>
</mgrwt>
</event>
<event>
 7    1  0.3345055E-009  0.9232731E+02  0.7818608E-02  0.1297312E+00
         -1   -1    0    0    0  501 -0.00000000000E+00  0.00000000000E+00  0.35146578901E+02  0.35146579262E+02  0.50400000000E-02 0.  1.
          1   -1    0    0  501    0  0.00000000000E+00 -0.00000000000E+00 -0.60634158368E+02  0.60634158578E+02  0.50400000000E-02 0. -1.
         23    2    1    2    0    0  0.00000000000E+00  0.00000000000E+00 -0.25487579468E+02  0.95780737840E+02  0.92327314669E+02 0.  0.
    9000005    2    3    3    0    0  0.28921894267E+02 -0.14567847071E+02 -0.46866237767E+02  0.56976805475E+02  0.11018091692E+01 0.  0.
         22    1    3    3    0    0 -0.28921894267E+02  0.14567847071E+02  0.21378658299E+02  0.38803932365E+02  0.00000000000E+00 0.  1.
         22    1    4    4    0    0  0.25576874423E+02 -0.13017196934E+02 -0.42090859168E+02  0.50943737071E+02  0.00000000000E+00 0.  1.
         22    1    4    4    0    0  0.33450198445E+01 -0.15506501367E+01 -0.47753785993E+01  0.60330684045E+01  0.00000000000E+00 0.  1.
<mgrwt>
<rscale>  0 0.92327315E+02</rscale>
<asrwt>0</asrwt>
<pdfrwt beam="2">  1        1 0.93283321E-02 0.92327315E+02</pdfrwt>
<pdfrwt beam="1">  1       -1 0.54071660E-02 0.92327315E+02</pdfrwt>
<totfact> 0.93220431E+04</totfact>
</mgrwt>
</event>
<event>
 7    1  0.4064066E-009  0.9423797E+02  0.7818608E-02  0.1292902E+00
          1   -1    0    0  501    0  0.00000000000E+00  0.00000000000E+00  0.25126150647E+03  0.25126150652E+03  0.50400000000E-02 0. -1.
         -1   -1    0    0    0  501 -0.00000000000E+00 -0.00000000000E+00 -0.88362069307E+01  0.88362083681E+01  0.50400000000E-02 0.  1.
         23    2    1    2    0    0  0.00000000000E+00  0.00000000000E+00  0.24242529954E+03  0.26009771489E+03  0.94237972356E+02 0.  0.
    9000005    2    3    3    0    0 -0.22671010144E+02  0.37016916230E+02  0.16610101901E+03  0.17229325836E+03  0.14532431729E+02 0.  0.
         22    1    3    3    0    0  0.22671010144E+02 -0.37016916230E+02  0.76324280536E+02  0.87804456535E+02  0.00000000000E+00 0.  1.
         22    1    4    4    0    0 -0.21020503431E+01 -0.40994223429E+00  0.29503228660E+01  0.36456924300E+01  0.00000000000E+00 0.  1.
         22    1    4    4    0    0 -0.20568959801E+02  0.37426858464E+02  0.16315069614E+03  0.16864756593E+03  0.00000000000E+00 0.  1.
<mgrwt>
<rscale>  0 0.94237972E+02</rscale>
<asrwt>0</asrwt>
<pdfrwt beam="1">  1        1 0.38655612E-01 0.94237972E+02</pdfrwt>
<pdfrwt beam="2">  1       -1 0.13594167E-02 0.94237972E+02</pdfrwt>
<totfact> 0.11331524E+05</totfact>
</mgrwt>
</event>
<event>
 7    1  0.3345055E-009  0.9032530E+02  0.7818608E-02  0.1302066E+00
          1   -1    0    0  501    0  0.00000000000E+00  0.00000000000E+00  0.43606757877E+01  0.43606787003E+01  0.50400000000E-02 0. -1.
         -1   -1    0    0    0  501 -0.00000000000E+00 -0.00000000000E+00 -0.46774036651E+03  0.46774036653E+03  0.50400000000E-02 0.  1.
         23    2    1    2    0    0 -0.17763568394E-14  0.00000000000E+00 -0.46337969072E+03  0.47210104523E+03  0.90325296237E+02 0.  0.
    9000005    2    3    3    0    0 -0.11816585807E+02  0.92005178355E+01 -0.45430044208E+03  0.45458779355E+03  0.60736434121E+01 0.  0.
         22    1    3    3    0    0  0.11816585807E+02 -0.92005178355E+01 -0.90792486373E+01  0.17513251680E+02  0.00000000000E+00 0. -1.
         22    1    4    4    0    0 -0.21189473992E+00 -0.72505213002E-02 -0.72177035196E+02  0.72177346596E+02  0.00000000000E+00 0. -1.
         22    1    4    4    0    0 -0.11604691068E+02  0.92077683568E+01 -0.38212340689E+03  0.38241044696E+03  0.00000000000E+00 0. -1.
<mgrwt>
<rscale>  0 0.90325296E+02</rscale>
<asrwt>0</asrwt>
<pdfrwt beam="1">  1        1 0.67087379E-03 0.90325296E+02</pdfrwt>
<pdfrwt beam="2">  1       -1 0.71960017E-01 0.90325296E+02</pdfrwt>
<totfact> 0.50177231E+04</totfact>
</mgrwt>
</event>
<event>
 7    1  0.3345055E-009  0.8793901E+02  0.7818608E-02  0.1307921E+00
         -1   -1    0    0    0  501 -0.00000000000E+00  0.00000000000E+00  0.10589970510E+02  0.10589971710E+02  0.50400000000E-02 0.  1.
          1   -1    0    0  501    0  0.00000000000E+00 -0.00000000000E+00 -0.18256115119E+03  0.18256115126E+03  0.50400000000E-02 0. -1.
         23    2    1    2    0    0 -0.71054273576E-14  0.00000000000E+00 -0.17197118068E+03  0.19315112297E+03  0.87939009092E+02 0.  0.
    9000005    2    3    3    0    0  0.36904378557E+02 -0.21155703348E+02 -0.71669683425E+02  0.84202110618E+02  0.11998123581E+02 0.  0.
         22    1    3    3    0    0 -0.36904378557E+02  0.21155703348E+02 -0.10030149726E+03  0.10894901235E+03  0.00000000000E+00 0.  1.
         22    1    4    4    0    0  0.36087399159E+02 -0.17009608029E+02 -0.63239245550E+02  0.74771848453E+02  0.00000000000E+00 0.  1.
         22    1    4    4    0    0  0.81697939785E+00 -0.41460953195E+01 -0.84304378749E+01  0.94302621648E+01  0.00000000000E+00 0.  1.
<mgrwt>
<rscale>  0 0.87939009E+02</rscale>
<asrwt>0</asrwt>
<pdfrwt beam="2">  1        1 0.28086329E-01 0.87939009E+02</pdfrwt>
<pdfrwt beam="1">  1       -1 0.16292265E-02 0.87939009E+02</pdfrwt>
<totfact> 0.12817459E+05</totfact>
</mgrwt>
</event>
<event>
 7    1  0.3345055E-009  0.9134155E+02  0.7818608E-02  0.1299635E+00
          1   -1    0    0  501    0  0.00000000000E+00  0.00000000000E+00  0.10610937891E+02  0.10610939088E+02  0.50400000000E-02 0. -1.
         -1   -1    0    0    0  501 -0.00000000000E+00 -0.00000000000E+00 -0.19657260977E+03  0.19657260983E+03  0.50400000000E-02 0.  1.
         23    2    1    2    0    0  0.17763568394E-14 -0.17763568394E-14 -0.18596167188E+03  0.20718354892E+03  0.91341554270E+02 0.  0.
    9000005    2    3    3    0    0  0.13351782425E+02 -0.12821597238E+02 -0.18745743376E+03  0.18861204512E+03  0.95682101495E+01 0.  0.
         22    1    3    3    0    0 -0.13351782425E+02  0.12821597238E+02  0.14957618806E+01  0.18571503797E+02  0.00000000000E+00 0. -1.
         22    1    4    4    0    0  0.86087351795E+01 -0.13189322333E+02 -0.15659976542E+03  0.15738981884E+03  0.00000000000E+00 0. -1.
         22    1    4    4    0    0  0.47430472459E+01  0.36772509441E+00 -0.30857668339E+02  0.31222226286E+02  0.00000000000E+00 0. -1.
<mgrwt>
<rscale>  0 0.91341554E+02</rscale>
<asrwt>0</asrwt>
<pdfrwt beam="1">  1        1 0.16324522E-02 0.91341554E+02</pdfrwt>
<pdfrwt beam="2">  1       -1 0.30241937E-01 0.91341554E+02</pdfrwt>
<totfact> 0.69439022E+04</totfact>
</mgrwt>
</event>
<event>
 7    1  0.3345055E-009  0.8668429E+02  0.7818608E-02  0.1311086E+00
         -1   -1    0    0    0  501 -0.00000000000E+00  0.00000000000E+00  0.25552025847E+03  0.25552025852E+03  0.50400000000E-02 0.  1.
          1   -1    0    0  501    0  0.00000000000E+00 -0.00000000000E+00 -0.73518284743E+01  0.73518302018E+01  0.50400000000E-02 0. -1.
         23    2    1    2    0    0  0.35527136788E-14  0.44408920985E-15  0.24816842999E+03  0.26287208872E+03  0.86684285671E+02 0.  0.
    9000005    2    3    3    0    0 -0.26237425828E+02 -0.23451080571E+01  0.22731778261E+03  0.22927667918E+03  0.14160482972E+02 0.  0.
         22    1    3    3    0    0  0.26237425828E+02  0.23451080571E+01  0.20850647380E+02  0.33595409539E+02  0.00000000000E+00 0. -1.
         22    1    4    4    0    0  0.54865107733E-01  0.29781810411E+01  0.29060801397E+02  0.29213057873E+02  0.00000000000E+00 0. -1.
         22    1    4    4    0    0 -0.26292290936E+02 -0.53232890982E+01  0.19825698122E+03  0.20006362131E+03  0.00000000000E+00 0. -1.
<mgrwt>
<rscale>  0 0.86684286E+02</rscale>
<asrwt>0</asrwt>
<pdfrwt beam="2">  1        1 0.11310508E-02 0.86684286E+02</pdfrwt>
<pdfrwt beam="1">  1       -1 0.39310804E-01 0.86684286E+02</pdfrwt>
<totfact> 0.73329919E+04</totfact>
</mgrwt>
</event>
<event>
 7    1  0.3345055E-009  0.8924936E+02  0.7818608E-02  0.1304680E+00
         -1   -1    0    0    0  501 -0.00000000000E+00  0.00000000000E+00  0.16953987963E+02  0.16953988712E+02  0.50400000000E-02 0.  1.
          1   -1    0    0  501    0  0.00000000000E+00 -0.00000000000E+00 -0.11745686194E+03  0.11745686204E+03  0.50400000000E-02 0. -1.
         23    2    1    2    0    0  0.00000000000E+00  0.00000000000E+00 -0.10050287397E+03  0.13441085076E+03  0.89249364838E+02 0.  0.
    9000005    2    3    3    0    0  0.30191307014E+02 -0.25717922589E+02 -0.21282443019E+02  0.45817378976E+02  0.85652363573E+01 0.  0.
         22    1    3    3    0    0 -0.30191307014E+02  0.25717922589E+02 -0.79220430953E+02  0.88593471779E+02  0.00000000000E+00 0.  1.
         22    1    4    4    0    0  0.24383964367E+02 -0.20423575342E+02 -0.20673447180E+02  0.37935360369E+02  0.00000000000E+00 0.  1.
         22    1    4    4    0    0  0.58073426464E+01 -0.52943472475E+01 -0.60899583903E+00  0.78820186071E+01  0.00000000000E+00 0.  1.
<mgrwt>
<rscale>  0 0.89249365E+02</rscale>
<asrwt>0</asrwt>
<pdfrwt beam="2">  1        1 0.18070286E-01 0.89249365E+02</pdfrwt>
<pdfrwt beam="1">  1       -1 0.26083060E-02 0.89249365E+02</pdfrwt>
<totfact> 0.11373344E+05</totfact>
</mgrwt>
</event>
<event>
 7    1  0.3345055E-009  0.8970710E+02  0.7818608E-02  0.1303563E+00
          1   -1    0    0  501    0  0.00000000000E+00  0.00000000000E+00  0.15058786151E+03  0.15058786159E+03  0.50400000000E-02 0. -1.
         -1   -1    0    0    0  501 -0.00000000000E+00 -0.00000000000E+00 -0.13359912740E+02  0.13359913691E+02  0.50400000000E-02 0.  1.
         23    2    1    2    0    0  0.00000000000E+00  0.00000000000E+00  0.13722794877E+03  0.16394777528E+03  0.89707096137E+02 0.  0.
    9000005    2    3    3    0    0 -0.33416169319E+02 -0.22518742197E+02  0.35722466269E+02  0.54736525408E+02  0.98111413854E+01 0.  0.
         22    1    3    3    0    0  0.33416169319E+02  0.22518742197E+02  0.10150548250E+03  0.10921124987E+03  0.00000000000E+00 0. -1.
         22    1    4    4    0    0 -0.13527928467E+02 -0.94107373724E+01  0.84254739341E+01  0.18508253227E+02  0.00000000000E+00 0.  1.
         22    1    4    4    0    0 -0.19888240852E+02 -0.13108004825E+02  0.27296992335E+02  0.36228272180E+02  0.00000000000E+00 0.  1.
<mgrwt>
<rscale>  0 0.89707096E+02</rscale>
<asrwt>0</asrwt>
<pdfrwt beam="1">  1        1 0.23167366E-01 0.89707096E+02</pdfrwt>
<pdfrwt beam="2">  1       -1 0.20553710E-02 0.89707096E+02</pdfrwt>
<totfact> 0.11723360E+05</totfact>
</mgrwt>
</event>
<event>
 7    1  0.3345055E-009  0.9034021E+02  0.7818608E-02  0.1302030E+00
          1   -1    0    0  501    0  0.00000000000E+00  0.00000000000E+00  0.17474236039E+03  0.17474236046E+03  0.50400000000E-02 0. -1.
         -1   -1    0    0    0  501 -0.00000000000E+00 -0.00000000000E+00 -0.11676266019E+02  0.11676267106E+02  0.50400000000E-02 0.  1.
         23    2    1    2    0    0  0.00000000000E+00  0.00000000000E+00  0.16306609437E+03  0.18641862757E+03  0.90340210157E+02 0.  0.
    9000005    2    3    3    0    0  0.28624994122E+02 -0.33234043181E+02  0.10212608518E+03  0.11133483015E+03  0.64664685582E+01 0.  0.
         22    1    3    3    0    0 -0.28624994122E+02  0.33234043181E+02  0.60940009193E+02  0.75083797421E+02  0.00000000000E+00 0. -1.
         22    1    4    4    0    0  0.16753640110E+02 -0.23771149275E+02  0.64012565574E+02  0.70309036021E+02  0.00000000000E+00 0. -1.
         22    1    4    4    0    0  0.11871354013E+02 -0.94628939060E+01  0.38113519604E+02  0.41025794128E+02  0.00000000000E+00 0. -1.
<mgrwt>
<rscale>  0 0.90340210E+02</rscale>
<asrwt>0</asrwt>
<pdfrwt beam="1">  1        1 0.26883437E-01 0.90340210E+02</pdfrwt>
<pdfrwt beam="2">  1       -1 0.17963489E-02 0.90340210E+02</pdfrwt>
<totfact> 0.11826533E+05</totfact>
</mgrwt>
</event>
<event>
 7    1  0.3345055E-009  0.8956784E+02  0.7818608E-02  0.1303902E+00
          1   -1    0    0  501    0  0.00000000000E+00  0.00000000000E+00  0.99307687016E+02  0.99307687144E+02  0.50400000000E-02 0. -1.
         -1   -1    0    0    0  501 -0.00000000000E+00 -0.00000000000E+00 -0.20195813109E+02  0.20195813738E+02  0.50400000000E-02 0.  1.
         23    2    1    2    0    0  0.00000000000E+00 -0.71054273576E-14  0.79111873907E+02  0.11950350088E+03  0.89567840936E+02 0.  0.
    9000005    2    3    3    0    0 -0.20076199279E+02 -0.33182367034E+02  0.68149951641E+02  0.79201056797E+02  0.11147566085E+02 0.  0.
         22    1    3    3    0    0  0.20076199279E+02  0.33182367034E+02  0.10961922267E+02  0.40302444085E+02  0.00000000000E+00 0.  1.
         22    1    4    4    0    0 -0.61598549448E+01 -0.39045874491E+01  0.18709841872E+02  0.20081030824E+02  0.00000000000E+00 0. -1.
         22    1    4    4    0    0 -0.13916344334E+02 -0.29277779585E+02  0.49440109769E+02  0.59120025973E+02  0.00000000000E+00 0. -1.
<mgrwt>
<rscale>  0 0.89567841E+02</rscale>
<asrwt>0</asrwt>
<pdfrwt beam="1">  1        1 0.15278106E-01 0.89567841E+02</pdfrwt>
<pdfrwt beam="2">  1       -1 0.31070482E-02 0.89567841E+02</pdfrwt>
<totfact> 0.10951085E+05</totfact>
</mgrwt>
</event>
<event>
 6    1  0.3345055E-009  0.1605722E+03  0.7818608E-02  0.1188052E+00
         -1   -1    0    0    0  501 -0.00000000000E+00  0.00000000000E+00  0.17630071570E+02  0.17630072290E+02  0.50400000000E-02 0.  1.
          1   -1    0    0  501    0  0.00000000000E+00 -0.00000000000E+00 -0.36561736504E+03  0.36561736507E+03  0.50400000000E-02 0. -1.
    9000005    2    1    2    0    0  0.23353383256E+02 -0.76066399172E+02 -0.14941261991E+03  0.16932366923E+03  0.38595830565E+01 0.  0.
         22    1    1    2    0    0 -0.23353383256E+02  0.76066399172E+02 -0.19857467356E+03  0.21392376813E+03  0.00000000000E+00 0.  1.
         22    1    3    3    0    0  0.16542102196E+01 -0.97052548713E+01 -0.18347788806E+02  0.20822337468E+02  0.00000000000E+00 0. -1.
         22    1    3    3    0    0  0.21699173036E+02 -0.66361144300E+02 -0.13106483110E+03  0.14850133176E+03  0.00000000000E+00 0. -1.
<mgrwt>
<rscale>  0 0.16057223E+03</rscale>
<asrwt>0</asrwt>
<pdfrwt beam="2">  1        1 0.56248820E-01 0.16057223E+03</pdfrwt>
<pdfrwt beam="1">  1       -1 0.27123190E-02 0.16057223E+03</pdfrwt>
<totfact> 0.28212060E+04</totfact>
</mgrwt>
</event>
<event>
 7    1  0.3345055E-009  0.9347583E+02  0.7818608E-02  0.1294646E+00
         -1   -1    0    0    0  501 -0.00000000000E+00  0.00000000000E+00  0.55389797166E+02  0.55389797396E+02  0.50400000000E-02 0.  1.
          1   -1    0    0  501    0  0.00000000000E+00 -0.00000000000E+00 -0.39437458152E+02  0.39437458474E+02  0.50400000000E-02 0. -1.
         23    2    1    2    0    0 -0.17763568394E-14  0.00000000000E+00  0.15952339015E+02  0.94827255870E+02  0.93475832897E+02 0.  0.
    9000005    2    3    3    0    0  0.12028690025E+02 -0.11992157493E+02 -0.35774658998E+02  0.40382939835E+02  0.79028082506E+01 0.  0.
         22    1    3    3    0    0 -0.12028690025E+02  0.11992157493E+02  0.51726998013E+02  0.54444316034E+02  0.00000000000E+00 0.  1.
         22    1    4    4    0    0 -0.58806857396E+00 -0.96780436991E+00 -0.69574748026E+01  0.70490372091E+01  0.00000000000E+00 0. -1.
         22    1    4    4    0    0  0.12616758599E+02 -0.11024353123E+02 -0.28817184195E+02  0.33333902626E+02  0.00000000000E+00 0. -1.
<mgrwt>
<rscale>  0 0.93475833E+02</rscale>
<asrwt>0</asrwt>
<pdfrwt beam="2">  1        1 0.60673014E-02 0.93475833E+02</pdfrwt>
<pdfrwt beam="1">  1       -1 0.85215072E-02 0.93475833E+02</pdfrwt>
<totfact> 0.84300834E+04</totfact>
</mgrwt>
</event>
<event>
 7    1  0.3345055E-009  0.9149280E+02  0.7818608E-02  0.1299276E+00
          1   -1    0    0  501    0  0.00000000000E+00  0.00000000000E+00  0.50080719395E+03  0.50080719397E+03  0.50400000000E-02 0. -1.
         -1   -1    0    0    0  501 -0.00000000000E+00 -0.00000000000E+00 -0.41787188613E+01  0.41787219007E+01  0.50400000000E-02 0.  1.
         23    2    1    2    0    0  0.00000000000E+00 -0.35527136788E-14  0.49662847509E+03  0.50498591587E+03  0.91492802800E+02 0.  0.
    9000005    2    3    3    0    0 -0.32768868336E+02  0.28765709294E+02  0.31753220052E+03  0.32065810916E+03  0.96778014928E+01 0.  0.
         22    1    3    3    0    0  0.32768868336E+02 -0.28765709294E+02  0.17909627456E+03  0.18432780671E+03  0.00000000000E+00 0. -1.
         22    1    4    4    0    0 -0.61589495910E+01  0.99639378153E+01  0.67023441345E+02  0.68039359246E+02  0.00000000000E+00 0.  1.
         22    1    4    4    0    0 -0.26609918745E+02  0.18801771479E+02  0.25050875918E+03  0.25261874992E+03  0.00000000000E+00 0.  1.
<mgrwt>
<rscale>  0 0.91492803E+02</rscale>
<asrwt>0</asrwt>
<pdfrwt beam="1">  1        1 0.77047209E-01 0.91492803E+02</pdfrwt>
<pdfrwt beam="2">  1       -1 0.64288050E-03 0.91492803E+02</pdfrwt>
<totfact> 0.13801981E+05</totfact>
</mgrwt>
</event>
<event>
 7    1  0.3345055E-009  0.8353720E+02  0.7818608E-02  0.1319303E+00
         -1   -1    0    0    0  501 -0.00000000000E+00  0.00000000000E+00  0.21111922281E+02  0.21111922882E+02  0.50400000000E-02 0.  1.
          1   -1    0    0  501    0  0.00000000000E+00 -0.00000000000E+00 -0.82636533695E+02  0.82636533849E+02  0.50400000000E-02 0. -1.
         23    2    1    2    0    0 -0.88817841970E-15  0.00000000000E+00 -0.61524611415E+02  0.10374845673E+03  0.83537204074E+02 0.  0.
    9000005    2    3    3    0    0 -0.45255142516E+01 -0.13631256409E+02 -0.79422904244E+02  0.80799811527E+02  0.37842296215E+01 0.  0.
         22    1    3    3    0    0  0.45255142516E+01  0.13631256409E+02  0.17898292829E+02  0.22948645204E+02  0.00000000000E+00 0.  1.
         22    1    4    4    0    0 -0.46320119593E+01 -0.13833144285E+02 -0.77284122714E+02  0.78648884539E+02  0.00000000000E+00 0.  1.
         22    1    4    4    0    0  0.10649770777E+00  0.20188787612E+00 -0.21387815297E+01  0.21509269881E+01  0.00000000000E+00 0.  1.
<mgrwt>
<rscale>  0 0.83537204E+02</rscale>
<asrwt>0</asrwt>
<pdfrwt beam="2">  1        1 0.12713313E-01 0.83537204E+02</pdfrwt>
<pdfrwt beam="1">  1       -1 0.32479881E-02 0.83537204E+02</pdfrwt>
<totfact> 0.12851919E+05</totfact>
</mgrwt>
</event>
<event>
 7    1  0.3345055E-009  0.8719762E+02  0.7818608E-02  0.1309784E+00
         -1   -1    0    0    0  501 -0.00000000000E+00  0.00000000000E+00  0.20173020478E+02  0.20173021108E+02  0.50400000000E-02 0.  1.
          1   -1    0    0  501    0  0.00000000000E+00 -0.00000000000E+00 -0.94227640236E+02  0.94227640371E+02  0.50400000000E-02 0. -1.
         23    2    1    2    0    0  0.00000000000E+00  0.00000000000E+00 -0.74054619758E+02  0.11440066148E+03  0.87197618311E+02 0.  0.
    9000005    2    3    3    0    0 -0.33965733672E+02  0.23488402376E+02 -0.19992452160E+02  0.46370564643E+02  0.67197479022E+01 0.  0.
         22    1    3    3    0    0  0.33965733672E+02 -0.23488402376E+02 -0.54062167598E+02  0.68030096835E+02  0.00000000000E+00 0. -1.
         22    1    4    4    0    0 -0.29896447772E+02  0.22962251164E+02 -0.18613067840E+02  0.42041751418E+02  0.00000000000E+00 0.  1.
         22    1    4    4    0    0 -0.40692858994E+01  0.52615121254E+00 -0.13793843205E+01  0.43288132246E+01  0.00000000000E+00 0.  1.
<mgrwt>
<rscale>  0 0.87197618E+02</rscale>
<asrwt>0</asrwt>
<pdfrwt beam="2">  1        1 0.14496560E-01 0.87197618E+02</pdfrwt>
<pdfrwt beam="1">  1       -1 0.31035417E-02 0.87197618E+02</pdfrwt>
<totfact> 0.11678285E+05</totfact>
</mgrwt>
</event>
<event>
 7    1  0.3345055E-009  0.9083995E+02  0.7818608E-02  0.1300830E+00
         -1   -1    0    0    0  501 -0.00000000000E+00  0.00000000000E+00  0.22953192768E+03  0.22953192774E+03  0.50400000000E-02 0.  1.
          1   -1    0    0  501    0  0.00000000000E+00 -0.00000000000E+00 -0.89877423761E+01  0.89877437892E+01  0.50400000000E-02 0. -1.
         23    2    1    2    0    0  0.00000000000E+00  0.00000000000E+00  0.22054418530E+03  0.23851967152E+03  0.90839947340E+02 0.  0.
    9000005    2    3    3    0    0 -0.11243812728E+02  0.31260813199E+02  0.35642968277E+02  0.50657696062E+02  0.13860707639E+02 0.  0.
         22    1    3    3    0    0  0.11243812728E+02 -0.31260813199E+02  0.18490121703E+03  0.18786197546E+03  0.00000000000E+00 0.  1.
         22    1    4    4    0    0 -0.14188744078E+02  0.26723003127E+02  0.32489441009E+02  0.44395981031E+02  0.00000000000E+00 0.  1.
         22    1    4    4    0    0  0.29449313503E+01  0.45378100712E+01  0.31535272679E+01  0.62617150310E+01  0.00000000000E+00 0.  1.
<mgrwt>
<rscale>  0 0.90839947E+02</rscale>
<asrwt>0</asrwt>
<pdfrwt beam="2">  1        1 0.13827298E-02 0.90839947E+02</pdfrwt>
<pdfrwt beam="1">  1       -1 0.35312603E-01 0.90839947E+02</pdfrwt>
<totfact> 0.67250413E+04</totfact>
</mgrwt>
</event>
<event>
 7    1  0.3345055E-009  0.9300985E+02  0.7818608E-02  0.1295722E+00
          1   -1    0    0  501    0  0.00000000000E+00  0.00000000000E+00  0.13094278326E+03  0.13094278335E+03  0.50400000000E-02 0. -1.
         -1   -1    0    0    0  501 -0.00000000000E+00 -0.00000000000E+00 -0.16516436511E+02  0.16516437280E+02  0.50400000000E-02 0.  1.
         23    2    1    2    0    0  0.44408920985E-15  0.00000000000E+00  0.11442634675E+03  0.14745922063E+03  0.93009853888E+02 0.  0.
    9000005    2    3    3    0    0 -0.34033879008E+01  0.45489231028E+02  0.61190604779E+02  0.77352891308E+02  0.12582785536E+02 0.  0.
         22    1    3    3    0    0  0.34033879008E+01 -0.45489231028E+02  0.53235741967E+02  0.70106329325E+02  0.00000000000E+00 0.  1.
         22    1    4    4    0    0 -0.53489865053E+01  0.73130414976E+01  0.12901880844E+02  0.15765492758E+02  0.00000000000E+00 0. -1.
         22    1    4    4    0    0  0.19455986046E+01  0.38176189530E+02  0.48288723934E+02  0.61587398550E+02  0.00000000000E+00 0. -1.
<mgrwt>
<rscale>  0 0.93009854E+02</rscale>
<asrwt>0</asrwt>
<pdfrwt beam="1">  1        1 0.20145044E-01 0.93009854E+02</pdfrwt>
<pdfrwt beam="2">  1       -1 0.25409903E-02 0.93009854E+02</pdfrwt>
<totfact> 0.10365876E+05</totfact>
</mgrwt>
</event>
<event>
 7    1  0.3345055E-009  0.9227691E+02  0.7818608E-02  0.1297430E+00
         -1   -1    0    0    0  501 -0.00000000000E+00  0.00000000000E+00  0.13587722067E+02  0.13587723002E+02  0.50400000000E-02 0.  1.
          1   -1    0    0  501    0  0.00000000000E+00 -0.00000000000E+00 -0.15666767119E+03  0.15666767127E+03  0.50400000000E-02 0. -1.
         23    2    1    2    0    0 -0.17763568394E-14  0.00000000000E+00 -0.14307994913E+03  0.17025539427E+03  0.92276906309E+02 0.  0.
    9000005    2    3    3    0    0  0.11718164915E+02  0.38273442943E+02 -0.33192314390E+02  0.53304703420E+02  0.11725606526E+02 0.  0.
         22    1    3    3    0    0 -0.11718164915E+02 -0.38273442943E+02 -0.10988763474E+03  0.11695069086E+03  0.00000000000E+00 0.  1.
         22    1    4    4    0    0  0.90094988604E+01  0.22308874698E+02 -0.26474777761E+02  0.35773884574E+02  0.00000000000E+00 0. -1.
         22    1    4    4    0    0  0.27086660541E+01  0.15964568245E+02 -0.67175366289E+01  0.17530818846E+02  0.00000000000E+00 0. -1.
<mgrwt>
<rscale>  0 0.92276906E+02</rscale>
<asrwt>0</asrwt>
<pdfrwt beam="2">  1        1 0.24102717E-01 0.92276906E+02</pdfrwt>
<pdfrwt beam="1">  1       -1 0.20904190E-02 0.92276906E+02</pdfrwt>
<totfact> 0.10943626E+05</totfact>
</mgrwt>
</event>
<event>
 7    1  0.3345055E-009  0.8894741E+02  0.7818608E-02  0.1305421E+00
          1   -1    0    0  501    0  0.00000000000E+00  0.00000000000E+00  0.12345025073E+04  0.12345025073E+04  0.50400000000E-02 0. -1.
         -1   -1    0    0    0  501 -0.00000000000E+00 -0.00000000000E+00 -0.16021883589E+01  0.16021962861E+01  0.50400000000E-02 0.  1.
         23    2    1    2    0    0  0.00000000000E+00  0.00000000000E+00  0.12329003189E+04  0.12361047036E+04  0.88947410349E+02 0.  0.
    9000005    2    3    3    0    0  0.16717130360E+02 -0.15091806756E+01  0.11872646096E+04  0.11874800387E+04  0.15160768671E+02 0.  0.
         22    1    3    3    0    0 -0.16717130360E+02  0.15091806756E+01  0.45635709269E+02  0.48624664875E+02  0.00000000000E+00 0.  1.
         22    1    4    4    0    0  0.51502818598E+00  0.30411345608E+01  0.52427342594E+02  0.52517996963E+02  0.00000000000E+00 0.  1.
         22    1    4    4    0    0  0.16202102174E+02 -0.45503152364E+01  0.11348372670E+04  0.11349620417E+04  0.00000000000E+00 0.  1.
<mgrwt>
<rscale>  0 0.88947410E+02</rscale>
<asrwt>0</asrwt>
<pdfrwt beam="1">  1        1 0.18992417E+00 0.88947410E+02</pdfrwt>
<pdfrwt beam="2">  1       -1 0.24649021E-03 0.88947410E+02</pdfrwt>
<totfact> 0.13403701E+05</totfact>
</mgrwt>
</event>
<event>
 7    1  0.3345055E-009  0.9461933E+02  0.7818608E-02  0.1292036E+00
         -1   -1    0    0    0  501 -0.00000000000E+00  0.00000000000E+00  0.96913653005E+02  0.96913653136E+02  0.50400000000E-02 0.  1.
          1   -1    0    0  501    0  0.00000000000E+00 -0.00000000000E+00 -0.23094828917E+02  0.23094829467E+02  0.50400000000E-02 0. -1.
         23    2    1    2    0    0  0.00000000000E+00 -0.71054273576E-14  0.73818824088E+02  0.12000848260E+03  0.94619327344E+02 0.  0.
    9000005    2    3    3    0    0 -0.24819752344E+02  0.37012772777E+02  0.22472487426E+02  0.52020161962E+02  0.14666939161E+02 0.  0.
         22    1    3    3    0    0  0.24819752344E+02 -0.37012772777E+02  0.51346336661E+02  0.67988320641E+02  0.00000000000E+00 0.  1.
         22    1    4    4    0    0 -0.12841431186E+02  0.71547176587E+01  0.60050568766E+01  0.15879327686E+02  0.00000000000E+00 0. -1.
         22    1    4    4    0    0 -0.11978321158E+02  0.29858055119E+02  0.16467430550E+02  0.36140834276E+02  0.00000000000E+00 0. -1.
<mgrwt>
<rscale>  0 0.94619327E+02</rscale>
<asrwt>0</asrwt>
<pdfrwt beam="2">  1        1 0.35530506E-02 0.94619327E+02</pdfrwt>
<pdfrwt beam="1">  1       -1 0.14909793E-01 0.94619327E+02</pdfrwt>
<totfact> 0.74388241E+04</totfact>
</mgrwt>
</event>
<event>
 7    1  0.3345055E-009  0.9154119E+02  0.7818608E-02  0.1299162E+00
          1   -1    0    0  501    0  0.00000000000E+00  0.00000000000E+00  0.56083632383E+02  0.56083632609E+02  0.50400000000E-02 0. -1.
         -1   -1    0    0    0  501 -0.00000000000E+00 -0.00000000000E+00 -0.37353984521E+02  0.37353984861E+02  0.50400000000E-02 0.  1.
         23    2    1    2    0    0  0.00000000000E+00  0.00000000000E+00  0.18729647862E+02  0.93437617470E+02  0.91541185537E+02 0.  0.
    9000005    2    3    3    0    0  0.11254804637E+02  0.41701966733E+02  0.20186491949E+02  0.50219021340E+02  0.15771207637E+02 0.  0.
         22    1    3    3    0    0 -0.11254804637E+02 -0.41701966733E+02 -0.14568440872E+01  0.43218596131E+02  0.00000000000E+00 0. -1.
         22    1    4    4    0    0  0.11498208608E+02  0.39275645653E+02  0.13486549304E+02  0.43089118752E+02  0.00000000000E+00 0. -1.
         22    1    4    4    0    0 -0.24340397157E+00  0.24263210798E+01  0.66999426446E+01  0.71299025882E+01  0.00000000000E+00 0. -1.
<mgrwt>
<rscale>  0 0.91541186E+02</rscale>
<asrwt>0</asrwt>
<pdfrwt beam="1">  1        1 0.86282511E-02 0.91541186E+02</pdfrwt>
<pdfrwt beam="2">  1       -1 0.57467669E-02 0.91541186E+02</pdfrwt>
<totfact> 0.94341050E+04</totfact>
</mgrwt>
</event>
<event>
 7    1  0.3345055E-009  0.8922130E+02  0.7818608E-02  0.1304748E+00
         -1   -1    0    0    0  501 -0.00000000000E+00  0.00000000000E+00  0.38943204384E+01  0.38943236997E+01  0.50400000000E-02 0.  1.
          1   -1    0    0  501    0  0.00000000000E+00 -0.00000000000E+00 -0.51102864248E+03  0.51102864250E+03  0.50400000000E-02 0. -1.
         23    2    1    2    0    0  0.00000000000E+00  0.00000000000E+00 -0.50713432204E+03  0.51492296620E+03  0.89221300889E+02 0.  0.
    9000005    2    3    3    0    0 -0.28550159636E+02  0.84737323951E+01 -0.44449339566E+03  0.44556302522E+03  0.80693802888E+01 0.  0.
         22    1    3    3    0    0  0.28550159636E+02 -0.84737323951E+01 -0.62640926379E+02  0.69359940986E+02  0.00000000000E+00 0.  1.
         22    1    4    4    0    0 -0.28316243289E+02  0.72997819694E+01 -0.43673065586E+03  0.43770853569E+03  0.00000000000E+00 0. -1.
         22    1    4    4    0    0 -0.23391634755E+00  0.11739504257E+01 -0.77627397986E+01  0.78544895213E+01  0.00000000000E+00 0. -1.
<mgrwt>
<rscale>  0 0.89221301E+02</rscale>
<asrwt>0</asrwt>
<pdfrwt beam="2">  1        1 0.78619738E-01 0.89221301E+02</pdfrwt>
<pdfrwt beam="1">  1       -1 0.59912688E-03 0.89221301E+02</pdfrwt>
<totfact> 0.14785838E+05</totfact>
</mgrwt>
</event>
<event>
 7    1  0.3345055E-009  0.8948694E+02  0.7818608E-02  0.1304099E+00
          1   -1    0    0  501    0  0.00000000000E+00  0.00000000000E+00  0.28846351103E+03  0.28846351107E+03  0.50400000000E-02 0. -1.
         -1   -1    0    0    0  501 -0.00000000000E+00 -0.00000000000E+00 -0.69401428605E+01  0.69401446906E+01  0.50400000000E-02 0.  1.
         23    2    1    2    0    0 -0.35527136788E-14  0.00000000000E+00  0.28152336816E+03  0.29540365576E+03  0.89486943257E+02 0.  0.
    9000005    2    3    3    0    0 -0.27351323351E+02 -0.69586167226E+01  0.25483851773E+03  0.25656297504E+03  0.92397407462E+01 0.  0.
         22    1    3    3    0    0  0.27351323351E+02  0.69586167226E+01  0.26684850435E+02  0.38840680716E+02  0.00000000000E+00 0.  1.
         22    1    4    4    0    0 -0.42706261253E+01 -0.30045947663E+01  0.25309711513E+02  0.25842742387E+02  0.00000000000E+00 0.  1.
         22    1    4    4    0    0 -0.23080697226E+02 -0.39540219563E+01  0.22952880622E+03  0.23072023266E+03  0.00000000000E+00 0.  1.
<mgrwt>
<rscale>  0 0.89486943E+02</rscale>
<asrwt>0</asrwt>
<pdfrwt beam="1">  1        1 0.44379001E-01 0.89486943E+02</pdfrwt>
<pdfrwt beam="2">  1       -1 0.10677144E-02 0.89486943E+02</pdfrwt>
<totfact> 0.13365572E+05</totfact>
</mgrwt>
</event>
<event>
 7    1  0.3345055E-009  0.9244146E+02  0.7818608E-02  0.1297045E+00
          1   -1    0    0  501    0  0.00000000000E+00  0.00000000000E+00  0.54609502706E+02  0.54609502939E+02  0.50400000000E-02 0. -1.
         -1   -1    0    0    0  501 -0.00000000000E+00 -0.00000000000E+00 -0.39120592042E+02  0.39120592367E+02  0.50400000000E-02 0.  1.
         23    2    1    2    0    0  0.00000000000E+00  0.00000000000E+00  0.15488910664E+02  0.93730095305E+02  0.92441464789E+02 0.  0.
    9000005    2    3    3    0    0 -0.41953120985E+02  0.65583974453E+01  0.25855398322E+02  0.50020359504E+02  0.55188590410E+01 0.  0.
         22    1    3    3    0    0  0.41953120985E+02 -0.65583974453E+01 -0.10366487658E+02  0.43709735801E+02  0.00000000000E+00 0.  1.
         22    1    4    4    0    0 -0.35717122890E+02  0.51090899582E+01  0.24074507756E+02  0.43375080305E+02  0.00000000000E+00 0. -1.
         22    1    4    4    0    0 -0.62359980951E+01  0.14493074871E+01  0.17808905660E+01  0.66452791998E+01  0.00000000000E+00 0. -1.
<mgrwt>
<rscale>  0 0.92441465E+02</rscale>
<asrwt>0</asrwt>
<pdfrwt beam="1">  1        1 0.84014620E-02 0.92441465E+02</pdfrwt>
<pdfrwt beam="2">  1       -1 0.60185527E-02 0.92441465E+02</pdfrwt>
<totfact> 0.91431150E+04</totfact>
</mgrwt>
</event>
<event>
 7    1  0.3345055E-009  0.9201114E+02  0.7818608E-02  0.1298053E+00
         -1   -1    0    0    0  501 -0.00000000000E+00  0.00000000000E+00  0.82626567824E+01  0.82626583196E+01  0.50400000000E-02 0.  1.
          1   -1    0    0  501    0  0.00000000000E+00 -0.00000000000E+00 -0.25615395561E+03  0.25615395565E+03  0.50400000000E-02 0. -1.
         23    2    1    2    0    0  0.00000000000E+00  0.71054273576E-14 -0.24789129882E+03  0.26441661397E+03  0.92011139074E+02 0.  0.
    9000005    2    3    3    0    0  0.75696763084E+01  0.36379089133E+02 -0.20188891407E+03  0.20528153531E+03  0.79811650569E+00 0.  0.
         22    1    3    3    0    0 -0.75696763084E+01 -0.36379089133E+02 -0.46002384757E+02  0.59135078667E+02  0.00000000000E+00 0.  1.
         22    1    4    4    0    0  0.57125609691E+01  0.27908297819E+02 -0.15295678430E+03  0.15558690274E+03  0.00000000000E+00 0. -1.
         22    1    4    4    0    0  0.18571153393E+01  0.84707913143E+01 -0.48932129765E+02  0.49694632570E+02  0.00000000000E+00 0. -1.
<mgrwt>
<rscale>  0 0.92011139E+02</rscale>
<asrwt>0</asrwt>
<pdfrwt beam="2">  1        1 0.39408295E-01 0.92011139E+02</pdfrwt>
<pdfrwt beam="1">  1       -1 0.12711783E-02 0.92011139E+02</pdfrwt>
<totfact> 0.12126698E+05</totfact>
</mgrwt>
</event>
<event>
 7    1  0.3345055E-009  0.8802238E+02  0.7818608E-02  0.1307713E+00
         -1   -1    0    0    0  501 -0.00000000000E+00  0.00000000000E+00  0.44679437513E+01  0.44679465940E+01  0.50400000000E-02 0.  1.
          1   -1    0    0  501    0  0.00000000000E+00 -0.00000000000E+00 -0.43352920122E+03  0.43352920125E+03  0.50400000000E-02 0. -1.
         23    2    1    2    0    0  0.88817841970E-15  0.00000000000E+00 -0.42906125747E+03  0.43799714785E+03  0.88022377032E+02 0.  0.
    9000005    2    3    3    0    0  0.55813841933E+01 -0.22443918630E+02 -0.40021785446E+03  0.40102657536E+03  0.10634932026E+02 0.  0.
         22    1    3    3    0    0 -0.55813841933E+01  0.22443918630E+02 -0.28843403008E+02  0.36970572488E+02  0.00000000000E+00 0.  1.
         22    1    4    4    0    0  0.76788342616E+01 -0.15288414641E+02 -0.22468467331E+03  0.22533508945E+03  0.00000000000E+00 0.  1.
         22    1    4    4    0    0 -0.20974500683E+01 -0.71555039893E+01 -0.17553318115E+03  0.17569148591E+03  0.00000000000E+00 0.  1.
<mgrwt>
<rscale>  0 0.88022377E+02</rscale>
<asrwt>0</asrwt>
<pdfrwt beam="2">  1        1 0.66696767E-01 0.88022377E+02</pdfrwt>
<pdfrwt beam="1">  1       -1 0.68737652E-03 0.88022377E+02</pdfrwt>
<totfact> 0.14995654E+05</totfact>
</mgrwt>
</event>
<event>
 7    1  0.3345055E-009  0.8753422E+02  0.7818608E-02  0.1308935E+00
         -1   -1    0    0    0  501 -0.00000000000E+00  0.00000000000E+00  0.80711204144E+02  0.80711204302E+02  0.50400000000E-02 0.  1.
          1   -1    0    0  501    0  0.00000000000E+00 -0.00000000000E+00 -0.23733506792E+02  0.23733507327E+02  0.50400000000E-02 0. -1.
         23    2    1    2    0    0  0.00000000000E+00  0.00000000000E+00  0.56977697352E+02  0.10444471163E+03  0.87534220689E+02 0.  0.
    9000005    2    3    3    0    0  0.32008786724E+02 -0.59104262876E+01 -0.52370409901E+01  0.34229547786E+02  0.92054210596E+01 0.  0.
         22    1    3    3    0    0 -0.32008786724E+02  0.59104262876E+01  0.62214738342E+02  0.70215163843E+02  0.00000000000E+00 0.  1.
         22    1    4    4    0    0  0.82191908097E+01  0.24928740044E+01 -0.10172181278E+01  0.86489450853E+01  0.00000000000E+00 0.  1.
         22    1    4    4    0    0  0.23789595914E+02 -0.84033002920E+01 -0.42198228623E+01  0.25580602701E+02  0.00000000000E+00 0.  1.
<mgrwt>
<rscale>  0 0.87534221E+02</rscale>
<asrwt>0</asrwt>
<pdfrwt beam="2">  1        1 0.36513088E-02 0.87534221E+02</pdfrwt>
<pdfrwt beam="1">  1       -1 0.12417108E-01 0.87534221E+02</pdfrwt>
<totfact> 0.93811288E+04</totfact>
</mgrwt>
</event>
<event>
 7    1  0.3345055E-009  0.8971266E+02  0.7818608E-02  0.1303549E+00
         -1   -1    0    0    0  501 -0.00000000000E+00  0.00000000000E+00  0.75690666136E+02  0.75690666303E+02  0.50400000000E-02 0.  1.
          1   -1    0    0  501    0  0.00000000000E+00 -0.00000000000E+00 -0.26583067489E+02  0.26583067967E+02  0.50400000000E-02 0. -1.
         23    2    1    2    0    0  0.00000000000E+00  0.00000000000E+00  0.49107598647E+02  0.10227373427E+03  0.89712655053E+02 0.  0.
    9000005    2    3    3    0    0 -0.17191253604E+02  0.18748566354E+01  0.71247628507E+02  0.74180403921E+02  0.11289529231E+02 0.  0.
         22    1    3    3    0    0  0.17191253604E+02 -0.18748566354E+01 -0.22140029860E+02  0.28093330349E+02  0.00000000000E+00 0. -1.
         22    1    4    4    0    0 -0.36978995868E+01 -0.20812743552E+01  0.55038645190E+01  0.69497258176E+01  0.00000000000E+00 0. -1.
         22    1    4    4    0    0 -0.13493354017E+02  0.39561309906E+01  0.65743763988E+02  0.67230678104E+02  0.00000000000E+00 0. -1.
<mgrwt>
<rscale>  0 0.89712655E+02</rscale>
<asrwt>0</asrwt>
<pdfrwt beam="2">  1        1 0.40897027E-02 0.89712655E+02</pdfrwt>
<pdfrwt beam="1">  1       -1 0.11644718E-01 0.89712655E+02</pdfrwt>
<totfact> 0.89044260E+04</totfact>
</mgrwt>
</event>
<event>
 7    1  0.3345055E-009  0.9151671E+02  0.7818608E-02  0.1299220E+00
          1   -1    0    0  501    0  0.00000000000E+00  0.00000000000E+00  0.77354296093E+03  0.77354296095E+03  0.50400000000E-02 0. -1.
         -1   -1    0    0    0  501 -0.00000000000E+00 -0.00000000000E+00 -0.27067990277E+01  0.27068037199E+01  0.50400000000E-02 0.  1.
         23    2    1    2    0    0  0.71054273576E-14  0.00000000000E+00  0.77083616191E+03  0.77624976467E+03  0.91516712399E+02 0.  0.
    9000005    2    3    3    0    0 -0.37362526193E+02  0.14642006935E+02  0.56307039579E+03  0.56464409296E+03  0.12819296690E+02 0.  0.
         22    1    3    3    0    0  0.37362526193E+02 -0.14642006935E+02  0.20776576612E+03  0.21160567171E+03  0.00000000000E+00 0.  1.
         22    1    4    4    0    0 -0.24234053552E+02  0.13918411502E+02  0.43615797144E+03  0.43705238540E+03  0.00000000000E+00 0. -1.
         22    1    4    4    0    0 -0.13128472640E+02  0.72359543315E+00  0.12691242435E+03  0.12759170756E+03  0.00000000000E+00 0. -1.
<mgrwt>
<rscale>  0 0.91516712E+02</rscale>
<asrwt>0</asrwt>
<pdfrwt beam="1">  1        1 0.11900666E+00 0.91516712E+02</pdfrwt>
<pdfrwt beam="2">  1       -1 0.41643080E-03 0.91516712E+02</pdfrwt>
<totfact> 0.14027563E+05</totfact>
</mgrwt>
</event>
<event>
 7    1  0.3345055E-009  0.9304501E+02  0.7818608E-02  0.1295641E+00
          1   -1    0    0  501    0  0.00000000000E+00  0.00000000000E+00  0.10066817985E+04  0.10066817985E+04  0.50400000000E-02 0. -1.
         -1   -1    0    0    0  501 -0.00000000000E+00 -0.00000000000E+00 -0.21499747961E+01  0.21499807035E+01  0.50400000000E-02 0.  1.
         23    2    1    2    0    0 -0.44408920985E-15 -0.35527136788E-14  0.10045318237E+04  0.10088317792E+04  0.93045010197E+02 0.  0.
    9000005    2    3    3    0    0 -0.11993507450E+01 -0.27257278989E+02  0.90881060754E+03  0.90929812197E+03  0.11914551962E+02 0.  0.
         22    1    3    3    0    0  0.11993507450E+01  0.27257278989E+02  0.95721216164E+02  0.99533657242E+02  0.00000000000E+00 0.  1.
         22    1    4    4    0    0 -0.59079488938E+01 -0.19244191298E+02  0.68233601414E+03  0.68263290204E+03  0.00000000000E+00 0.  1.
         22    1    4    4    0    0  0.47085981488E+01 -0.80130876911E+01  0.22647459340E+03  0.22666521993E+03  0.00000000000E+00 0.  1.
<mgrwt>
<rscale>  0 0.93045010E+02</rscale>
<asrwt>0</asrwt>
<pdfrwt beam="1">  1        1 0.15487412E+00 0.93045010E+02</pdfrwt>
<pdfrwt beam="2">  1       -1 0.33076582E-03 0.93045010E+02</pdfrwt>
<totfact> 0.12867770E+05</totfact>
</mgrwt>
</event>
<event>
 7    1  0.3345055E-009  0.8992052E+02  0.7818608E-02  0.1303044E+00
         -1   -1    0    0    0  501 -0.00000000000E+00  0.00000000000E+00  0.56541394707E+02  0.56541394931E+02  0.50400000000E-02 0.  1.
          1   -1    0    0  501    0  0.00000000000E+00 -0.00000000000E+00 -0.35751238052E+02  0.35751238407E+02  0.50400000000E-02 0. -1.
         23    2    1    2    0    0 -0.88817841970E-15 -0.35527136788E-14  0.20790156655E+02  0.92292633338E+02  0.89920517985E+02 0.  0.
    9000005    2    3    3    0    0  0.55626509205E+01  0.23205762997E+02  0.48107835637E+02  0.56019969988E+02  0.15950632157E+02 0.  0.
         22    1    3    3    0    0 -0.55626509205E+01 -0.23205762997E+02 -0.27317678982E+02  0.36272663350E+02  0.00000000000E+00 0. -1.
         22    1    4    4    0    0  0.41958840592E+01  0.23765152309E+02  0.48760286748E+02  0.54405454424E+02  0.00000000000E+00 0.  1.
         22    1    4    4    0    0  0.13667668613E+01 -0.55938931260E+00 -0.65245111031E+00  0.16145155643E+01  0.00000000000E+00 0.  1.
<mgrwt>
<rscale>  0 0.89920518E+02</rscale>
<asrwt>0</asrwt>
<pdfrwt beam="2">  1        1 0.55001906E-02 0.89920518E+02</pdfrwt>
<pdfrwt beam="1">  1       -1 0.86986761E-02 0.89920518E+02</pdfrwt>
<totfact> 0.92693400E+04</totfact>
</mgrwt>
</event>
<event>
 7    1  0.3345055E-009  0.8769572E+02  0.7818608E-02  0.1308530E+00
          1   -1    0    0  501    0  0.00000000000E+00  0.00000000000E+00  0.75486349240E+02  0.75486349408E+02  0.50400000000E-02 0. -1.
         -1   -1    0    0    0  501 -0.00000000000E+00 -0.00000000000E+00 -0.25469969105E+02  0.25469969603E+02  0.50400000000E-02 0.  1.
         23    2    1    2    0    0  0.00000000000E+00  0.00000000000E+00  0.50016380135E+02  0.10095631901E+03  0.87695724334E+02 0.  0.
    9000005    2    3    3    0    0 -0.18328358312E+02 -0.58152855884E+01  0.70220948875E+02  0.73064189963E+02  0.61357908338E+01 0.  0.
         22    1    3    3    0    0  0.18328358312E+02  0.58152855884E+01 -0.20204568740E+02  0.27892129048E+02  0.00000000000E+00 0.  1.
         22    1    4    4    0    0 -0.14026488648E+02 -0.26489004345E+01  0.57929335829E+02  0.59662106960E+02  0.00000000000E+00 0.  1.
         22    1    4    4    0    0 -0.43018696642E+01 -0.31663851538E+01  0.12291613046E+02  0.13402083003E+02  0.00000000000E+00 0.  1.
<mgrwt>
<rscale>  0 0.87695724E+02</rscale>
<asrwt>0</asrwt>
<pdfrwt beam="1">  1        1 0.11613285E-01 0.87695724E+02</pdfrwt>
<pdfrwt beam="2">  1       -1 0.39184568E-02 0.87695724E+02</pdfrwt>
<totfact> 0.11106847E+05</totfact>
</mgrwt>
</event>
<event>
 7    1  0.3582372E-009  0.9169851E+02  0.7818608E-02  0.1298790E+00
         -1   -1    0    0    0  501 -0.00000000000E+00  0.00000000000E+00  0.25262503821E+01  0.25262554096E+01  0.50400000000E-02 0.  1.
          1   -1    0    0  501    0  0.00000000000E+00 -0.00000000000E+00 -0.83212344876E+03  0.83212344877E+03  0.50400000000E-02 0. -1.
         23    2    1    2    0    0 -0.44408920985E-15 -0.35527136788E-14 -0.82959719838E+03  0.83464970418E+03  0.91698512199E+02 0.  0.
    9000005    2    3    3    0    0  0.38567114340E+01  0.25143029212E+02 -0.76018717188E+03  0.76072543266E+03  0.13099674572E+02 0.  0.
         22    1    3    3    0    0 -0.38567114340E+01 -0.25143029212E+02 -0.69410026498E+02  0.73924271518E+02  0.00000000000E+00 0.  1.
         22    1    4    4    0    0  0.41457615758E+01  0.22380959505E+01 -0.70076077526E+02  0.70234272645E+02  0.00000000000E+00 0.  1.
         22    1    4    4    0    0 -0.28905014180E+00  0.22904933262E+02 -0.69011109435E+03  0.69049116002E+03  0.00000000000E+00 0.  1.
<mgrwt>
<rscale>  0 0.91698512E+02</rscale>
<asrwt>0</asrwt>
<pdfrwt beam="2">  1        1 0.12801877E+00 0.91698512E+02</pdfrwt>
<pdfrwt beam="1">  1       -1 0.38865496E-03 0.91698512E+02</pdfrwt>
<totfact> 0.13863378E+05</totfact>
</mgrwt>
</event>
<event>
 7    1  0.3345055E-009  0.9129302E+02  0.7818608E-02  0.1299750E+00
         -1   -1    0    0    0  501 -0.00000000000E+00  0.00000000000E+00  0.43169942332E+02  0.43169942626E+02  0.50400000000E-02 0.  1.
          1   -1    0    0  501    0  0.00000000000E+00 -0.00000000000E+00 -0.48265152725E+02  0.48265152988E+02  0.50400000000E-02 0. -1.
         23    2    1    2    0    0  0.00000000000E+00  0.35527136788E-14 -0.50952103932E+01  0.91435095614E+02  0.91293020221E+02 0.  0.
    9000005    2    3    3    0    0  0.33683349086E+02 -0.21218688840E+02 -0.24685882838E+02  0.47066241577E+02  0.45866679602E+01 0.  0.
         22    1    3    3    0    0 -0.33683349086E+02  0.21218688840E+02  0.19590672444E+02  0.44368854037E+02  0.00000000000E+00 0.  1.
         22    1    4    4    0    0  0.12090146046E+02 -0.70330588640E+01 -0.11223000363E+02  0.17932966446E+02  0.00000000000E+00 0.  1.
         22    1    4    4    0    0  0.21593203040E+02 -0.14185629977E+02 -0.13462882474E+02  0.29133275131E+02  0.00000000000E+00 0.  1.
<mgrwt>
<rscale>  0 0.91293020E+02</rscale>
<asrwt>0</asrwt>
<pdfrwt beam="2">  1        1 0.74254082E-02 0.91293020E+02</pdfrwt>
<pdfrwt beam="1">  1       -1 0.66415296E-02 0.91293020E+02</pdfrwt>
<totfact> 0.92935954E+04</totfact>
</mgrwt>
</event>
<event>
 7    1  0.3345055E-009  0.9115311E+02  0.7818608E-02  0.1300083E+00
         -1   -1    0    0    0  501 -0.00000000000E+00  0.00000000000E+00  0.18945129241E+02  0.18945129911E+02  0.50400000000E-02 0.  1.
          1   -1    0    0  501    0  0.00000000000E+00 -0.00000000000E+00 -0.10964413266E+03  0.10964413278E+03  0.50400000000E-02 0. -1.
         23    2    1    2    0    0 -0.22204460493E-15  0.00000000000E+00 -0.90699003424E+02  0.12858926269E+03  0.91153108875E+02 0.  0.
    9000005    2    3    3    0    0 -0.14782923386E+01 -0.42210251450E+02 -0.67249092804E+02  0.80279957338E+02  0.11770318240E+02 0.  0.
         22    1    3    3    0    0  0.14782923386E+01  0.42210251450E+02 -0.23449910620E+02  0.48309305354E+02  0.00000000000E+00 0. -1.
         22    1    4    4    0    0  0.22735336207E+01 -0.33563852469E+02 -0.45583273564E+02  0.56652766715E+02  0.00000000000E+00 0.  1.
         22    1    4    4    0    0 -0.37518259593E+01 -0.86463989810E+01 -0.21665819240E+02  0.23627190622E+02  0.00000000000E+00 0.  1.
<mgrwt>
<rscale>  0 0.91153109E+02</rscale>
<asrwt>0</asrwt>
<pdfrwt beam="2">  1        1 0.16868328E-01 0.91153109E+02</pdfrwt>
<pdfrwt beam="1">  1       -1 0.29146354E-02 0.91153109E+02</pdfrwt>
<totfact> 0.10615653E+05</totfact>
</mgrwt>
</event>
<event>
 7    1  0.3345055E-009  0.8996587E+02  0.7818608E-02  0.1302934E+00
          1   -1    0    0  501    0  0.00000000000E+00  0.00000000000E+00  0.97029109480E+02  0.97029109611E+02  0.50400000000E-02 0. -1.
         -1   -1    0    0    0  501 -0.00000000000E+00 -0.00000000000E+00 -0.20854199833E+02  0.20854200442E+02  0.50400000000E-02 0.  1.
         23    2    1    2    0    0  0.00000000000E+00  0.00000000000E+00  0.76174909647E+02  0.11788331005E+03  0.89965870914E+02 0.  0.
    9000005    2    3    3    0    0 -0.64434535914E+01 -0.32554228656E+02  0.11480041646E+01  0.35844706677E+02  0.13499229077E+02 0.  0.
         22    1    3    3    0    0  0.64434535914E+01  0.32554228656E+02  0.75026905483E+02  0.82038603376E+02  0.00000000000E+00 0. -1.
         22    1    4    4    0    0 -0.35384241049E+01 -0.30687493713E+02  0.42761627303E+01  0.31185385731E+02  0.00000000000E+00 0.  1.
         22    1    4    4    0    0 -0.29050294865E+01 -0.18667349428E+01 -0.31281585657E+01  0.46593209459E+01  0.00000000000E+00 0.  1.
<mgrwt>
<rscale>  0 0.89965871E+02</rscale>
<asrwt>0</asrwt>
<pdfrwt beam="1">  1        1 0.14927555E-01 0.89965871E+02</pdfrwt>
<pdfrwt beam="2">  1       -1 0.32083385E-02 0.89965871E+02</pdfrwt>
<totfact> 0.10778638E+05</totfact>
</mgrwt>
</event>
<event>
 7    1  0.3417048E-009  0.9094080E+02  0.7818608E-02  0.1300589E+00
          1   -1    0    0  501    0  0.00000000000E+00  0.00000000000E+00  0.36253818935E+03  0.36253818939E+03  0.50400000000E-02 0. -1.
         -1   -1    0    0    0  501 -0.00000000000E+00 -0.00000000000E+00 -0.57030039704E+01  0.57030061975E+01  0.50400000000E-02 0.  1.
         23    2    1    2    0    0  0.00000000000E+00  0.00000000000E+00  0.35683518538E+03  0.36824119558E+03  0.90940797221E+02 0.  0.
    9000005    2    3    3    0    0 -0.11990482325E+02 -0.26351885384E+02  0.31857222069E+03  0.32025944909E+03  0.15481001479E+02 0.  0.
         22    1    3    3    0    0  0.11990482325E+02  0.26351885384E+02  0.38262964693E+02  0.47981746495E+02  0.00000000000E+00 0.  1.
         22    1    4    4    0    0 -0.12093767835E+02 -0.20518328218E+02  0.29559755973E+03  0.29655552319E+03  0.00000000000E+00 0. -1.
         22    1    4    4    0    0  0.10328550977E+00 -0.58335571651E+01  0.22974660955E+02  0.23703925901E+02  0.00000000000E+00 0. -1.
<mgrwt>
<rscale>  0 0.90940797E+02</rscale>
<asrwt>0</asrwt>
<pdfrwt beam="1">  1        1 0.55775096E-01 0.90940797E+02</pdfrwt>
<pdfrwt beam="2">  1       -1 0.87738556E-03 0.90940797E+02</pdfrwt>
<totfact> 0.13357227E+05</totfact>
</mgrwt>
</event>
<event>
 7    1  0.3345055E-009  0.9081292E+02  0.7818608E-02  0.1300895E+00
          1   -1    0    0  501    0  0.00000000000E+00  0.00000000000E+00  0.19468225791E+02  0.19468226443E+02  0.50400000000E-02 0. -1.
         -1   -1    0    0    0  501 -0.00000000000E+00 -0.00000000000E+00 -0.10590316297E+03  0.10590316309E+03  0.50400000000E-02 0.  1.
         23    2    1    2    0    0  0.00000000000E+00  0.00000000000E+00 -0.86434937176E+02  0.12537138953E+03  0.90812922803E+02 0.  0.
    9000005    2    3    3    0    0 -0.63990955425E+01  0.18232928154E+02 -0.99723112361E+02  0.10192008482E+03  0.83436477677E+01 0.  0.
         22    1    3    3    0    0  0.63990955425E+01 -0.18232928154E+02  0.13288175185E+02  0.23451304709E+02  0.00000000000E+00 0. -1.
         22    1    4    4    0    0  0.17407735846E+01  0.22280410095E+01 -0.20070169827E+02  0.20268354060E+02  0.00000000000E+00 0.  1.
         22    1    4    4    0    0 -0.81398691271E+01  0.16004887144E+02 -0.79652942534E+02  0.81651730761E+02  0.00000000000E+00 0.  1.
<mgrwt>
<rscale>  0 0.90812923E+02</rscale>
<asrwt>0</asrwt>
<pdfrwt beam="1">  1        1 0.29951118E-02 0.90812923E+02</pdfrwt>
<pdfrwt beam="2">  1       -1 0.16292794E-01 0.90812923E+02</pdfrwt>
<totfact> 0.81329419E+04</totfact>
</mgrwt>
</event>
<event>
 7    1  0.3345055E-009  0.9044661E+02  0.7818608E-02  0.1301774E+00
         -1   -1    0    0    0  501 -0.00000000000E+00  0.00000000000E+00  0.60731925737E+01  0.60731946650E+01  0.50400000000E-02 0.  1.
          1   -1    0    0  501    0  0.00000000000E+00 -0.00000000000E+00 -0.33674985912E+03  0.33674985916E+03  0.50400000000E-02 0. -1.
         23    2    1    2    0    0 -0.71054273576E-14 -0.17763568394E-14 -0.33067666655E+03  0.34282305383E+03  0.90446605432E+02 0.  0.
    9000005    2    3    3    0    0  0.39473471212E+02  0.82838161686E+01 -0.97016652790E+02  0.10570751539E+03  0.11622020070E+02 0.  0.
         22    1    3    3    0    0 -0.39473471212E+02 -0.82838161686E+01 -0.23366001376E+03  0.23711553844E+03  0.00000000000E+00 0.  1.
         22    1    4    4    0    0  0.61430477694E+01  0.43998055718E+01 -0.27445663526E+02  0.28466818778E+02  0.00000000000E+00 0.  1.
         22    1    4    4    0    0  0.33330423443E+02  0.38840105968E+01 -0.69570989265E+02  0.77240696608E+02  0.00000000000E+00 0.  1.
<mgrwt>
<rscale>  0 0.90446605E+02</rscale>
<asrwt>0</asrwt>
<pdfrwt beam="2">  1        1 0.51807656E-01 0.90446605E+02</pdfrwt>
<pdfrwt beam="1">  1       -1 0.93433774E-03 0.90446605E+02</pdfrwt>
<totfact> 0.13374632E+05</totfact>
</mgrwt>
</event>
<event>
 6    1  0.3345055E-009  0.1329721E+03  0.7818608E-02  0.1223111E+00
          1   -1    0    0  501    0  0.00000000000E+00  0.00000000000E+00  0.11068495632E+04  0.11068495632E+04  0.50400000000E-02 0. -1.
         -1   -1    0    0    0  501 -0.00000000000E+00 -0.00000000000E+00 -0.39936686899E+01  0.39936718701E+01  0.50400000000E-02 0.  1.
    9000005    2    1    2    0    0  0.51208723951E+02 -0.74093083023E+01  0.89819308319E+03  0.89974113278E+03  0.10298547015E+02 0.  0.
         22    1    1    2    0    0 -0.51208723951E+02  0.74093083023E+01  0.20466281134E+03  0.21110210232E+03  0.00000000000E+00 0.  1.
         22    1    3    3    0    0  0.58003394201E+01  0.34998497949E-01  0.16766193054E+03  0.16776223686E+03  0.00000000000E+00 0. -1.
         22    1    3    3    0    0  0.45408384531E+02 -0.74443068003E+01  0.73053115265E+03  0.73197889593E+03  0.00000000000E+00 0. -1.
<mgrwt>
<rscale>  0 0.13297206E+03</rscale>
<asrwt>0</asrwt>
<pdfrwt beam="1">  1        1 0.17028475E+00 0.13297206E+03</pdfrwt>
<pdfrwt beam="2">  1       -1 0.61441009E-03 0.13297206E+03</pdfrwt>
<totfact> 0.47716077E+04</totfact>
</mgrwt>
</event>
<event>
 7    1  0.3345055E-009  0.9166389E+02  0.7818608E-02  0.1298872E+00
         -1   -1    0    0    0  501 -0.00000000000E+00  0.00000000000E+00  0.25954482237E+03  0.25954482242E+03  0.50400000000E-02 0.  1.
          1   -1    0    0  501    0  0.00000000000E+00 -0.00000000000E+00 -0.80932724512E+01  0.80932740205E+01  0.50400000000E-02 0. -1.
         23    2    1    2    0    0  0.17763568394E-14  0.71054273576E-14  0.25145154992E+03  0.26763809644E+03  0.91663889887E+02 0.  0.
    9000005    2    3    3    0    0  0.84801465683E+01  0.41309904738E+02  0.84349638968E+02  0.95296952893E+02  0.13719567102E+02 0.  0.
         22    1    3    3    0    0 -0.84801465683E+01 -0.41309904738E+02  0.16710191095E+03  0.17234114355E+03  0.00000000000E+00 0. -1.
         22    1    4    4    0    0  0.10559969296E+02  0.19024739354E+02  0.46170882828E+02  0.51041199830E+02  0.00000000000E+00 0.  1.
         22    1    4    4    0    0 -0.20798227275E+01  0.22285165385E+02  0.38178756140E+02  0.44255753063E+02  0.00000000000E+00 0.  1.
<mgrwt>
<rscale>  0 0.91663890E+02</rscale>
<asrwt>0</asrwt>
<pdfrwt beam="2">  1        1 0.12451190E-02 0.91663890E+02</pdfrwt>
<pdfrwt beam="1">  1       -1 0.39929971E-01 0.91663890E+02</pdfrwt>
<totfact> 0.63050565E+04</totfact>
</mgrwt>
</event>
<event>
 7    1  0.3345055E-009  0.9102972E+02  0.7818608E-02  0.1300377E+00
          1   -1    0    0  501    0  0.00000000000E+00  0.00000000000E+00  0.10531660605E+03  0.10531660617E+03  0.50400000000E-02 0. -1.
         -1   -1    0    0    0  501 -0.00000000000E+00 -0.00000000000E+00 -0.19670236505E+02  0.19670237150E+02  0.50400000000E-02 0.  1.
         23    2    1    2    0    0  0.00000000000E+00 -0.71054273576E-14  0.85646369550E+02  0.12498684333E+03  0.91029722549E+02 0.  0.
    9000005    2    3    3    0    0 -0.33041340376E+01  0.42708835750E+02  0.60375910358E+02  0.75251965618E+02  0.13514652231E+02 0.  0.
         22    1    3    3    0    0  0.33041340376E+01 -0.42708835750E+02  0.25270459192E+02  0.49734877708E+02  0.00000000000E+00 0. -1.
         22    1    4    4    0    0 -0.79577152892E+01  0.34834037805E+02  0.46770218979E+02  0.58857359827E+02  0.00000000000E+00 0. -1.
         22    1    4    4    0    0  0.46535812516E+01  0.78747979443E+01  0.13605691379E+02  0.16394605791E+02  0.00000000000E+00 0. -1.
<mgrwt>
<rscale>  0 0.91029723E+02</rscale>
<asrwt>0</asrwt>
<pdfrwt beam="1">  1        1 0.16202555E-01 0.91029723E+02</pdfrwt>
<pdfrwt beam="2">  1       -1 0.30261903E-02 0.91029723E+02</pdfrwt>
<totfact> 0.10582550E+05</totfact>
</mgrwt>
</event>
<event>
 7    1  0.3345055E-009  0.9562839E+02  0.7818608E-02  0.1289767E+00
          1   -1    0    0  501    0  0.00000000000E+00  0.00000000000E+00  0.31897950705E+02  0.31897951103E+02  0.50400000000E-02 0. -1.
         -1   -1    0    0    0  501 -0.00000000000E+00 -0.00000000000E+00 -0.71672234189E+02  0.71672234366E+02  0.50400000000E-02 0.  1.
         23    2    1    2    0    0  0.17763568394E-14  0.16653345369E-15 -0.39774283484E+02  0.10357018547E+03  0.95628393751E+02 0.  0.
    9000005    2    3    3    0    0  0.14820505169E+02  0.44360418930E+00  0.27744196143E+02  0.34442844645E+02  0.14025867868E+02 0.  0.
         22    1    3    3    0    0 -0.14820505169E+02 -0.44360418930E+00 -0.67518479628E+02  0.69127340824E+02  0.00000000000E+00 0.  1.
         22    1    4    4    0    0  0.64953108107E+01  0.71679484249E+01  0.12163430451E+02  0.15540836126E+02  0.00000000000E+00 0.  1.
         22    1    4    4    0    0  0.83251943583E+01 -0.67243442356E+01  0.15580765692E+02  0.18902008519E+02  0.00000000000E+00 0.  1.
<mgrwt>
<rscale>  0 0.95628394E+02</rscale>
<asrwt>0</asrwt>
<pdfrwt beam="1">  1        1 0.49073771E-02 0.95628394E+02</pdfrwt>
<pdfrwt beam="2">  1       -1 0.11026498E-01 0.95628394E+02</pdfrwt>
<totfact> 0.76325034E+04</totfact>
</mgrwt>
</event>
<event>
 7    1  0.3345055E-009  0.9266481E+02  0.7818608E-02  0.1296524E+00
         -1   -1    0    0    0  501 -0.00000000000E+00  0.00000000000E+00  0.33260032251E+02  0.33260032633E+02  0.50400000000E-02 0.  1.
          1   -1    0    0  501    0  0.00000000000E+00 -0.00000000000E+00 -0.64542682691E+02  0.64542682888E+02  0.50400000000E-02 0. -1.
         23    2    1    2    0    0  0.71054273576E-14  0.00000000000E+00 -0.31282650440E+02  0.97802715521E+02  0.92664809635E+02 0.  0.
    9000005    2    3    3    0    0 -0.44841167228E+02  0.69809390214E+01 -0.12590042658E+02  0.48722399980E+02  0.12485964027E+02 0.  0.
         22    1    3    3    0    0  0.44841167228E+02 -0.69809390214E+01 -0.18692607782E+02  0.49080315542E+02  0.00000000000E+00 0. -1.
         22    1    4    4    0    0 -0.37072232059E+02  0.93637400435E+00 -0.11459458661E+02  0.38814254841E+02  0.00000000000E+00 0.  1.
         22    1    4    4    0    0 -0.77689351690E+01  0.60445650170E+01 -0.11305839972E+01  0.99081451382E+01  0.00000000000E+00 0.  1.
<mgrwt>
<rscale>  0 0.92664810E+02</rscale>
<asrwt>0</asrwt>
<pdfrwt beam="2">  1        1 0.99296435E-02 0.92664810E+02</pdfrwt>
<pdfrwt beam="1">  1       -1 0.51169281E-02 0.92664810E+02</pdfrwt>
<totfact> 0.93169791E+04</totfact>
</mgrwt>
</event>
<event>
 7    1  0.3345055E-009  0.9088170E+02  0.7818608E-02  0.1300730E+00
          1   -1    0    0  501    0  0.00000000000E+00  0.00000000000E+00  0.10005058585E+03  0.10005058598E+03  0.50400000000E-02 0.  1.
         -1   -1    0    0    0  501 -0.00000000000E+00 -0.00000000000E+00 -0.20638266638E+02  0.20638267254E+02  0.50400000000E-02 0. -1.
         23    2    1    2    0    0  0.00000000000E+00  0.00000000000E+00  0.79412319212E+02  0.12068885323E+03  0.90881697011E+02 0.  0.
    9000005    2    3    3    0    0 -0.28948068069E+02 -0.32530269684E+02  0.23893901731E+02  0.50130340136E+02  0.67766785091E+01 0.  0.
         22    1    3    3    0    0  0.28948068069E+02  0.32530269684E+02  0.55518417481E+02  0.70558513095E+02  0.00000000000E+00 0.  1.
         22    1    4    4    0    0 -0.27984489873E+02 -0.31370022992E+02  0.24316037450E+02  0.48564181175E+02  0.00000000000E+00 0.  1.
         22    1    4    4    0    0 -0.96357819595E+00 -0.11602466918E+01 -0.42213571884E+00  0.15661589608E+01  0.00000000000E+00 0.  1.
<mgrwt>
<rscale>  0 0.90881697E+02</rscale>
<asrwt>0</asrwt>
<pdfrwt beam="1">  1        1 0.15392398E-01 0.90881697E+02</pdfrwt>
<pdfrwt beam="2">  1       -1 0.31751180E-02 0.90881697E+02</pdfrwt>
<totfact> 0.10538767E+05</totfact>
</mgrwt>
</event>
<event>
 7    1  0.3345055E-009  0.9244891E+02  0.7818608E-02  0.1297027E+00
          1   -1    0    0  501    0  0.00000000000E+00  0.00000000000E+00  0.87024451303E+03  0.87024451304E+03  0.50400000000E-02 0. -1.
         -1   -1    0    0    0  501 -0.00000000000E+00 -0.00000000000E+00 -0.24552847049E+01  0.24552898777E+01  0.50400000000E-02 0.  1.
         23    2    1    2    0    0  0.71054273576E-14  0.00000000000E+00  0.86778922832E+03  0.87269980292E+03  0.92448911424E+02 0.  0.
    9000005    2    3    3    0    0  0.34099853241E+02  0.11654151281E+02  0.69897427634E+03  0.70008141675E+03  0.15821878895E+02 0.  0.
         22    1    3    3    0    0 -0.34099853241E+02 -0.11654151281E+02  0.16881495198E+03  0.17261838617E+03  0.00000000000E+00 0.  1.
         22    1    4    4    0    0 -0.11641412183E+01  0.12207121763E+01  0.78604020582E+02  0.78622117847E+02  0.00000000000E+00 0. -1.
         22    1    4    4    0    0  0.35263994459E+02  0.10433439104E+02  0.62037025576E+03  0.62145929890E+03  0.00000000000E+00 0. -1.
<mgrwt>
<rscale>  0 0.92448911E+02</rscale>
<asrwt>0</asrwt>
<pdfrwt beam="1">  1        1 0.13388373E+00 0.92448911E+02</pdfrwt>
<pdfrwt beam="2">  1       -1 0.37773663E-03 0.92448911E+02</pdfrwt>
<totfact> 0.13488921E+05</totfact>
</mgrwt>
</event>
<event>
 7    1  0.4221463E-009  0.9033371E+02  0.7818608E-02  0.1302046E+00
         -1   -1    0    0    0  501 -0.00000000000E+00  0.00000000000E+00  0.49950539270E+01  0.49950564697E+01  0.50400000000E-02 0.  1.
          1   -1    0    0  501    0  0.00000000000E+00 -0.00000000000E+00 -0.40841287849E+03  0.40841287852E+03  0.50400000000E-02 0. -1.
         23    2    1    2    0    0 -0.35527136788E-14  0.00000000000E+00 -0.40341782457E+03  0.41340793499E+03  0.90333712081E+02 0.  0.
    9000005    2    3    3    0    0  0.21215518904E+02 -0.18695064637E+02 -0.36110476465E+03  0.36251590493E+03  0.14883769465E+02 0.  0.
         22    1    3    3    0    0 -0.21215518904E+02  0.18695064637E+02 -0.42313059919E+02  0.50892030062E+02  0.00000000000E+00 0.  1.
         22    1    4    4    0    0  0.16684959785E+02 -0.12399168240E+02 -0.32072131112E+03  0.32139428536E+03  0.00000000000E+00 0.  1.
         22    1    4    4    0    0  0.45305591185E+01 -0.62958963963E+01 -0.40383453532E+02  0.41121619575E+02  0.00000000000E+00 0.  1.
<mgrwt>
<rscale>  0 0.90333712E+02</rscale>
<asrwt>0</asrwt>
<pdfrwt beam="2">  1        1 0.62832725E-01 0.90333712E+02</pdfrwt>
<pdfrwt beam="1">  1       -1 0.76847035E-03 0.90333712E+02</pdfrwt>
<totfact> 0.13872444E+05</totfact>
</mgrwt>
</event>
<event>
 7    1  0.3345055E-009  0.9317732E+02  0.7818608E-02  0.1295335E+00
         -1   -1    0    0    0  501 -0.00000000000E+00  0.00000000000E+00  0.13951989188E+03  0.13951989197E+03  0.50400000000E-02 0.  1.
          1   -1    0    0  501    0  0.00000000000E+00 -0.00000000000E+00 -0.15556944961E+02  0.15556945777E+02  0.50400000000E-02 0. -1.
         23    2    1    2    0    0  0.35527136788E-14  0.00000000000E+00  0.12396294692E+03  0.15507683775E+03  0.93177322331E+02 0.  0.
    9000005    2    3    3    0    0 -0.28819775689E+02 -0.35371906226E+02  0.74268284635E+02  0.87613435221E+02  0.88648016202E+01 0.  0.
         22    1    3    3    0    0  0.28819775689E+02  0.35371906226E+02  0.49694662282E+02  0.67463402524E+02  0.00000000000E+00 0. -1.
         22    1    4    4    0    0 -0.67834958034E+01 -0.43908238196E+01  0.91342051218E+01  0.12195443917E+02  0.00000000000E+00 0. -1.
         22    1    4    4    0    0 -0.22036279886E+02 -0.30981082406E+02  0.65134079514E+02  0.75417991304E+02  0.00000000000E+00 0. -1.
<mgrwt>
<rscale>  0 0.93177322E+02</rscale>
<asrwt>0</asrwt>
<pdfrwt beam="2">  1        1 0.23933762E-02 0.93177322E+02</pdfrwt>
<pdfrwt beam="1">  1       -1 0.21464599E-01 0.93177322E+02</pdfrwt>
<totfact> 0.71872783E+04</totfact>
</mgrwt>
</event>
<event>
 7    1  0.3345055E-009  0.9180328E+02  0.7818608E-02  0.1298543E+00
          1   -1    0    0  501    0  0.00000000000E+00  0.00000000000E+00  0.10725576332E+03  0.10725576344E+03  0.50400000000E-02 0. -1.
         -1   -1    0    0    0  501 -0.00000000000E+00 -0.00000000000E+00 -0.19644264655E+02  0.19644265301E+02  0.50400000000E-02 0.  1.
         23    2    1    2    0    0 -0.17763568394E-14  0.00000000000E+00  0.87611498663E+02  0.12690002874E+03  0.91803282053E+02 0.  0.
    9000005    2    3    3    0    0  0.12043601932E+02  0.33524062931E+02  0.73956421600E+01  0.39130473780E+02  0.14407890630E+02 0.  0.
         22    1    3    3    0    0 -0.12043601932E+02 -0.33524062931E+02  0.80215856503E+02  0.87769554958E+02  0.00000000000E+00 0. -1.
         22    1    4    4    0    0  0.65902705480E+01  0.22686402215E+02 -0.21093057223E+01  0.23718214139E+02  0.00000000000E+00 0.  1.
         22    1    4    4    0    0  0.54533313837E+01  0.10837660717E+02  0.95049478823E+01  0.15412259641E+02  0.00000000000E+00 0.  1.
<mgrwt>
<rscale>  0 0.91803282E+02</rscale>
<asrwt>0</asrwt>
<pdfrwt beam="1">  1        1 0.16500887E-01 0.91803282E+02</pdfrwt>
<pdfrwt beam="2">  1       -1 0.30221946E-02 0.91803282E+02</pdfrwt>
<totfact> 0.10373262E+05</totfact>
</mgrwt>
</event>
<event>
 7    1  0.3345055E-009  0.9292971E+02  0.7818608E-02  0.1295908E+00
         -1   -1    0    0    0  501 -0.00000000000E+00  0.00000000000E+00  0.12757420766E+03  0.12757420776E+03  0.50400000000E-02 0.  1.
          1   -1    0    0  501    0  0.00000000000E+00 -0.00000000000E+00 -0.16923346112E+02  0.16923346863E+02  0.50400000000E-02 0. -1.
         23    2    1    2    0    0  0.00000000000E+00  0.00000000000E+00  0.11065086155E+03  0.14449755463E+03  0.92929705320E+02 0.  0.
    9000005    2    3    3    0    0  0.43501351925E+02 -0.12562334670E+02  0.58992146459E+02  0.75804012596E+02  0.14696772098E+02 0.  0.
         22    1    3    3    0    0 -0.43501351925E+02  0.12562334670E+02  0.51658715092E+02  0.68693542030E+02  0.00000000000E+00 0. -1.
         22    1    4    4    0    0  0.23937120129E+02 -0.51428144741E+01  0.42949749126E+02  0.49437993596E+02  0.00000000000E+00 0. -1.
         22    1    4    4    0    0  0.19564231796E+02 -0.74195201960E+01  0.16042397332E+02  0.26366019000E+02  0.00000000000E+00 0. -1.
<mgrwt>
<rscale>  0 0.92929705E+02</rscale>
<asrwt>0</asrwt>
<pdfrwt beam="2">  1        1 0.26035918E-02 0.92929705E+02</pdfrwt>
<pdfrwt beam="1">  1       -1 0.19626801E-01 0.92929705E+02</pdfrwt>
<totfact> 0.73801993E+04</totfact>
</mgrwt>
</event>
<event>
 7    1  0.3345055E-009  0.8726957E+02  0.7818608E-02  0.1309602E+00
         -1   -1    0    0    0  501 -0.00000000000E+00  0.00000000000E+00  0.13357521375E+03  0.13357521384E+03  0.50400000000E-02 0.  1.
          1   -1    0    0  501    0  0.00000000000E+00 -0.00000000000E+00 -0.14254097924E+02  0.14254098815E+02  0.50400000000E-02 0. -1.
         23    2    1    2    0    0  0.35527136788E-14  0.00000000000E+00  0.11932111582E+03  0.14782931266E+03  0.87269565140E+02 0.  0.
    9000005    2    3    3    0    0 -0.15757328816E+02  0.16486820563E+02 -0.15807700781E+01  0.24795273961E+02  0.96019848501E+01 0.  0.
         22    1    3    3    0    0  0.15757328816E+02 -0.16486820563E+02  0.12090188590E+03  0.12303403870E+03  0.00000000000E+00 0.  1.
         22    1    4    4    0    0  0.83702448917E+00  0.15740172615E+01  0.14260647260E+01  0.22829369105E+01  0.00000000000E+00 0.  1.
         22    1    4    4    0    0 -0.16594353305E+02  0.14912803302E+02 -0.30068348041E+01  0.22512337050E+02  0.00000000000E+00 0.  1.
<mgrwt>
<rscale>  0 0.87269565E+02</rscale>
<asrwt>0</asrwt>
<pdfrwt beam="2">  1        1 0.21929382E-02 0.87269565E+02</pdfrwt>
<pdfrwt beam="1">  1       -1 0.20550033E-01 0.87269565E+02</pdfrwt>
<totfact> 0.85979563E+04</totfact>
</mgrwt>
</event>
<event>
 7    1  0.3345055E-009  0.9290078E+02  0.7818608E-02  0.1295975E+00
          1   -1    0    0  501    0  0.00000000000E+00  0.00000000000E+00  0.67227864544E+01  0.67227883436E+01  0.50400000000E-02 0. -1.
         -1   -1    0    0    0  501 -0.00000000000E+00 -0.00000000000E+00 -0.32094406441E+03  0.32094406445E+03  0.50400000000E-02 0.  1.
         23    2    1    2    0    0  0.00000000000E+00  0.00000000000E+00 -0.31422127796E+03  0.32766685279E+03  0.92900779864E+02 0.  0.
    9000005    2    3    3    0    0  0.27488679414E+02 -0.31564135053E+02 -0.22560133878E+03  0.22965962991E+03  0.97805640967E+01 0.  0.
         22    1    3    3    0    0 -0.27488679414E+02  0.31564135053E+02 -0.88619939175E+02  0.98007222881E+02  0.00000000000E+00 0. -1.
         22    1    4    4    0    0  0.22590531590E+02 -0.19202658992E+02 -0.15122545156E+03  0.15410454708E+03  0.00000000000E+00 0.  1.
         22    1    4    4    0    0  0.48981478235E+01 -0.12361476061E+02 -0.74375887220E+02  0.75555082835E+02  0.00000000000E+00 0.  1.
<mgrwt>
<rscale>  0 0.92900780E+02</rscale>
<asrwt>0</asrwt>
<pdfrwt beam="1">  1        1 0.10342752E-02 0.92900780E+02</pdfrwt>
<pdfrwt beam="2">  1       -1 0.49375998E-01 0.92900780E+02</pdfrwt>
<totfact> 0.56130149E+04</totfact>
</mgrwt>
</event>
<event>
 7    1  0.3345055E-009  0.1020039E+03  0.7818608E-02  0.1276138E+00
         -1   -1    0    0    0  501 -0.00000000000E+00  0.00000000000E+00  0.14764014062E+02  0.14764014922E+02  0.50400000000E-02 0.  1.
          1   -1    0    0  501    0  0.00000000000E+00 -0.00000000000E+00 -0.17618497454E+03  0.17618497461E+03  0.50400000000E-02 0. -1.
         23    2    1    2    0    0 -0.17763568394E-14  0.71054273576E-14 -0.16142096048E+03  0.19094898954E+03  0.10200387308E+03 0.  0.
    9000005    2    3    3    0    0 -0.10415978128E+02 -0.47735278241E+02 -0.63338575901E+02  0.81371147096E+02  0.14911035961E+02 0.  0.
         22    1    3    3    0    0  0.10415978128E+02  0.47735278241E+02 -0.98082384578E+02  0.10957784244E+03  0.00000000000E+00 0. -1.
         22    1    4    4    0    0 -0.22880484229E+01 -0.26742305827E+02 -0.44727483127E+02  0.52162571193E+02  0.00000000000E+00 0.  1.
         22    1    4    4    0    0 -0.81279297050E+01 -0.20992972414E+02 -0.18611092774E+02  0.29208575903E+02  0.00000000000E+00 0.  1.
<mgrwt>
<rscale>  0 0.10200387E+03</rscale>
<asrwt>0</asrwt>
<pdfrwt beam="2">  1        1 0.27105379E-01 0.10200387E+03</pdfrwt>
<pdfrwt beam="1">  1       -1 0.22713870E-02 0.10200387E+03</pdfrwt>
<totfact> 0.85281657E+04</totfact>
</mgrwt>
</event>
<event>
 7    1  0.3345055E-009  0.8869589E+02  0.7818608E-02  0.1306041E+00
         -1   -1    0    0    0  501 -0.00000000000E+00  0.00000000000E+00  0.37414939025E+02  0.37414939364E+02  0.50400000000E-02 0.  1.
          1   -1    0    0  501    0  0.00000000000E+00 -0.00000000000E+00 -0.52565639710E+02  0.52565639952E+02  0.50400000000E-02 0. -1.
         23    2    1    2    0    0  0.00000000000E+00  0.00000000000E+00 -0.15150700686E+02  0.89980579316E+02  0.88695890112E+02 0.  0.
    9000005    2    3    3    0    0  0.30192463636E+01 -0.21643797977E+02 -0.45482404120E+02  0.52596330324E+02  0.14837622436E+02 0.  0.
         22    1    3    3    0    0 -0.30192463636E+01  0.21643797977E+02  0.30331703434E+02  0.37384248992E+02  0.00000000000E+00 0.  1.
         22    1    4    4    0    0 -0.22514963723E+01 -0.48358995004E+01 -0.25083760087E+02  0.25644691068E+02  0.00000000000E+00 0. -1.
         22    1    4    4    0    0  0.52707427360E+01 -0.16807898477E+02 -0.20398644033E+02  0.26951639256E+02  0.00000000000E+00 0. -1.
<mgrwt>
<rscale>  0 0.88695890E+02</rscale>
<asrwt>0</asrwt>
<pdfrwt beam="2">  1        1 0.80870216E-02 0.88695890E+02</pdfrwt>
<pdfrwt beam="1">  1       -1 0.57561445E-02 0.88695890E+02</pdfrwt>
<totfact> 0.10200231E+05</totfact>
</mgrwt>
</event>
<event>
 7    1  0.3345055E-009  0.9307480E+02  0.7818608E-02  0.1295572E+00
         -1   -1    0    0    0  501 -0.00000000000E+00  0.00000000000E+00  0.41368141729E+01  0.41368172431E+01  0.50400000000E-02 0.  1.
          1   -1    0    0  501    0  0.00000000000E+00 -0.00000000000E+00 -0.52352576197E+03  0.52352576199E+03  0.50400000000E-02 0. -1.
         23    2    1    2    0    0  0.71054273576E-14  0.00000000000E+00 -0.51938894779E+03  0.52766257923E+03  0.93074800207E+02 0.  0.
    9000005    2    3    3    0    0 -0.43459257488E+02  0.13454922430E+02 -0.26829111756E+03  0.27247664242E+03  0.13915994553E+02 0.  0.
         22    1    3    3    0    0  0.43459257488E+02 -0.13454922430E+02 -0.25109783024E+03  0.25518593682E+03  0.00000000000E+00 0. -1.
         22    1    4    4    0    0 -0.58917449465E+01  0.57368271155E+01 -0.29477298184E+02  0.30602858561E+02  0.00000000000E+00 0.  1.
         22    1    4    4    0    0 -0.37567512542E+02  0.77180953149E+01 -0.23881381937E+03  0.24187378386E+03  0.00000000000E+00 0.  1.
<mgrwt>
<rscale>  0 0.93074800E+02</rscale>
<asrwt>0</asrwt>
<pdfrwt beam="2">  1        1 0.80542373E-01 0.93074800E+02</pdfrwt>
<pdfrwt beam="1">  1       -1 0.63643360E-03 0.93074800E+02</pdfrwt>
<totfact> 0.13253791E+05</totfact>
</mgrwt>
</event>
<event>
 7    1  0.3345055E-009  0.9060895E+02  0.7818608E-02  0.1301384E+00
         -1   -1    0    0    0  501 -0.00000000000E+00  0.00000000000E+00  0.34171786285E+01  0.34171823452E+01  0.50400000000E-02 0.  1.
          1   -1    0    0  501    0  0.00000000000E+00 -0.00000000000E+00 -0.60063998778E+03  0.60063998780E+03  0.50400000000E-02 0. -1.
         23    2    1    2    0    0  0.00000000000E+00  0.00000000000E+00 -0.59722280915E+03  0.60405717015E+03  0.90608945664E+02 0.  0.
    9000005    2    3    3    0    0  0.12481621407E+02 -0.38657687684E+02 -0.41977747779E+03  0.42202131294E+03  0.15448301473E+02 0.  0.
         22    1    3    3    0    0 -0.12481621407E+02  0.38657687684E+02 -0.17744533136E+03  0.18203585721E+03  0.00000000000E+00 0.  1.
         22    1    4    4    0    0  0.13109205931E+02 -0.39876714449E+02 -0.41091006601E+03  0.41304852739E+03  0.00000000000E+00 0.  1.
         22    1    4    4    0    0 -0.62758452448E+00  0.12190267654E+01 -0.88674117891E+01  0.89727855445E+01  0.00000000000E+00 0.  1.
<mgrwt>
<rscale>  0 0.90608946E+02</rscale>
<asrwt>0</asrwt>
<pdfrwt beam="2">  1        1 0.92406068E-01 0.90608946E+02</pdfrwt>
<pdfrwt beam="1">  1       -1 0.52572055E-03 0.90608946E+02</pdfrwt>
<totfact> 0.14395621E+05</totfact>
</mgrwt>
</event>
<event>
 7    1  0.3345055E-009  0.7319678E+02  0.7818608E-02  0.1349548E+00
         -1   -1    0    0    0  501 -0.00000000000E+00  0.00000000000E+00  0.75380008109E+02  0.75380008277E+02  0.50400000000E-02 0.  1.
          1   -1    0    0  501    0  0.00000000000E+00 -0.00000000000E+00 -0.17769194986E+02  0.17769195700E+02  0.50400000000E-02 0. -1.
         23    2    1    2    0    0  0.35527136788E-14  0.00000000000E+00  0.57610813123E+02  0.93149203978E+02  0.73196778706E+02 0.  0.
    9000005    2    3    3    0    0  0.28533661040E+02 -0.86887870377E+01  0.54467920099E+01  0.33059687993E+02  0.13176137311E+02 0.  0.
         22    1    3    3    0    0 -0.28533661040E+02  0.86887870377E+01  0.52164021113E+02  0.60089515985E+02  0.00000000000E+00 0.  1.
         22    1    4    4    0    0  0.20130488728E+02 -0.66233724080E+01  0.98284364461E+01  0.23360303967E+02  0.00000000000E+00 0. -1.
         22    1    4    4    0    0  0.84031723127E+01 -0.20654146297E+01 -0.43816444363E+01  0.96993840256E+01  0.00000000000E+00 0. -1.
<mgrwt>
<rscale>  0 0.73196779E+02</rscale>
<asrwt>0</asrwt>
<pdfrwt beam="2">  1        1 0.27337224E-02 0.73196779E+02</pdfrwt>
<pdfrwt beam="1">  1       -1 0.11596924E-01 0.73196779E+02</pdfrwt>
<totfact> 0.14956747E+05</totfact>
</mgrwt>
</event>
<event>
 7    1  0.3345055E-009  0.9163475E+02  0.7818608E-02  0.1298941E+00
          1   -1    0    0  501    0  0.00000000000E+00  0.00000000000E+00  0.39241617166E+02  0.39241617489E+02  0.50400000000E-02 0. -1.
         -1   -1    0    0    0  501 -0.00000000000E+00 -0.00000000000E+00 -0.53495040664E+02  0.53495040901E+02  0.50400000000E-02 0.  1.
         23    2    1    2    0    0  0.00000000000E+00  0.22204460493E-15 -0.14253423498E+02  0.92736658390E+02  0.91634751748E+02 0.  0.
    9000005    2    3    3    0    0 -0.30607509501E+02  0.15344151488E+01 -0.39889018925E+02  0.52782211571E+02  0.15989182589E+02 0.  0.
         22    1    3    3    0    0  0.30607509501E+02 -0.15344151488E+01  0.25635595426E+02  0.39954446819E+02  0.00000000000E+00 0. -1.
         22    1    4    4    0    0 -0.11562909264E+02  0.72465859528E+01 -0.10141999780E+02  0.17002177453E+02  0.00000000000E+00 0. -1.
         22    1    4    4    0    0 -0.19044600238E+02 -0.57121708040E+01 -0.29747019145E+02  0.35780034119E+02  0.00000000000E+00 0. -1.
<mgrwt>
<rscale>  0 0.91634752E+02</rscale>
<asrwt>0</asrwt>
<pdfrwt beam="1">  1        1 0.60371719E-02 0.91634752E+02</pdfrwt>
<pdfrwt beam="2">  1       -1 0.82300063E-02 0.91634752E+02</pdfrwt>
<totfact> 0.89126706E+04</totfact>
</mgrwt>
</event>
<event>
 7    1  0.3345055E-009  0.9166258E+02  0.7818608E-02  0.1298875E+00
          1   -1    0    0  501    0  0.00000000000E+00  0.00000000000E+00  0.46617881209E+02  0.46617881482E+02  0.50400000000E-02 0. -1.
         -1   -1    0    0    0  501 -0.00000000000E+00 -0.00000000000E+00 -0.45057975033E+02  0.45057975315E+02  0.50400000000E-02 0.  1.
         23    2    1    2    0    0  0.00000000000E+00  0.17763568394E-14  0.15599061757E+01  0.91675856797E+02  0.91662584582E+02 0.  0.
    9000005    2    3    3    0    0  0.39767281921E+02  0.11817660105E+02 -0.17312447817E+02  0.46098893900E+02  0.10212412431E+02 0.  0.
         22    1    3    3    0    0 -0.39767281921E+02 -0.11817660105E+02  0.18872353993E+02  0.45576962897E+02  0.00000000000E+00 0. -1.
         22    1    4    4    0    0  0.88959939688E+01  0.52213479885E+00  0.73438642808E-01  0.89116062904E+01  0.00000000000E+00 0.  1.
         22    1    4    4    0    0  0.30871287952E+02  0.11295525306E+02 -0.17385886460E+02  0.37187287609E+02  0.00000000000E+00 0.  1.
<mgrwt>
<rscale>  0 0.91662585E+02</rscale>
<asrwt>0</asrwt>
<pdfrwt beam="1">  1        1 0.71719818E-02 0.91662585E+02</pdfrwt>
<pdfrwt beam="2">  1       -1 0.69319962E-02 0.91662585E+02</pdfrwt>
<totfact> 0.91409088E+04</totfact>
</mgrwt>
</event>
<event>
 7    1  0.3345055E-009  0.8994763E+02  0.7818608E-02  0.1302979E+00
          1   -1    0    0  501    0  0.00000000000E+00  0.00000000000E+00  0.17235874523E+03  0.17235874531E+03  0.50400000000E-02 0. -1.
         -1   -1    0    0    0  501 -0.00000000000E+00 -0.00000000000E+00 -0.11735081876E+02  0.11735082958E+02  0.50400000000E-02 0.  1.
         23    2    1    2    0    0  0.00000000000E+00  0.00000000000E+00  0.16062366336E+03  0.18409382827E+03  0.89947631292E+02 0.  0.
    9000005    2    3    3    0    0  0.40236775469E+02  0.17354278692E+02  0.67865666351E+02  0.81506231072E+02  0.10832725666E+02 0.  0.
         22    1    3    3    0    0 -0.40236775469E+02 -0.17354278692E+02  0.92757997009E+02  0.10258759719E+03  0.00000000000E+00 0.  1.
         22    1    4    4    0    0  0.31723004917E+02  0.91039759997E+01  0.53735440019E+02  0.63061310912E+02  0.00000000000E+00 0.  1.
         22    1    4    4    0    0  0.85137705527E+01  0.82503026921E+01  0.14130226332E+02  0.18444920160E+02  0.00000000000E+00 0.  1.
<mgrwt>
<rscale>  0 0.89947631E+02</rscale>
<asrwt>0</asrwt>
<pdfrwt beam="1">  1        1 0.26516728E-01 0.89947631E+02</pdfrwt>
<pdfrwt beam="2">  1       -1 0.18053975E-02 0.89947631E+02</pdfrwt>
<totfact> 0.11934635E+05</totfact>
</mgrwt>
</event>
<event>
 7    1  0.3345055E-009  0.8947698E+02  0.7818608E-02  0.1304123E+00
          1   -1    0    0  501    0  0.00000000000E+00  0.00000000000E+00  0.41142956299E+02  0.41142956608E+02  0.50400000000E-02 0. -1.
         -1   -1    0    0    0  501 -0.00000000000E+00 -0.00000000000E+00 -0.48648242460E+02  0.48648242721E+02  0.50400000000E-02 0.  1.
         23    2    1    2    0    0  0.00000000000E+00  0.00000000000E+00 -0.75052861602E+01  0.89791199329E+02  0.89476981155E+02 0.  0.
    9000005    2    3    3    0    0  0.71310548931E+01  0.15228314878E+02 -0.44952773045E+02  0.48741622085E+02  0.84994353419E+01 0.  0.
         22    1    3    3    0    0 -0.71310548931E+01 -0.15228314878E+02  0.37447486885E+02  0.41049577244E+02  0.00000000000E+00 0. -1.
         22    1    4    4    0    0  0.32350031368E+01  0.68686319562E+00 -0.13092363863E+02  0.13503592777E+02  0.00000000000E+00 0. -1.
         22    1    4    4    0    0  0.38960517563E+01  0.14541451683E+02 -0.31860409181E+02  0.35238029308E+02  0.00000000000E+00 0. -1.
<mgrwt>
<rscale>  0 0.89476981E+02</rscale>
<asrwt>0</asrwt>
<pdfrwt beam="1">  1        1 0.63296856E-02 0.89476981E+02</pdfrwt>
<pdfrwt beam="2">  1       -1 0.74843451E-02 0.89476981E+02</pdfrwt>
<totfact> 0.96003930E+04</totfact>
</mgrwt>
</event>
<event>
 7    1  0.3345055E-009  0.8981800E+02  0.7818608E-02  0.1303293E+00
          1   -1    0    0  501    0  0.00000000000E+00  0.00000000000E+00  0.77237886129E+02  0.77237886294E+02  0.50400000000E-02 0. -1.
         -1   -1    0    0    0  501 -0.00000000000E+00 -0.00000000000E+00 -0.26111771805E+02  0.26111772291E+02  0.50400000000E-02 0.  1.
         23    2    1    2    0    0  0.35527136788E-14  0.00000000000E+00  0.51126114324E+02  0.10334965859E+03  0.89817995768E+02 0.  0.
    9000005    2    3    3    0    0 -0.27635270671E+02  0.23091197544E+02  0.56246771642E+02  0.66974767239E+02  0.50008536792E+01 0.  0.
         22    1    3    3    0    0  0.27635270671E+02 -0.23091197544E+02 -0.51206573176E+01  0.36374891346E+02  0.00000000000E+00 0.  1.
         22    1    4    4    0    0 -0.57065468254E+01  0.42351548167E+01  0.77971546115E+01  0.10549731420E+02  0.00000000000E+00 0. -1.
         22    1    4    4    0    0 -0.21928723846E+02  0.18856042727E+02  0.48449617031E+02  0.56425035820E+02  0.00000000000E+00 0. -1.
<mgrwt>
<rscale>  0 0.89817996E+02</rscale>
<asrwt>0</asrwt>
<pdfrwt beam="1">  1        1 0.11882752E-01 0.89817996E+02</pdfrwt>
<pdfrwt beam="2">  1       -1 0.40171957E-02 0.89817996E+02</pdfrwt>
<totfact> 0.10440162E+05</totfact>
</mgrwt>
</event>
<event>
 7    1  0.3345055E-009  0.9003971E+02  0.7818608E-02  0.1302756E+00
         -1   -1    0    0    0  501 -0.00000000000E+00  0.00000000000E+00  0.13780260143E+03  0.13780260152E+03  0.50400000000E-02 0.  1.
          1   -1    0    0  501    0  0.00000000000E+00 -0.00000000000E+00 -0.14707902640E+02  0.14707903504E+02  0.50400000000E-02 0. -1.
         23    2    1    2    0    0 -0.35527136788E-14  0.71054273576E-14  0.12309469879E+03  0.15251050502E+03  0.90039709422E+02 0.  0.
    9000005    2    3    3    0    0  0.16593204695E+02 -0.39869010770E+02  0.76799756586E+02  0.89200994400E+02  0.13919135339E+02 0.  0.
         22    1    3    3    0    0 -0.16593204695E+02  0.39869010770E+02  0.46294942200E+02  0.63309510621E+02  0.00000000000E+00 0.  1.
         22    1    4    4    0    0  0.83066518316E+01 -0.31223937367E+02  0.63872022990E+02  0.71579117417E+02  0.00000000000E+00 0.  1.
         22    1    4    4    0    0  0.82865528634E+01 -0.86450734027E+01  0.12927733595E+02  0.17621876983E+02  0.00000000000E+00 0.  1.
<mgrwt>
<rscale>  0 0.90039709E+02</rscale>
<asrwt>0</asrwt>
<pdfrwt beam="2">  1        1 0.22627544E-02 0.90039709E+02</pdfrwt>
<pdfrwt beam="1">  1       -1 0.21200400E-01 0.90039709E+02</pdfrwt>
<totfact> 0.78767204E+04</totfact>
</mgrwt>
</event>
<event>
 7    1  0.3345055E-009  0.8947055E+02  0.7818608E-02  0.1304139E+00
          1   -1    0    0  501    0  0.00000000000E+00  0.00000000000E+00  0.24067339262E+03  0.24067339267E+03  0.50400000000E-02 0.  1.
         -1   -1    0    0    0  501 -0.00000000000E+00 -0.00000000000E+00 -0.83151876589E+01  0.83151891863E+01  0.50400000000E-02 0. -1.
         23    2    1    2    0    0  0.00000000000E+00  0.00000000000E+00  0.23235820496E+03  0.24898858186E+03  0.89470545340E+02 0.  0.
    9000005    2    3    3    0    0  0.38655440309E+01  0.40677394294E+02  0.68133022726E+02  0.79756482902E+02  0.70281535195E+01 0.  0.
         22    1    3    3    0    0 -0.38655440309E+01 -0.40677394294E+02  0.16422518223E+03  0.16923209896E+03  0.00000000000E+00 0.  1.
         22    1    4    4    0    0  0.29022015446E+01  0.30859254214E+02  0.45361189297E+02  0.54939547130E+02  0.00000000000E+00 0.  1.
         22    1    4    4    0    0  0.96334248628E+00  0.98181400805E+01  0.22771833428E+02  0.24816935771E+02  0.00000000000E+00 0.  1.
<mgrwt>
<rscale>  0 0.89470545E+02</rscale>
<asrwt>0</asrwt>
<pdfrwt beam="1">  1        1 0.37026679E-01 0.89470545E+02</pdfrwt>
<pdfrwt beam="2">  1       -1 0.12792596E-02 0.89470545E+02</pdfrwt>
<totfact> 0.12910475E+05</totfact>
</mgrwt>
</event>
<event>
 7    1  0.3345055E-009  0.9032987E+02  0.7818608E-02  0.1302055E+00
         -1   -1    0    0    0  501 -0.00000000000E+00  0.00000000000E+00  0.43111681108E+01  0.43111710568E+01  0.50400000000E-02 0.  1.
          1   -1    0    0  501    0  0.00000000000E+00 -0.00000000000E+00 -0.47315964249E+03  0.47315964252E+03  0.50400000000E-02 0. -1.
         23    2    1    2    0    0  0.00000000000E+00  0.00000000000E+00 -0.46884847438E+03  0.47747081358E+03  0.90329872617E+02 0.  0.
    9000005    2    3    3    0    0  0.16046327864E+02 -0.40677185287E+02 -0.27135074250E+03  0.27519013694E+03  0.13648002586E+02 0.  0.
         22    1    3    3    0    0 -0.16046327864E+02  0.40677185287E+02 -0.19749773189E+03  0.20228067664E+03  0.00000000000E+00 0.  1.
         22    1    4    4    0    0  0.56991345063E+01 -0.25579638932E+01 -0.32375450517E+02  0.32972611507E+02  0.00000000000E+00 0.  1.
         22    1    4    4    0    0  0.10347193358E+02 -0.38119221394E+02 -0.23897529198E+03  0.24221752543E+03  0.00000000000E+00 0.  1.
<mgrwt>
<rscale>  0 0.90329873E+02</rscale>
<asrwt>0</asrwt>
<pdfrwt beam="2">  1        1 0.72793750E-01 0.90329873E+02</pdfrwt>
<pdfrwt beam="1">  1       -1 0.66325724E-03 0.90329873E+02</pdfrwt>
<totfact> 0.14176990E+05</totfact>
</mgrwt>
</event>
<event>
 7    1  0.3345055E-009  0.8910331E+02  0.7818608E-02  0.1305038E+00
          1   -1    0    0  501    0  0.00000000000E+00  0.00000000000E+00  0.43045067784E+03  0.43045067787E+03  0.50400000000E-02 0.  1.
         -1   -1    0    0    0  501 -0.00000000000E+00 -0.00000000000E+00 -0.46110958511E+01  0.46110986055E+01  0.50400000000E-02 0. -1.
         23    2    1    2    0    0 -0.88817841970E-15  0.00000000000E+00  0.42583958199E+03  0.43506177647E+03  0.89103309484E+02 0.  0.
    9000005    2    3    3    0    0  0.66339409472E+01  0.24569840929E+02  0.39038446424E+03  0.39141831614E+03  0.12672096535E+02 0.  0.
         22    1    3    3    0    0 -0.66339409472E+01 -0.24569840929E+02  0.35455117747E+02  0.43643460338E+02  0.00000000000E+00 0. -1.
         22    1    4    4    0    0  0.72496243485E+01  0.10259821231E+02  0.24725985384E+03  0.24757878808E+03  0.00000000000E+00 0.  1.
         22    1    4    4    0    0 -0.61568340128E+00  0.14310019699E+02  0.14312461040E+03  0.14383952806E+03  0.00000000000E+00 0.  1.
<mgrwt>
<rscale>  0 0.89103309E+02</rscale>
<asrwt>0</asrwt>
<pdfrwt beam="1">  1        1 0.66223212E-01 0.89103309E+02</pdfrwt>
<pdfrwt beam="2">  1       -1 0.70939925E-03 0.89103309E+02</pdfrwt>
<totfact> 0.14503810E+05</totfact>
</mgrwt>
</event>
<event>
 7    1  0.3345055E-009  0.1037925E+03  0.7818608E-02  0.1272517E+00
         -1   -1    0    0    0  501 -0.00000000000E+00  0.00000000000E+00  0.37913050783E+01  0.37913084282E+01  0.50400000000E-02 0.  1.
          1   -1    0    0  501    0  0.00000000000E+00 -0.00000000000E+00 -0.71036805402E+03  0.71036805404E+03  0.50400000000E-02 0. -1.
         23    2    1    2    0    0  0.00000000000E+00 -0.71054273576E-14 -0.70657674895E+03  0.71415936247E+03  0.10379254719E+03 0.  0.
    9000005    2    3    3    0    0 -0.52126834196E+00  0.36191194360E+02 -0.60910154126E+03  0.61018104558E+03  0.24792237497E+01 0.  0.
         22    1    3    3    0    0  0.52126834196E+00 -0.36191194360E+02 -0.97475207690E+02  0.10397831689E+03  0.00000000000E+00 0. -1.
         22    1    4    4    0    0  0.48405595214E+00  0.28542582677E+02 -0.48735046577E+03  0.48818581485E+03  0.00000000000E+00 0.  1.
         22    1    4    4    0    0 -0.10053242941E+01  0.76486116835E+01 -0.12175107549E+03  0.12199523073E+03  0.00000000000E+00 0.  1.
<mgrwt>
<rscale>  0 0.10379255E+03</rscale>
<asrwt>0</asrwt>
<pdfrwt beam="2">  1        1 0.10928729E+00 0.10379255E+03</pdfrwt>
<pdfrwt beam="1">  1       -1 0.58327853E-03 0.10379255E+03</pdfrwt>
<totfact> 0.10068205E+05</totfact>
</mgrwt>
</event>
<event>
 7    1  0.3345055E-009  0.9237199E+02  0.7818608E-02  0.1297207E+00
         -1   -1    0    0    0  501 -0.00000000000E+00  0.00000000000E+00  0.53693090231E+02  0.53693090468E+02  0.50400000000E-02 0.  1.
          1   -1    0    0  501    0  0.00000000000E+00 -0.00000000000E+00 -0.39728504854E+02  0.39728505174E+02  0.50400000000E-02 0. -1.
         23    2    1    2    0    0  0.00000000000E+00  0.00000000000E+00  0.13964585377E+02  0.93421595641E+02  0.92371991899E+02 0.  0.
    9000005    2    3    3    0    0  0.18400253671E+02 -0.36997398180E+02 -0.11513136745E+02  0.44877892324E+02  0.13194547910E+02 0.  0.
         22    1    3    3    0    0 -0.18400253671E+02  0.36997398180E+02  0.25477722122E+02  0.48543703317E+02  0.00000000000E+00 0.  1.
         22    1    4    4    0    0  0.69131131123E+01 -0.16267730310E+02  0.16768176171E+01  0.17755052792E+02  0.00000000000E+00 0. -1.
         22    1    4    4    0    0  0.11487140559E+02 -0.20729667870E+02 -0.13189954362E+02  0.27122839532E+02  0.00000000000E+00 0. -1.
<mgrwt>
<rscale>  0 0.92371992E+02</rscale>
<asrwt>0</asrwt>
<pdfrwt beam="2">  1        1 0.61120777E-02 0.92371992E+02</pdfrwt>
<pdfrwt beam="1">  1       -1 0.82604754E-02 0.92371992E+02</pdfrwt>
<totfact> 0.87290826E+04</totfact>
</mgrwt>
</event>
<event>
 7    1  0.3345055E-009  0.9208622E+02  0.7818608E-02  0.1297877E+00
          1   -1    0    0  501    0  0.00000000000E+00  0.00000000000E+00  0.10028521420E+03  0.10028521433E+03  0.50400000000E-02 0. -1.
         -1   -1    0    0    0  501 -0.00000000000E+00 -0.00000000000E+00 -0.21139385554E+02  0.21139386155E+02  0.50400000000E-02 0.  1.
         23    2    1    2    0    0  0.00000000000E+00  0.00000000000E+00  0.79145828649E+02  0.12142460049E+03  0.92086217266E+02 0.  0.
    9000005    2    3    3    0    0 -0.15919216077E+02 -0.14131353366E+01  0.96349837425E+02  0.97942771128E+02  0.73536965169E+01 0.  0.
         22    1    3    3    0    0  0.15919216077E+02  0.14131353366E+01 -0.17204008776E+02  0.23481829357E+02  0.00000000000E+00 0.  1.
         22    1    4    4    0    0 -0.12067474160E+02  0.56689613108E+00  0.52137437616E+02  0.53518760309E+02  0.00000000000E+00 0.  1.
         22    1    4    4    0    0 -0.38517419166E+01 -0.19800314677E+01  0.44212399809E+02  0.44424010820E+02  0.00000000000E+00 0.  1.
<mgrwt>
<rscale>  0 0.92086217E+02</rscale>
<asrwt>0</asrwt>
<pdfrwt beam="1">  1        1 0.15428494E-01 0.92086217E+02</pdfrwt>
<pdfrwt beam="2">  1       -1 0.32522133E-02 0.92086217E+02</pdfrwt>
<totfact> 0.10170778E+05</totfact>
</mgrwt>
</event>
<event>
 7    1  0.4327318E-009  0.9466141E+02  0.7818608E-02  0.1291940E+00
          1   -1    0    0  501    0  0.00000000000E+00  0.00000000000E+00  0.54092045419E+03  0.54092045421E+03  0.50400000000E-02 0. -1.
         -1   -1    0    0    0  501 -0.00000000000E+00 -0.00000000000E+00 -0.41414497936E+01  0.41414528604E+01  0.50400000000E-02 0.  1.
         23    2    1    2    0    0  0.00000000000E+00  0.00000000000E+00  0.53677900439E+03  0.54506190707E+03  0.94661412319E+02 0.  0.
    9000005    2    3    3    0    0  0.19469543291E+02 -0.20623363759E+02  0.48529282572E+03  0.48628084853E+03  0.12471996798E+02 0.  0.
         22    1    3    3    0    0 -0.19469543291E+02  0.20623363759E+02  0.51486178673E+02  0.58781058540E+02  0.00000000000E+00 0.  1.
         22    1    4    4    0    0  0.20508177339E+02 -0.21226715453E+02  0.47540222171E+03  0.47631757389E+03  0.00000000000E+00 0.  1.
         22    1    4    4    0    0 -0.10386340481E+01  0.60335169446E+00  0.98906040103E+01  0.99632746445E+01  0.00000000000E+00 0.  1.
<mgrwt>
<rscale>  0 0.94661412E+02</rscale>
<asrwt>0</asrwt>
<pdfrwt beam="1">  1        1 0.83218521E-01 0.94661412E+02</pdfrwt>
<pdfrwt beam="2">  1       -1 0.63714644E-03 0.94661412E+02</pdfrwt>
<totfact> 0.12713650E+05</totfact>
</mgrwt>
</event>
<event>
 7    1  0.3345055E-009  0.9249367E+02  0.7818608E-02  0.1296923E+00
          1   -1    0    0  501    0  0.00000000000E+00  0.00000000000E+00  0.64628538562E+01  0.64628558214E+01  0.50400000000E-02 0. -1.
         -1   -1    0    0    0  501 -0.00000000000E+00 -0.00000000000E+00 -0.33093262972E+03  0.33093262976E+03  0.50400000000E-02 0.  1.
         23    2    1    2    0    0  0.71054273576E-14  0.35527136788E-14 -0.32446977586E+03  0.33739548558E+03  0.92493665948E+02 0.  0.
    9000005    2    3    3    0    0 -0.33340482759E+02 -0.27915518067E+02 -0.11892959986E+03  0.12730591447E+03  0.13102755256E+02 0.  0.
         22    1    3    3    0    0  0.33340482759E+02  0.27915518067E+02 -0.20554017600E+03  0.21008957111E+03  0.00000000000E+00 0.  1.
         22    1    4    4    0    0 -0.33103023325E+02 -0.22908337072E+02 -0.10224983121E+03  0.10988917164E+03  0.00000000000E+00 0. -1.
         22    1    4    4    0    0 -0.23745943387E+00 -0.50071809954E+01 -0.16679768647E+02  0.17416742824E+02  0.00000000000E+00 0. -1.
<mgrwt>
<rscale>  0 0.92493666E+02</rscale>
<asrwt>0</asrwt>
<pdfrwt beam="1">  1        1 0.99428561E-03 0.92493666E+02</pdfrwt>
<pdfrwt beam="2">  1       -1 0.50912700E-01 0.92493666E+02</pdfrwt>
<totfact> 0.56050401E+04</totfact>
</mgrwt>
</event>
<event>
 7    1  0.3345055E-009  0.9261726E+02  0.7818608E-02  0.1296635E+00
          1   -1    0    0  501    0  0.00000000000E+00  0.00000000000E+00  0.20704849651E+03  0.20704849657E+03  0.50400000000E-02 0. -1.
         -1   -1    0    0    0  501 -0.00000000000E+00 -0.00000000000E+00 -0.10357423746E+02  0.10357424972E+02  0.50400000000E-02 0.  1.
         23    2    1    2    0    0  0.00000000000E+00 -0.17763568394E-14  0.19669107277E+03  0.21740592155E+03  0.92617258743E+02 0.  0.
    9000005    2    3    3    0    0  0.47589845229E+01  0.14451554033E+02  0.20069818811E+03  0.20167212604E+03  0.12664452666E+02 0.  0.
         22    1    3    3    0    0 -0.47589845229E+01 -0.14451554033E+02 -0.40071153469E+01  0.15733795507E+02  0.00000000000E+00 0.  1.
         22    1    4    4    0    0  0.86360562503E+01  0.10818610943E+02  0.16514059937E+03  0.16571976759E+03  0.00000000000E+00 0.  1.
         22    1    4    4    0    0 -0.38770717274E+01  0.36329430893E+01  0.35557588742E+02  0.35952358445E+02  0.00000000000E+00 0.  1.
<mgrwt>
<rscale>  0 0.92617259E+02</rscale>
<asrwt>0</asrwt>
<pdfrwt beam="1">  1        1 0.31853612E-01 0.92617259E+02</pdfrwt>
<pdfrwt beam="2">  1       -1 0.15934501E-02 0.92617259E+02</pdfrwt>
<totfact> 0.11429341E+05</totfact>
</mgrwt>
</event>
<event>
 7    1  0.3345055E-009  0.9088546E+02  0.7818608E-02  0.1300721E+00
          1   -1    0    0  501    0  0.00000000000E+00  0.00000000000E+00  0.90576795469E+01  0.90576809491E+01  0.50400000000E-02 0. -1.
         -1   -1    0    0    0  501 -0.00000000000E+00 -0.00000000000E+00 -0.22798789720E+03  0.22798789726E+03  0.50400000000E-02 0.  1.
         23    2    1    2    0    0  0.35527136788E-14  0.71054273576E-14 -0.21893021766E+03  0.23704557821E+03  0.90885455079E+02 0.  0.
    9000005    2    3    3    0    0  0.28977190226E+02 -0.33677092636E+02 -0.89940674333E+02  0.10061931091E+03  0.78164382507E+01 0.  0.
         22    1    3    3    0    0 -0.28977190226E+02  0.33677092636E+02 -0.12898954332E+03  0.13642626730E+03  0.00000000000E+00 0. -1.
         22    1    4    4    0    0  0.14279765532E+02 -0.12254567660E+02 -0.43724031180E+02  0.47601229341E+02  0.00000000000E+00 0. -1.
         22    1    4    4    0    0  0.14697424694E+02 -0.21422524977E+02 -0.46216643153E+02  0.53018081570E+02  0.00000000000E+00 0. -1.
<mgrwt>
<rscale>  0 0.90885455E+02</rscale>
<asrwt>0</asrwt>
<pdfrwt beam="1">  1        1 0.13934894E-02 0.90885455E+02</pdfrwt>
<pdfrwt beam="2">  1       -1 0.35075057E-01 0.90885455E+02</pdfrwt>
<totfact> 0.67306140E+04</totfact>
</mgrwt>
</event>
<event>
 7    1  0.3345055E-009  0.9213460E+02  0.7818608E-02  0.1297763E+00
          1   -1    0    0  501    0  0.00000000000E+00  0.00000000000E+00  0.24127803394E+03  0.24127803400E+03  0.50400000000E-02 0. -1.
         -1   -1    0    0    0  501 -0.00000000000E+00 -0.00000000000E+00 -0.87956448578E+01  0.87956463017E+01  0.50400000000E-02 0.  1.
         23    2    1    2    0    0 -0.35527136788E-14  0.71054273576E-14  0.23248238909E+03  0.25007368030E+03  0.92134599053E+02 0.  0.
    9000005    2    3    3    0    0  0.11744626058E+02 -0.35431512736E+02  0.43143654219E+02  0.57090559645E+02  0.21514565289E+01 0.  0.
         22    1    3    3    0    0 -0.11744626058E+02  0.35431512736E+02  0.18933873487E+03  0.19298312065E+03  0.00000000000E+00 0. -1.
         22    1    4    4    0    0  0.11801781245E+02 -0.34942648856E+02  0.42745450343E+02  0.56457455439E+02  0.00000000000E+00 0.  1.
         22    1    4    4    0    0 -0.57155186851E-01 -0.48886388004E+00  0.39820387564E+00  0.63310420561E+00  0.00000000000E+00 0.  1.
<mgrwt>
<rscale>  0 0.92134599E+02</rscale>
<asrwt>0</asrwt>
<pdfrwt beam="1">  1        1 0.37119692E-01 0.92134599E+02</pdfrwt>
<pdfrwt beam="2">  1       -1 0.13531765E-02 0.92134599E+02</pdfrwt>
<totfact> 0.11942976E+05</totfact>
</mgrwt>
</event>
<event>
 7    1  0.3345055E-009  0.9645997E+02  0.7818608E-02  0.1287921E+00
         -1   -1    0    0    0  501 -0.00000000000E+00  0.00000000000E+00  0.66380648288E+01  0.66380667422E+01  0.50400000000E-02 0.  1.
          1   -1    0    0  501    0  0.00000000000E+00 -0.00000000000E+00 -0.35042311094E+03  0.35042311098E+03  0.50400000000E-02 0. -1.
         23    2    1    2    0    0  0.35527136788E-14  0.44408920985E-15 -0.34378504611E+03  0.35706117772E+03  0.96459974622E+02 0.  0.
    9000005    2    3    3    0    0 -0.20876350421E+02 -0.32216846535E+01 -0.33219802253E+03  0.33296843245E+03  0.81393845484E+01 0.  0.
         22    1    3    3    0    0  0.20876350421E+02  0.32216846535E+01 -0.11587023586E+02  0.24092745267E+02  0.00000000000E+00 0.  1.
         22    1    4    4    0    0 -0.12287696595E+02  0.21768787352E+00 -0.13659703157E+03  0.13714876561E+03  0.00000000000E+00 0.  1.
         22    1    4    4    0    0 -0.85886538263E+01 -0.34393725270E+01 -0.19560099096E+03  0.19581966684E+03  0.00000000000E+00 0.  1.
<mgrwt>
<rscale>  0 0.96459975E+02</rscale>
<asrwt>0</asrwt>
<pdfrwt beam="2">  1        1 0.53911233E-01 0.96459975E+02</pdfrwt>
<pdfrwt beam="1">  1       -1 0.10212412E-02 0.96459975E+02</pdfrwt>
<totfact> 0.11346124E+05</totfact>
</mgrwt>
</event>
<event>
 7    1  0.3345055E-009  0.1056648E+03  0.7818608E-02  0.1268815E+00
          1   -1    0    0  501    0  0.00000000000E+00  0.00000000000E+00  0.28647327950E+03  0.28647327955E+03  0.50400000000E-02 0. -1.
         -1   -1    0    0    0  501 -0.00000000000E+00 -0.00000000000E+00 -0.97435260856E+01  0.97435273892E+01  0.50400000000E-02 0.  1.
         23    2    1    2    0    0 -0.35527136788E-14  0.00000000000E+00  0.27672975342E+03  0.29621680694E+03  0.10566475422E+03 0.  0.
    9000005    2    3    3    0    0 -0.24730906941E+02  0.68370826683E+01  0.26768596826E+03  0.26901104454E+03  0.72664314029E+01 0.  0.
         22    1    3    3    0    0  0.24730906941E+02 -0.68370826683E+01  0.90437851606E+01  0.27205762397E+02  0.00000000000E+00 0.  1.
         22    1    4    4    0    0 -0.21526001123E+02  0.59727845075E+01  0.25137915558E+03  0.25236981345E+03  0.00000000000E+00 0. -1.
         22    1    4    4    0    0 -0.32049058186E+01  0.86429816073E+00  0.16306812679E+02  0.16641231095E+02  0.00000000000E+00 0. -1.
<mgrwt>
<rscale>  0 0.10566475E+03</rscale>
<asrwt>0</asrwt>
<pdfrwt beam="1">  1        1 0.44072808E-01 0.10566475E+03</pdfrwt>
<pdfrwt beam="2">  1       -1 0.14990042E-02 0.10566475E+03</pdfrwt>
<totfact> 0.85436988E+04</totfact>
</mgrwt>
</event>
<event>
 7    1  0.3345055E-009  0.9094444E+02  0.7818608E-02  0.1300581E+00
          1   -1    0    0  501    0  0.00000000000E+00  0.00000000000E+00  0.27550249489E+02  0.27550249950E+02  0.50400000000E-02 0. -1.
         -1   -1    0    0    0  501 -0.00000000000E+00 -0.00000000000E+00 -0.75052785783E+02  0.75052785952E+02  0.50400000000E-02 0.  1.
         23    2    1    2    0    0  0.00000000000E+00  0.00000000000E+00 -0.47502536295E+02  0.10260303590E+03  0.90944444701E+02 0.  0.
    9000005    2    3    3    0    0  0.38385603328E+02 -0.11151299007E+02 -0.26400526411E+01  0.42516028555E+02  0.14242078282E+02 0.  0.
         22    1    3    3    0    0 -0.38385603328E+02  0.11151299007E+02 -0.44862483653E+02  0.60087007347E+02  0.00000000000E+00 0.  1.
         22    1    4    4    0    0  0.27114204510E+02 -0.20444298976E+01 -0.55101615220E+01  0.27743858056E+02  0.00000000000E+00 0.  1.
         22    1    4    4    0    0  0.11271398817E+02 -0.91068691090E+01  0.28701088809E+01  0.14772170499E+02  0.00000000000E+00 0.  1.
<mgrwt>
<rscale>  0 0.90944445E+02</rscale>
<asrwt>0</asrwt>
<pdfrwt beam="1">  1        1 0.42385000E-02 0.90944445E+02</pdfrwt>
<pdfrwt beam="2">  1       -1 0.11546582E-01 0.90944445E+02</pdfrwt>
<totfact> 0.86118777E+04</totfact>
</mgrwt>
</event>
<event>
 7    1  0.3521127E-009  0.8963265E+02  0.7818608E-02  0.1303744E+00
         -1   -1    0    0    0  501 -0.00000000000E+00  0.00000000000E+00  0.49884309828E+01  0.49884335288E+01  0.50400000000E-02 0.  1.
          1   -1    0    0  501    0  0.00000000000E+00 -0.00000000000E+00 -0.40263214507E+03  0.40263214510E+03  0.50400000000E-02 0. -1.
         23    2    1    2    0    0  0.00000000000E+00 -0.35527136788E-14 -0.39764371409E+03  0.40762057863E+03  0.89632654596E+02 0.  0.
    9000005    2    3    3    0    0  0.34647049688E+02 -0.25933906834E+02 -0.17277360336E+03  0.17862373963E+03  0.13518016278E+02 0.  0.
         22    1    3    3    0    0 -0.34647049688E+02  0.25933906834E+02 -0.22487011072E+03  0.22899683900E+03  0.00000000000E+00 0. -1.
         22    1    4    4    0    0  0.21910888175E+02 -0.13721955290E+02 -0.76607358786E+02  0.80852127354E+02  0.00000000000E+00 0. -1.
         22    1    4    4    0    0  0.12736161513E+02 -0.12211951544E+02 -0.96166244579E+02  0.97771612276E+02  0.00000000000E+00 0. -1.
<mgrwt>
<rscale>  0 0.89632655E+02</rscale>
<asrwt>0</asrwt>
<pdfrwt beam="2">  1        1 0.61943381E-01 0.89632655E+02</pdfrwt>
<pdfrwt beam="1">  1       -1 0.76745144E-03 0.89632655E+02</pdfrwt>
<totfact> 0.14129329E+05</totfact>
</mgrwt>
</event>
<event>
 7    1  0.3345055E-009  0.9148270E+02  0.7818608E-02  0.1299300E+00
          1   -1    0    0  501    0  0.00000000000E+00  0.00000000000E+00  0.10977650716E+03  0.10977650728E+03  0.50400000000E-02 0. -1.
         -1   -1    0    0    0  501 -0.00000000000E+00 -0.00000000000E+00 -0.19059369216E+02  0.19059369883E+02  0.50400000000E-02 0.  1.
         23    2    1    2    0    0  0.00000000000E+00 -0.35527136788E-14  0.90717137948E+02  0.12883587716E+03  0.91482698511E+02 0.  0.
    9000005    2    3    3    0    0  0.27487040743E+02  0.29908520943E+02  0.21374280583E+02  0.48471152929E+02  0.15573559707E+02 0.  0.
         22    1    3    3    0    0 -0.27487040743E+02 -0.29908520943E+02  0.69342857365E+02  0.80364724235E+02  0.00000000000E+00 0. -1.
         22    1    4    4    0    0  0.50988087893E+01  0.15825468746E+02  0.11601710447E+02  0.20274195357E+02  0.00000000000E+00 0. -1.
         22    1    4    4    0    0  0.22388231953E+02  0.14083052198E+02  0.97725701366E+01  0.28196957571E+02  0.00000000000E+00 0. -1.
<mgrwt>
<rscale>  0 0.91482699E+02</rscale>
<asrwt>0</asrwt>
<pdfrwt beam="1">  1        1 0.16888694E-01 0.91482699E+02</pdfrwt>
<pdfrwt beam="2">  1       -1 0.29322107E-02 0.91482699E+02</pdfrwt>
<totfact> 0.10514027E+05</totfact>
</mgrwt>
</event>
<event>
 7    1  0.3345055E-009  0.9124229E+02  0.7818608E-02  0.1299871E+00
          1   -1    0    0  501    0  0.00000000000E+00  0.00000000000E+00  0.37862146882E+03  0.37862146886E+03  0.50400000000E-02 0. -1.
         -1   -1    0    0    0  501 -0.00000000000E+00 -0.00000000000E+00 -0.54970160913E+01  0.54970184018E+01  0.50400000000E-02 0.  1.
         23    2    1    2    0    0  0.00000000000E+00  0.00000000000E+00  0.37312445273E+03  0.38411848726E+03  0.91242287495E+02 0.  0.
    9000005    2    3    3    0    0  0.33657749206E+02 -0.17225982953E+02  0.28983577865E+03  0.29264946627E+03  0.14469034236E+02 0.  0.
         22    1    3    3    0    0 -0.33657749206E+02  0.17225982953E+02  0.83288674077E+02  0.91469020985E+02  0.00000000000E+00 0.  1.
         22    1    4    4    0    0  0.13617696196E+02 -0.15091374644E+02  0.14737779771E+03  0.14877300325E+03  0.00000000000E+00 0. -1.
         22    1    4    4    0    0  0.20040053010E+02 -0.21346083091E+01  0.14245798094E+03  0.14387646302E+03  0.00000000000E+00 0. -1.
<mgrwt>
<rscale>  0 0.91242287E+02</rscale>
<asrwt>0</asrwt>
<pdfrwt beam="1">  1        1 0.58249468E-01 0.91242287E+02</pdfrwt>
<pdfrwt beam="2">  1       -1 0.84569480E-03 0.91242287E+02</pdfrwt>
<totfact> 0.13340026E+05</totfact>
</mgrwt>
</event>
<event>
 7    1  0.3345055E-009  0.9159846E+02  0.7818608E-02  0.1299026E+00
          1   -1    0    0  501    0  0.00000000000E+00  0.00000000000E+00  0.29943401823E+03  0.29943401827E+03  0.50400000000E-02 0. -1.
         -1   -1    0    0    0  501 -0.00000000000E+00 -0.00000000000E+00 -0.70051135320E+01  0.70051153451E+01  0.50400000000E-02 0.  1.
         23    2    1    2    0    0  0.00000000000E+00  0.00000000000E+00  0.29242890470E+03  0.30643913362E+03  0.91598462374E+02 0.  0.
    9000005    2    3    3    0    0 -0.37860115585E+02  0.22460788365E+02  0.11808430419E+03  0.12662279650E+03  0.12310740543E+02 0.  0.
         22    1    3    3    0    0  0.37860115585E+02 -0.22460788365E+02  0.17434460051E+03  0.17981633711E+03  0.00000000000E+00 0. -1.
         22    1    4    4    0    0 -0.29562930859E+00 -0.68830578594E+00  0.23690241560E+00  0.78567442212E+00  0.00000000000E+00 0.  1.
         22    1    4    4    0    0 -0.37564486276E+02  0.23149094151E+02  0.11784740177E+03  0.12583712208E+03  0.00000000000E+00 0.  1.
<mgrwt>
<rscale>  0 0.91598462E+02</rscale>
<asrwt>0</asrwt>
<pdfrwt beam="1">  1        1 0.46066788E-01 0.91598462E+02</pdfrwt>
<pdfrwt beam="2">  1       -1 0.10777095E-02 0.91598462E+02</pdfrwt>
<totfact> 0.12650957E+05</totfact>
</mgrwt>
</event>
<event>
 7    1  0.3345055E-009  0.9159585E+02  0.7818608E-02  0.1299032E+00
          1   -1    0    0  501    0  0.00000000000E+00  0.00000000000E+00  0.11905623475E+04  0.11905623475E+04  0.50400000000E-02 0. -1.
         -1   -1    0    0    0  501 -0.00000000000E+00 -0.00000000000E+00 -0.17617267796E+01  0.17617339889E+01  0.50400000000E-02 0.  1.
         23    2    1    2    0    0 -0.22204460493E-15  0.00000000000E+00  0.11888006208E+04  0.11923240815E+04  0.91595848699E+02 0.  0.
    9000005    2    3    3    0    0  0.18225030243E+01  0.27043380292E+02  0.10724923281E+04  0.10728992731E+04  0.11763944914E+02 0.  0.
         22    1    3    3    0    0 -0.18225030243E+01 -0.27043380292E+02  0.11630829266E+03  0.11942480847E+03  0.00000000000E+00 0.  1.
         22    1    4    4    0    0  0.77985475330E+00 -0.20550524029E+00  0.55257115703E+01  0.55842541309E+01  0.00000000000E+00 0. -1.
         22    1    4    4    0    0  0.10426482710E+01  0.27248885532E+02  0.10669666165E+04  0.10673150189E+04  0.00000000000E+00 0. -1.
<mgrwt>
<rscale>  0 0.91595849E+02</rscale>
<asrwt>0</asrwt>
<pdfrwt beam="1">  1        1 0.18316371E+00 0.91595849E+02</pdfrwt>
<pdfrwt beam="2">  1       -1 0.27103505E-03 0.91595849E+02</pdfrwt>
<totfact> 0.12623044E+05</totfact>
</mgrwt>
</event>
<event>
 7    1  0.3345055E-009  0.8730317E+02  0.7818608E-02  0.1309517E+00
         -1   -1    0    0    0  501 -0.00000000000E+00  0.00000000000E+00  0.80613644981E+02  0.80613645138E+02  0.50400000000E-02 0.  1.
          1   -1    0    0  501    0  0.00000000000E+00 -0.00000000000E+00 -0.23636953395E+02  0.23636953933E+02  0.50400000000E-02 0. -1.
         23    2    1    2    0    0  0.71054273576E-14  0.00000000000E+00  0.56976691586E+02  0.10425059907E+03  0.87303173039E+02 0.  0.
    9000005    2    3    3    0    0  0.37725774618E+02 -0.19366112641E+02  0.40453263742E+02  0.58739017500E+02  0.39402081336E+01 0.  0.
         22    1    3    3    0    0 -0.37725774618E+02  0.19366112641E+02  0.16523427843E+02  0.45511581571E+02  0.00000000000E+00 0. -1.
         22    1    4    4    0    0  0.36078885194E+01 -0.62271646330E+00  0.35183987699E+01  0.50777716832E+01  0.00000000000E+00 0. -1.
         22    1    4    4    0    0  0.34117886099E+02 -0.18743396178E+02  0.36934864972E+02  0.53661245817E+02  0.00000000000E+00 0. -1.
<mgrwt>
<rscale>  0 0.87303173E+02</rscale>
<asrwt>0</asrwt>
<pdfrwt beam="2">  1        1 0.36364544E-02 0.87303173E+02</pdfrwt>
<pdfrwt beam="1">  1       -1 0.12402099E-01 0.87303173E+02</pdfrwt>
<totfact> 0.94466153E+04</totfact>
</mgrwt>
</event>
<event>
 7    1  0.3345055E-009  0.8940174E+02  0.7818608E-02  0.1304307E+00
         -1   -1    0    0    0  501 -0.00000000000E+00  0.00000000000E+00  0.57706650922E+01  0.57706672931E+01  0.50400000000E-02 0.  1.
          1   -1    0    0  501    0  0.00000000000E+00 -0.00000000000E+00 -0.34626291302E+03  0.34626291306E+03  0.50400000000E-02 0. -1.
         23    2    1    2    0    0  0.00000000000E+00  0.00000000000E+00 -0.34049224793E+03  0.35203358035E+03  0.89401738210E+02 0.  0.
    9000005    2    3    3    0    0 -0.40353532385E+02 -0.84857521094E+01 -0.10348890949E+03  0.11146966370E+03  0.38879265051E+01 0.  0.
         22    1    3    3    0    0  0.40353532385E+02  0.84857521094E+01 -0.23700333844E+03  0.24056391665E+03  0.00000000000E+00 0. -1.
         22    1    4    4    0    0 -0.35113015148E+02 -0.82047578314E+01 -0.92870228385E+02  0.99624902531E+02  0.00000000000E+00 0.  1.
         22    1    4    4    0    0 -0.52405172367E+01 -0.28099427795E+00 -0.10618681107E+02  0.11844761169E+02  0.00000000000E+00 0.  1.
<mgrwt>
<rscale>  0 0.89401738E+02</rscale>
<asrwt>0</asrwt>
<pdfrwt beam="2">  1        1 0.53271201E-01 0.89401738E+02</pdfrwt>
<pdfrwt beam="1">  1       -1 0.88779507E-03 0.89401738E+02</pdfrwt>
<totfact> 0.13863168E+05</totfact>
</mgrwt>
</event>
<event>
 7    1  0.3345055E-009  0.9129495E+02  0.7818608E-02  0.1299746E+00
          1   -1    0    0  501    0  0.00000000000E+00  0.00000000000E+00  0.11873169917E+02  0.11873170987E+02  0.50400000000E-02 0. -1.
         -1   -1    0    0    0  501 -0.00000000000E+00 -0.00000000000E+00 -0.17549582883E+03  0.17549582890E+03  0.50400000000E-02 0.  1.
         23    2    1    2    0    0  0.00000000000E+00  0.00000000000E+00 -0.16362265891E+03  0.18736899989E+03  0.91294948434E+02 0.  0.
    9000005    2    3    3    0    0  0.11704522814E+02  0.26230366717E+02 -0.15359919353E+03  0.15694700372E+03  0.14649973760E+02 0.  0.
         22    1    3    3    0    0 -0.11704522814E+02 -0.26230366717E+02 -0.10023465376E+02  0.30421996163E+02  0.00000000000E+00 0. -1.
         22    1    4    4    0    0  0.55240192500E+01  0.10925515466E+01 -0.42525175285E+02  0.42896375029E+02  0.00000000000E+00 0.  1.
         22    1    4    4    0    0  0.61805035638E+01  0.25137815170E+02 -0.11107401825E+03  0.11405062869E+03  0.00000000000E+00 0.  1.
<mgrwt>
<rscale>  0 0.91294948E+02</rscale>
<asrwt>0</asrwt>
<pdfrwt beam="1">  1        1 0.18266417E-02 0.91294948E+02</pdfrwt>
<pdfrwt beam="2">  1       -1 0.26999356E-01 0.91294948E+02</pdfrwt>
<totfact> 0.71704893E+04</totfact>
</mgrwt>
</event>
<event>
 7    1  0.3345055E-009  0.9535913E+02  0.7818608E-02  0.1290369E+00
         -1   -1    0    0    0  501 -0.00000000000E+00  0.00000000000E+00  0.12417917173E+02  0.12417918196E+02  0.50400000000E-02 0.  1.
          1   -1    0    0  501    0  0.00000000000E+00 -0.00000000000E+00 -0.18306942154E+03  0.18306942161E+03  0.50400000000E-02 0. -1.
         23    2    1    2    0    0  0.00000000000E+00  0.22204460493E-15 -0.17065150437E+03  0.19548733981E+03  0.95359132136E+02 0.  0.
    9000005    2    3    3    0    0  0.13984325852E+02  0.16722196630E+01 -0.17845977834E+03  0.17938371193E+03  0.11500692688E+02 0.  0.
         22    1    3    3    0    0 -0.13984325852E+02 -0.16722196630E+01  0.78082739777E+01  0.16103627872E+02  0.00000000000E+00 0.  1.
         22    1    4    4    0    0  0.15274277052E+02  0.35763461909E+01 -0.16310100729E+03  0.16385369196E+03  0.00000000000E+00 0.  1.
         22    1    4    4    0    0 -0.12899512004E+01 -0.19041265279E+01 -0.15358771059E+02  0.15530019973E+02  0.00000000000E+00 0.  1.
<mgrwt>
<rscale>  0 0.95359132E+02</rscale>
<asrwt>0</asrwt>
<pdfrwt beam="2">  1        1 0.28164525E-01 0.95359132E+02</pdfrwt>
<pdfrwt beam="1">  1       -1 0.19104490E-02 0.95359132E+02</pdfrwt>
<totfact> 0.10315036E+05</totfact>
</mgrwt>
</event>
<event>
 7    1  0.3345055E-009  0.9032380E+02  0.7818608E-02  0.1302069E+00
         -1   -1    0    0    0  501 -0.00000000000E+00  0.00000000000E+00  0.18850769100E+01  0.18850836475E+01  0.50400000000E-02 0.  1.
          1   -1    0    0  501    0  0.00000000000E+00 -0.00000000000E+00 -0.10819684319E+04  0.10819684320E+04  0.50400000000E-02 0. -1.
         23    2    1    2    0    0  0.00000000000E+00  0.00000000000E+00 -0.10800833550E+04  0.10838535156E+04  0.90323803418E+02 0.  0.
    9000005    2    3    3    0    0 -0.26824218680E+02  0.24435428816E+02 -0.86152849410E+03  0.86230700553E+03  0.50395183332E+01 0.  0.
         22    1    3    3    0    0  0.26824218680E+02 -0.24435428816E+02 -0.21855486093E+03  0.22154651008E+03  0.00000000000E+00 0.  1.
         22    1    4    4    0    0 -0.19284173480E+02  0.18264601628E+02 -0.67800401264E+03  0.67852407192E+03  0.00000000000E+00 0.  1.
         22    1    4    4    0    0 -0.75400451995E+01  0.61708271879E+01 -0.18352448146E+03  0.18378293361E+03  0.00000000000E+00 0.  1.
<mgrwt>
<rscale>  0 0.90323803E+02</rscale>
<asrwt>0</asrwt>
<pdfrwt beam="2">  1        1 0.16645619E+00 0.90323803E+02</pdfrwt>
<pdfrwt beam="1">  1       -1 0.29001322E-03 0.90323803E+02</pdfrwt>
<totfact> 0.13612001E+05</totfact>
</mgrwt>
</event>
<event>
 7    1  0.6419456E-009  0.8909986E+02  0.7818608E-02  0.1305046E+00
          1   -1    0    0  501    0  0.00000000000E+00  0.00000000000E+00  0.66261063031E+03  0.66261063032E+03  0.50400000000E-02 0. -1.
         -1   -1    0    0    0  501 -0.00000000000E+00 -0.00000000000E+00 -0.29952657564E+01  0.29952699967E+01  0.50400000000E-02 0.  1.
         23    2    1    2    0    0  0.00000000000E+00  0.00000000000E+00  0.65961536455E+03  0.66560590032E+03  0.89099861916E+02 0.  0.
    9000005    2    3    3    0    0 -0.90405406586E+01 -0.54531747681E+01  0.65276123883E+03  0.65301830604E+03  0.14973463653E+02 0.  0.
         22    1    3    3    0    0  0.90405406586E+01  0.54531747681E+01  0.68541257215E+01  0.12587594284E+02  0.00000000000E+00 0.  1.
         22    1    4    4    0    0 -0.11696778797E+02 -0.49055318198E+01  0.62413759214E+03  0.62426645977E+03  0.00000000000E+00 0. -1.
         22    1    4    4    0    0  0.26562381386E+01 -0.54764294826E+00  0.28623646689E+02  0.28751846265E+02  0.00000000000E+00 0. -1.
<mgrwt>
<rscale>  0 0.89099862E+02</rscale>
<asrwt>0</asrwt>
<pdfrwt beam="1">  1        1 0.10194023E+00 0.89099862E+02</pdfrwt>
<pdfrwt beam="2">  1       -1 0.46080986E-03 0.89099862E+02</pdfrwt>
<totfact> 0.15106415E+05</totfact>
</mgrwt>
</event>
<event>
 7    1  0.3345055E-009  0.8834101E+02  0.7818608E-02  0.1306920E+00
          1   -1    0    0  501    0  0.00000000000E+00  0.00000000000E+00  0.20303945094E+03  0.20303945100E+03  0.50400000000E-02 0.  1.
         -1   -1    0    0    0  501 -0.00000000000E+00 -0.00000000000E+00 -0.96091354074E+01  0.96091367292E+01  0.50400000000E-02 0. -1.
         23    2    1    2    0    0 -0.71054273576E-14 -0.35527136788E-14  0.19343031553E+03  0.21264858773E+03  0.88341014807E+02 0.  0.
    9000005    2    3    3    0    0 -0.37187968135E+02 -0.20403479184E+02  0.12294250994E+03  0.13038208377E+03  0.92401342505E+01 0.  0.
         22    1    3    3    0    0  0.37187968135E+02  0.20403479184E+02  0.70487805590E+02  0.82266503960E+02  0.00000000000E+00 0. -1.
         22    1    4    4    0    0 -0.31763064686E+02 -0.18476114555E+02  0.11372719778E+03  0.11951625246E+03  0.00000000000E+00 0.  1.
         22    1    4    4    0    0 -0.54249034490E+01 -0.19273646294E+01  0.92153121639E+01  0.10865831313E+02  0.00000000000E+00 0.  1.
<mgrwt>
<rscale>  0 0.88341015E+02</rscale>
<asrwt>0</asrwt>
<pdfrwt beam="1">  1        1 0.31236836E-01 0.88341015E+02</pdfrwt>
<pdfrwt beam="2">  1       -1 0.14783288E-02 0.88341015E+02</pdfrwt>
<totfact> 0.12922547E+05</totfact>
</mgrwt>
</event>
<event>
 7    1  0.3345055E-009  0.9188841E+02  0.7818608E-02  0.1298342E+00
         -1   -1    0    0    0  501 -0.00000000000E+00  0.00000000000E+00  0.22735775299E+02  0.22735775857E+02  0.50400000000E-02 0. -1.
          1   -1    0    0  501    0  0.00000000000E+00 -0.00000000000E+00 -0.92843548626E+02  0.92843548763E+02  0.50400000000E-02 0.  1.
         23    2    1    2    0    0  0.00000000000E+00  0.00000000000E+00 -0.70107773328E+02  0.11557932462E+03  0.91888412755E+02 0.  0.
    9000005    2    3    3    0    0  0.37507896162E+02  0.23370324570E+02 -0.23203205349E+02  0.51135140691E+02  0.11108534107E+02 0.  0.
         22    1    3    3    0    0 -0.37507896162E+02 -0.23370324570E+02 -0.46904567979E+02  0.64444183929E+02  0.00000000000E+00 0.  1.
         22    1    4    4    0    0  0.85538916687E+01  0.28390169663E+01 -0.55374414512E+00  0.90297127636E+01  0.00000000000E+00 0. -1.
         22    1    4    4    0    0  0.28954004494E+02  0.20531307603E+02 -0.22649461204E+02  0.42105427928E+02  0.00000000000E+00 0. -1.
<mgrwt>
<rscale>  0 0.91888413E+02</rscale>
<asrwt>0</asrwt>
<pdfrwt beam="2">  1        1 0.14283623E-01 0.91888413E+02</pdfrwt>
<pdfrwt beam="1">  1       -1 0.34978117E-02 0.91888413E+02</pdfrwt>
<totfact> 0.10100995E+05</totfact>
</mgrwt>
</event>
<event>
 7    1  0.3345055E-009  0.9202668E+02  0.7818608E-02  0.1298017E+00
         -1   -1    0    0    0  501 -0.00000000000E+00  0.00000000000E+00  0.16166679035E+03  0.16166679043E+03  0.50400000000E-02 0.  1.
          1   -1    0    0  501    0  0.00000000000E+00 -0.00000000000E+00 -0.13096240627E+02  0.13096241597E+02  0.50400000000E-02 0. -1.
         23    2    1    2    0    0  0.35527136788E-14 -0.71054273576E-14  0.14857054973E+03  0.17476303203E+03  0.92026676121E+02 0.  0.
    9000005    2    3    3    0    0 -0.24491316587E+02  0.37234222356E+02  0.68273055242E+02  0.82926767280E+02  0.15146839830E+02 0.  0.
         22    1    3    3    0    0  0.24491316587E+02 -0.37234222356E+02  0.80297494485E+02  0.91836264750E+02  0.00000000000E+00 0.  1.
         22    1    4    4    0    0 -0.88079044391E+01  0.63466428475E+01  0.26636559481E+02  0.28763959342E+02  0.00000000000E+00 0.  1.
         22    1    4    4    0    0 -0.15683412148E+02  0.30887579508E+02  0.41636495760E+02  0.54162807937E+02  0.00000000000E+00 0.  1.
<mgrwt>
<rscale>  0 0.92026676E+02</rscale>
<asrwt>0</asrwt>
<pdfrwt beam="2">  1        1 0.20148063E-02 0.92026676E+02</pdfrwt>
<pdfrwt beam="1">  1       -1 0.24871814E-01 0.92026676E+02</pdfrwt>
<totfact> 0.71704883E+04</totfact>
</mgrwt>
</event>
<event>
 7    1  0.3345055E-009  0.8894734E+02  0.7818608E-02  0.1305421E+00
          1   -1    0    0  501    0  0.00000000000E+00  0.00000000000E+00  0.58341499184E+01  0.58341520954E+01  0.50400000000E-02 0. -1.
         -1   -1    0    0    0  501 -0.00000000000E+00 -0.00000000000E+00 -0.33902226531E+03  0.33902226534E+03  0.50400000000E-02 0.  1.
         23    2    1    2    0    0  0.00000000000E+00  0.00000000000E+00 -0.33318811539E+03  0.34485641744E+03  0.88947335054E+02 0.  0.
    9000005    2    3    3    0    0  0.30912141164E+02  0.12839645168E+02 -0.27787982524E+03  0.28020795328E+03  0.13374709157E+02 0.  0.
         22    1    3    3    0    0 -0.30912141164E+02 -0.12839645168E+02 -0.55308290148E+02  0.64648464162E+02  0.00000000000E+00 0. -1.
         22    1    4    4    0    0  0.22341520625E+02  0.14694242820E+02 -0.22805081464E+03  0.22961323649E+03  0.00000000000E+00 0. -1.
         22    1    4    4    0    0  0.85706205392E+01 -0.18545976514E+01 -0.49829010603E+02  0.50594716785E+02  0.00000000000E+00 0. -1.
<mgrwt>
<rscale>  0 0.88947335E+02</rscale>
<asrwt>0</asrwt>
<pdfrwt beam="1">  1        1 0.89756196E-03 0.88947335E+02</pdfrwt>
<pdfrwt beam="2">  1       -1 0.52157256E-01 0.88947335E+02</pdfrwt>
<totfact> 0.61442391E+04</totfact>
</mgrwt>
</event>
<event>
 7    1  0.3345055E-009  0.9032565E+02  0.7818608E-02  0.1302065E+00
          1   -1    0    0  501    0  0.00000000000E+00  0.00000000000E+00  0.48548165134E+02  0.48548165396E+02  0.50400000000E-02 0. -1.
         -1   -1    0    0    0  501 -0.00000000000E+00 -0.00000000000E+00 -0.42013547774E+02  0.42013548076E+02  0.50400000000E-02 0.  1.
         23    2    1    2    0    0  0.00000000000E+00 -0.17763568394E-14  0.65346173602E+01  0.90561713472E+02  0.90325648201E+02 0.  0.
    9000005    2    3    3    0    0 -0.40197008014E+02  0.14816544744E+02 -0.66302290830E+01  0.45743830509E+02  0.14601665678E+02 0.  0.
         22    1    3    3    0    0  0.40197008014E+02 -0.14816544744E+02  0.13164846443E+02  0.44817882963E+02  0.00000000000E+00 0.  1.
         22    1    4    4    0    0 -0.13539932543E+02 -0.20704941191E+01 -0.23924661038E+01  0.13904697524E+02  0.00000000000E+00 0.  1.
         22    1    4    4    0    0 -0.26657075471E+02  0.16887038863E+02 -0.42377629792E+01  0.31839132986E+02  0.00000000000E+00 0.  1.
<mgrwt>
<rscale>  0 0.90325648E+02</rscale>
<asrwt>0</asrwt>
<pdfrwt beam="1">  1        1 0.74689485E-02 0.90325648E+02</pdfrwt>
<pdfrwt beam="2">  1       -1 0.64636228E-02 0.90325648E+02</pdfrwt>
<totfact> 0.95829611E+04</totfact>
</mgrwt>
</event>
<event>
 7    1  0.6862572E-009  0.8969979E+02  0.7818608E-02  0.1303580E+00
         -1   -1    0    0    0  501 -0.00000000000E+00  0.00000000000E+00  0.37322996946E+01  0.37323030975E+01  0.50400000000E-02 0.  1.
          1   -1    0    0  501    0  0.00000000000E+00 -0.00000000000E+00 -0.53894706058E+03  0.53894706061E+03  0.50400000000E-02 0. -1.
         23    2    1    2    0    0  0.00000000000E+00  0.00000000000E+00 -0.53521476089E+03  0.54267936371E+03  0.89699785493E+02 0.  0.
    9000005    2    3    3    0    0  0.10775298470E+02  0.10301946451E+02 -0.52292340945E+03  0.52335801598E+03  0.15247412180E+02 0.  0.
         22    1    3    3    0    0 -0.10775298470E+02 -0.10301946451E+02 -0.12291351437E+02  0.19321347726E+02  0.00000000000E+00 0.  1.
         22    1    4    4    0    0  0.13387040988E+02  0.33438342805E+01 -0.36256534896E+03  0.36282781917E+03  0.00000000000E+00 0.  1.
         22    1    4    4    0    0 -0.26117425177E+01  0.69581121709E+01 -0.16035806049E+03  0.16053019681E+03  0.00000000000E+00 0.  1.
<mgrwt>
<rscale>  0 0.89699785E+02</rscale>
<asrwt>0</asrwt>
<pdfrwt beam="2">  1        1 0.82914871E-01 0.89699785E+02</pdfrwt>
<pdfrwt beam="1">  1       -1 0.57420064E-03 0.89699785E+02</pdfrwt>
<totfact> 0.14659308E+05</totfact>
</mgrwt>
</event>
<event>
 7    1  0.3345055E-009  0.9350568E+02  0.7818608E-02  0.1294578E+00
          1   -1    0    0  501    0  0.00000000000E+00  0.00000000000E+00  0.36485852780E+02  0.36485853128E+02  0.50400000000E-02 0.  1.
         -1   -1    0    0    0  501 -0.00000000000E+00 -0.00000000000E+00 -0.59908915020E+02  0.59908915232E+02  0.50400000000E-02 0. -1.
         23    2    1    2    0    0 -0.17763568394E-14  0.00000000000E+00 -0.23423062240E+02  0.96394768361E+02  0.93505676419E+02 0.  0.
    9000005    2    3    3    0    0  0.12100826671E+02 -0.19113089575E+02 -0.53514267656E+02  0.58748774648E+02  0.87121455786E+01 0.  0.
         22    1    3    3    0    0 -0.12100826671E+02  0.19113089575E+02  0.30091205416E+02  0.37645993713E+02  0.00000000000E+00 0.  1.
         22    1    4    4    0    0  0.10423625345E+01 -0.11884642819E+01 -0.42881153200E+00  0.16379396609E+01  0.00000000000E+00 0. -1.
         22    1    4    4    0    0  0.11058464136E+02 -0.17924625293E+02 -0.53085456124E+02  0.57110834987E+02  0.00000000000E+00 0. -1.
<mgrwt>
<rscale>  0 0.93505676E+02</rscale>
<asrwt>0</asrwt>
<pdfrwt beam="1">  1        1 0.56132081E-02 0.93505676E+02</pdfrwt>
<pdfrwt beam="2">  1       -1 0.92167562E-02 0.93505676E+02</pdfrwt>
<totfact> 0.83201777E+04</totfact>
</mgrwt>
</event>
<event>
 7    1  0.3345055E-009  0.9199622E+02  0.7818608E-02  0.1298088E+00
          1   -1    0    0  501    0  0.00000000000E+00  0.00000000000E+00  0.18646524655E+02  0.18646525336E+02  0.50400000000E-02 0. -1.
         -1   -1    0    0    0  501 -0.00000000000E+00 -0.00000000000E+00 -0.11347027308E+03  0.11347027319E+03  0.50400000000E-02 0.  1.
         23    2    1    2    0    0 -0.71054273576E-14 -0.17763568394E-14 -0.94823748426E+02  0.13211679853E+03  0.91996223771E+02 0.  0.
    9000005    2    3    3    0    0  0.43322982733E+02  0.13778741563E+02 -0.39001755660E+02  0.60124927958E+02  0.52091712900E+01 0.  0.
         22    1    3    3    0    0 -0.43322982733E+02 -0.13778741563E+02 -0.55821992766E+02  0.71991870571E+02  0.00000000000E+00 0. -1.
         22    1    4    4    0    0  0.24539234749E+01  0.32302759406E+00 -0.37886377233E+01  0.45254682681E+01  0.00000000000E+00 0. -1.
         22    1    4    4    0    0  0.40869059258E+02  0.13455713969E+02 -0.35213117936E+02  0.55599459690E+02  0.00000000000E+00 0. -1.
<mgrwt>
<rscale>  0 0.91996224E+02</rscale>
<asrwt>0</asrwt>
<pdfrwt beam="1">  1        1 0.28686962E-02 0.91996224E+02</pdfrwt>
<pdfrwt beam="2">  1       -1 0.17456965E-01 0.91996224E+02</pdfrwt>
<totfact> 0.77604747E+04</totfact>
</mgrwt>
</event>
<event>
 7    1  0.3345055E-009  0.9177478E+02  0.7818608E-02  0.1298610E+00
         -1   -1    0    0    0  501 -0.00000000000E+00  0.00000000000E+00  0.29575515791E+01  0.29575558734E+01  0.50400000000E-02 0.  1.
          1   -1    0    0  501    0  0.00000000000E+00 -0.00000000000E+00 -0.71195756593E+03  0.71195756594E+03  0.50400000000E-02 0. -1.
         23    2    1    2    0    0  0.00000000000E+00 -0.35527136788E-14 -0.70900001435E+03  0.71491512182E+03  0.91774784440E+02 0.  0.
    9000005    2    3    3    0    0 -0.50378350171E+01 -0.18270488642E+02 -0.67903580148E+03  0.67946029719E+03  0.14747380237E+02 0.  0.
         22    1    3    3    0    0  0.50378350171E+01  0.18270488642E+02 -0.29964212866E+02  0.35454824630E+02  0.00000000000E+00 0.  1.
         22    1    4    4    0    0  0.19693327289E+00  0.97849027012E+00 -0.37691466071E+01  0.38990629731E+01  0.00000000000E+00 0.  1.
         22    1    4    4    0    0 -0.52347682900E+01 -0.19248978912E+02 -0.67526665487E+03  0.67556123421E+03  0.00000000000E+00 0.  1.
<mgrwt>
<rscale>  0 0.91774784E+02</rscale>
<asrwt>0</asrwt>
<pdfrwt beam="2">  1        1 0.10953180E+00 0.91774784E+02</pdfrwt>
<pdfrwt beam="1">  1       -1 0.45500883E-03 0.91774784E+02</pdfrwt>
<totfact> 0.13970550E+05</totfact>
</mgrwt>
</event>
<event>
 7    1  0.3345055E-009  0.9083848E+02  0.7818608E-02  0.1300834E+00
          1   -1    0    0  501    0  0.00000000000E+00  0.00000000000E+00  0.12872534345E+03  0.12872534355E+03  0.50400000000E-02 0. -1.
         -1   -1    0    0    0  501 -0.00000000000E+00 -0.00000000000E+00 -0.16025649914E+02  0.16025650707E+02  0.50400000000E-02 0.  1.
         23    2    1    2    0    0  0.00000000000E+00  0.00000000000E+00  0.11269969353E+03  0.14475099425E+03  0.90838479813E+02 0.  0.
    9000005    2    3    3    0    0  0.60578522482E+01 -0.31099636807E+02  0.10757254587E+03  0.11265469187E+03  0.10739738933E+02 0.  0.
         22    1    3    3    0    0 -0.60578522482E+01  0.31099636807E+02  0.51271476630E+01  0.32096302381E+02  0.00000000000E+00 0.  1.
         22    1    4    4    0    0 -0.25088084271E+01 -0.10541609060E+02  0.43199647532E+02  0.44537952223E+02  0.00000000000E+00 0.  1.
         22    1    4    4    0    0  0.85666606752E+01 -0.20558027747E+02  0.64372898337E+02  0.68116739648E+02  0.00000000000E+00 0.  1.
<mgrwt>
<rscale>  0 0.90838480E+02</rscale>
<asrwt>0</asrwt>
<pdfrwt beam="1">  1        1 0.19803900E-01 0.90838480E+02</pdfrwt>
<pdfrwt beam="2">  1       -1 0.24654846E-02 0.90838480E+02</pdfrwt>
<totfact> 0.11017915E+05</totfact>
</mgrwt>
</event>
<event>
 7    1  0.3345055E-009  0.9140886E+02  0.7818608E-02  0.1299475E+00
         -1   -1    0    0    0  501 -0.00000000000E+00  0.00000000000E+00  0.85682482428E+01  0.85682497251E+01  0.50400000000E-02 0.  1.
          1   -1    0    0  501    0  0.00000000000E+00 -0.00000000000E+00 -0.24379483608E+03  0.24379483614E+03  0.50400000000E-02 0. -1.
         23    2    1    2    0    0  0.00000000000E+00  0.16653345369E-15 -0.23522658784E+03  0.25236308586E+03  0.91408858859E+02 0.  0.
    9000005    2    3    3    0    0 -0.43707402743E+02  0.37087282268E+00 -0.15126722824E+03  0.15770766517E+03  0.89139617083E+01 0.  0.
         22    1    3    3    0    0  0.43707402743E+02 -0.37087282268E+00 -0.83959359599E+02  0.94655420687E+02  0.00000000000E+00 0.  1.
         22    1    4    4    0    0 -0.57246532093E+01 -0.23231819620E+01 -0.28889290436E+02  0.29542510568E+02  0.00000000000E+00 0. -1.
         22    1    4    4    0    0 -0.37982749534E+02  0.26940547847E+01 -0.12237793781E+03  0.12816515461E+03  0.00000000000E+00 0. -1.
<mgrwt>
<rscale>  0 0.91408859E+02</rscale>
<asrwt>0</asrwt>
<pdfrwt beam="2">  1        1 0.37506893E-01 0.91408859E+02</pdfrwt>
<pdfrwt beam="1">  1       -1 0.13181923E-02 0.91408859E+02</pdfrwt>
<totfact> 0.12223202E+05</totfact>
</mgrwt>
</event>
<event>
 7    1  0.3345055E-009  0.6187501E+02  0.7818608E-02  0.1390127E+00
          1   -1    0    0  501    0  0.00000000000E+00  0.00000000000E+00  0.74845959298E+02  0.74845959467E+02  0.50400000000E-02 0. -1.
         -1   -1    0    0    0  501 -0.00000000000E+00 -0.00000000000E+00 -0.12787986245E+02  0.12787987239E+02  0.50400000000E-02 0.  1.
         23    2    1    2    0    0  0.00000000000E+00  0.00000000000E+00  0.62057973052E+02  0.87633946706E+02  0.61875007846E+02 0.  0.
    9000005    2    3    3    0    0 -0.16997343278E+02 -0.22213506704E+02  0.19105178560E+02  0.36376829022E+02  0.13263343593E+02 0.  0.
         22    1    3    3    0    0  0.16997343278E+02  0.22213506704E+02  0.42952794492E+02  0.51257117684E+02  0.00000000000E+00 0. -1.
         22    1    4    4    0    0  0.29363263594E-02  0.15919714030E+01  0.17396629220E+01  0.23581366908E+01  0.00000000000E+00 0. -1.
         22    1    4    4    0    0 -0.17000279604E+02 -0.23805478107E+02  0.17365515638E+02  0.34018692331E+02  0.00000000000E+00 0. -1.
<mgrwt>
<rscale>  0 0.61875008E+02</rscale>
<asrwt>0</asrwt>
<pdfrwt beam="1">  1        1 0.11514763E-01 0.61875008E+02</pdfrwt>
<pdfrwt beam="2">  1       -1 0.19673826E-02 0.61875008E+02</pdfrwt>
<totfact> 0.28152691E+05</totfact>
</mgrwt>
</event>
<event>
 7    1  0.3345055E-009  0.7873376E+02  0.7818608E-02  0.1332684E+00
         -1   -1    0    0    0  501 -0.00000000000E+00  0.00000000000E+00  0.28700835700E+02  0.28700836142E+02  0.50400000000E-02 0.  1.
          1   -1    0    0  501    0  0.00000000000E+00 -0.00000000000E+00 -0.53996725827E+02  0.53996726062E+02  0.50400000000E-02 0. -1.
         23    2    1    2    0    0  0.00000000000E+00  0.00000000000E+00 -0.25295890127E+02  0.82697562204E+02  0.78733758561E+02 0.  0.
    9000005    2    3    3    0    0  0.29735026374E+02 -0.83972656626E+01 -0.37747770864E+02  0.49384873962E+02  0.76997212244E+01 0.  0.
         22    1    3    3    0    0 -0.29735026374E+02  0.83972656626E+01  0.12451880737E+02  0.33312688243E+02  0.00000000000E+00 0.  1.
         22    1    4    4    0    0  0.41716043172E+01 -0.80563651142E-01 -0.19190831557E+01  0.45925649957E+01  0.00000000000E+00 0. -1.
         22    1    4    4    0    0  0.25563422057E+02 -0.83167020115E+01 -0.35828687708E+02  0.44792308966E+02  0.00000000000E+00 0. -1.
<mgrwt>
<rscale>  0 0.78733759E+02</rscale>
<asrwt>0</asrwt>
<pdfrwt beam="2">  1        1 0.83071887E-02 0.78733759E+02</pdfrwt>
<pdfrwt beam="1">  1       -1 0.44155132E-02 0.78733759E+02</pdfrwt>
<totfact> 0.14206970E+05</totfact>
</mgrwt>
</event>
<event>
 7    1  0.3345055E-009  0.9164644E+02  0.7818608E-02  0.1298913E+00
          1   -1    0    0  501    0  0.00000000000E+00  0.00000000000E+00  0.49357009751E+02  0.49357010008E+02  0.50400000000E-02 0. -1.
         -1   -1    0    0    0  501 -0.00000000000E+00 -0.00000000000E+00 -0.42542434966E+02  0.42542435264E+02  0.50400000000E-02 0.  1.
         23    2    1    2    0    0  0.00000000000E+00 -0.35527136788E-14  0.68145747851E+01  0.91899445272E+02  0.91646438075E+02 0.  0.
    9000005    2    3    3    0    0  0.33773431756E+01  0.28171489085E+02 -0.31592474503E+02  0.44148626649E+02  0.12082116768E+02 0.  0.
         22    1    3    3    0    0 -0.33773431756E+01 -0.28171489085E+02  0.38407049288E+02  0.47750818623E+02  0.00000000000E+00 0. -1.
         22    1    4    4    0    0 -0.43156154708E+01  0.13301534613E+02 -0.12513506029E+02  0.18765478760E+02  0.00000000000E+00 0.  1.
         22    1    4    4    0    0  0.76929586464E+01  0.14869954472E+02 -0.19078968474E+02  0.25383147889E+02  0.00000000000E+00 0.  1.
<mgrwt>
<rscale>  0 0.91646438E+02</rscale>
<asrwt>0</asrwt>
<pdfrwt beam="1">  1        1 0.75933861E-02 0.91646438E+02</pdfrwt>
<pdfrwt beam="2">  1       -1 0.65449901E-02 0.91646438E+02</pdfrwt>
<totfact> 0.92245099E+04</totfact>
</mgrwt>
</event>
<event>
 7    1  0.3345055E-009  0.8774920E+02  0.7818608E-02  0.1308396E+00
          1   -1    0    0  501    0  0.00000000000E+00  0.00000000000E+00  0.40098564538E+02  0.40098564855E+02  0.50400000000E-02 0. -1.
         -1   -1    0    0    0  501 -0.00000000000E+00 -0.00000000000E+00 -0.48006221236E+02  0.48006221501E+02  0.50400000000E-02 0.  1.
         23    2    1    2    0    0  0.00000000000E+00  0.00000000000E+00 -0.79076566979E+01  0.88104786356E+02  0.87749201389E+02 0.  0.
    9000005    2    3    3    0    0 -0.15156464198E+02  0.49396892603E+01  0.35831461668E+02  0.41551275077E+02  0.13729380114E+02 0.  0.
         22    1    3    3    0    0  0.15156464198E+02 -0.49396892603E+01 -0.43739118366E+02  0.46553511279E+02  0.00000000000E+00 0.  1.
         22    1    4    4    0    0 -0.14521880104E+02  0.62287747956E+00  0.33688052174E+02  0.36690023676E+02  0.00000000000E+00 0. -1.
         22    1    4    4    0    0 -0.63458409386E+00  0.43168117807E+01  0.21434094940E+01  0.48612514008E+01  0.00000000000E+00 0. -1.
<mgrwt>
<rscale>  0 0.87749201E+02</rscale>
<asrwt>0</asrwt>
<pdfrwt beam="1">  1        1 0.61690099E-02 0.87749201E+02</pdfrwt>
<pdfrwt beam="2">  1       -1 0.73855726E-02 0.87749201E+02</pdfrwt>
<totfact> 0.10101941E+05</totfact>
</mgrwt>
</event>
<event>
 7    1  0.3345055E-009  0.8966128E+02  0.7818608E-02  0.1303674E+00
          1   -1    0    0  501    0  0.00000000000E+00  0.00000000000E+00  0.32082839429E+03  0.32082839433E+03  0.50400000000E-02 0. -1.
         -1   -1    0    0    0  501 -0.00000000000E+00 -0.00000000000E+00 -0.62643639358E+01  0.62643659633E+01  0.50400000000E-02 0.  1.
         23    2    1    2    0    0  0.00000000000E+00 -0.17763568394E-14  0.31456403035E+03  0.32709276029E+03  0.89661277279E+02 0.  0.
    9000005    2    3    3    0    0  0.41339226478E+02 -0.14942368906E+02  0.14933401068E+03  0.15611566991E+03  0.11800407248E+02 0.  0.
         22    1    3    3    0    0 -0.41339226478E+02  0.14942368906E+02  0.16523001967E+03  0.17097709038E+03  0.00000000000E+00 0.  1.
         22    1    4    4    0    0  0.62024201877E+01  0.19800890342E+01  0.21985738423E+02  0.22929532546E+02  0.00000000000E+00 0. -1.
         22    1    4    4    0    0  0.35136806291E+02 -0.16922457941E+02  0.12734827226E+03  0.13318613736E+03  0.00000000000E+00 0. -1.
<mgrwt>
<rscale>  0 0.89661277E+02</rscale>
<asrwt>0</asrwt>
<pdfrwt beam="1">  1        1 0.49358208E-01 0.89661277E+02</pdfrwt>
<pdfrwt beam="2">  1       -1 0.96374859E-03 0.89661277E+02</pdfrwt>
<totfact> 0.13566698E+05</totfact>
</mgrwt>
</event>
<event>
 7    1  0.3345055E-009  0.9076840E+02  0.7818608E-02  0.1301002E+00
         -1   -1    0    0    0  501 -0.00000000000E+00  0.00000000000E+00  0.70831331510E+02  0.70831331689E+02  0.50400000000E-02 0.  1.
          1   -1    0    0  501    0  0.00000000000E+00 -0.00000000000E+00 -0.29079301524E+02  0.29079301961E+02  0.50400000000E-02 0. -1.
         23    2    1    2    0    0  0.88817841970E-15  0.71054273576E-14  0.41752029986E+02  0.99910633650E+02  0.90768401486E+02 0.  0.
    9000005    2    3    3    0    0  0.79743933045E+01  0.33528401281E+02 -0.97898997956E+01  0.37908092036E+02  0.12386955346E+02 0.  0.
         22    1    3    3    0    0 -0.79743933045E+01 -0.33528401281E+02  0.51541929782E+02  0.62002541614E+02  0.00000000000E+00 0.  1.
         22    1    4    4    0    0 -0.12527997997E+01  0.12507757515E+02  0.86341001047E+00  0.12599959613E+02  0.00000000000E+00 0.  1.
         22    1    4    4    0    0  0.92271931042E+01  0.21020643766E+02 -0.10653309806E+02  0.25308132423E+02  0.00000000000E+00 0.  1.
<mgrwt>
<rscale>  0 0.90768401E+02</rscale>
<asrwt>0</asrwt>
<pdfrwt beam="2">  1        1 0.44737388E-02 0.90768401E+02</pdfrwt>
<pdfrwt beam="1">  1       -1 0.10897128E-01 0.90768401E+02</pdfrwt>
<totfact> 0.87368219E+04</totfact>
</mgrwt>
</event>
<event>
 7    1  0.3345055E-009  0.9008784E+02  0.7818608E-02  0.1302639E+00
         -1   -1    0    0    0  501 -0.00000000000E+00  0.00000000000E+00  0.36787121659E+02  0.36787122004E+02  0.50400000000E-02 0.  1.
          1   -1    0    0  501    0  0.00000000000E+00 -0.00000000000E+00 -0.55153943079E+02  0.55153943310E+02  0.50400000000E-02 0. -1.
         23    2    1    2    0    0  0.17763568394E-14  0.35527136788E-14 -0.18366821421E+02  0.91941065314E+02  0.90087842475E+02 0.  0.
    9000005    2    3    3    0    0 -0.12006723416E+02  0.21217767769E+02 -0.47109447799E+02  0.54251628499E+02  0.11383498870E+02 0.  0.
         22    1    3    3    0    0  0.12006723416E+02 -0.21217767769E+02  0.28742626379E+02  0.37689436815E+02  0.00000000000E+00 0.  1.
         22    1    4    4    0    0 -0.10128081046E+02  0.22440065052E+02 -0.43984062330E+02  0.50405677104E+02  0.00000000000E+00 0.  1.
         22    1    4    4    0    0 -0.18786423700E+01 -0.12222972832E+01 -0.31253854689E+01  0.38459513949E+01  0.00000000000E+00 0.  1.
<mgrwt>
<rscale>  0 0.90087842E+02</rscale>
<asrwt>0</asrwt>
<pdfrwt beam="2">  1        1 0.84852220E-02 0.90087842E+02</pdfrwt>
<pdfrwt beam="1">  1       -1 0.56595573E-02 0.90087842E+02</pdfrwt>
<totfact> 0.98385623E+04</totfact>
</mgrwt>
</event>
<event>
 7    1  0.3345055E-009  0.9512776E+02  0.7818608E-02  0.1290889E+00
         -1   -1    0    0    0  501 -0.00000000000E+00  0.00000000000E+00  0.60275015734E+03  0.60275015736E+03  0.50400000000E-02 0.  1.
          1   -1    0    0  501    0  0.00000000000E+00 -0.00000000000E+00 -0.37533321635E+01  0.37533355473E+01  0.50400000000E-02 0. -1.
         23    2    1    2    0    0  0.35527136788E-14  0.00000000000E+00  0.59899682518E+03  0.60650349291E+03  0.95127757981E+02 0.  0.
    9000005    2    3    3    0    0  0.27579321754E+02 -0.30796907279E+02  0.44335728687E+03  0.44546705489E+03  0.12889712284E+02 0.  0.
         22    1    3    3    0    0 -0.27579321754E+02  0.30796907279E+02  0.15563953831E+03  0.16103643803E+03  0.00000000000E+00 0. -1.
         22    1    4    4    0    0  0.56952638886E+01 -0.15463986599E+02  0.18431840413E+03  0.18505362740E+03  0.00000000000E+00 0. -1.
         22    1    4    4    0    0  0.21884057865E+02 -0.15332920679E+02  0.25903888274E+03  0.26041342748E+03  0.00000000000E+00 0. -1.
<mgrwt>
<rscale>  0 0.95127758E+02</rscale>
<asrwt>0</asrwt>
<pdfrwt beam="2">  1        1 0.57743595E-03 0.95127758E+02</pdfrwt>
<pdfrwt beam="1">  1       -1 0.92730798E-01 0.95127758E+02</pdfrwt>
<totfact> 0.37097507E+04</totfact>
</mgrwt>
</event>
<event>
 7    1  0.3345055E-009  0.6987727E+02  0.7818608E-02  0.1360511E+00
          1   -1    0    0  501    0  0.00000000000E+00  0.00000000000E+00  0.31799713389E+02  0.31799713789E+02  0.50400000000E-02 0. -1.
         -1   -1    0    0    0  501 -0.00000000000E+00 -0.00000000000E+00 -0.38387397785E+02  0.38387398116E+02  0.50400000000E-02 0.  1.
         23    2    1    2    0    0  0.35527136788E-14  0.00000000000E+00 -0.65876843953E+01  0.70187111904E+02  0.69877271640E+02 0.  0.
    9000005    2    3    3    0    0 -0.24094138465E+02  0.22334862962E+02  0.64194525599E+01  0.34852154374E+02  0.96999835786E+01 0.  0.
         22    1    3    3    0    0  0.24094138465E+02 -0.22334862962E+02 -0.13007136955E+02  0.35334957531E+02  0.00000000000E+00 0.  1.
         22    1    4    4    0    0 -0.20373311863E+02  0.13988092198E+02  0.22746446702E+01  0.24817585861E+02  0.00000000000E+00 0. -1.
         22    1    4    4    0    0 -0.37208266023E+01  0.83467707646E+01  0.41448078897E+01  0.10034568513E+02  0.00000000000E+00 0. -1.
<mgrwt>
<rscale>  0 0.69877272E+02</rscale>
<asrwt>0</asrwt>
<pdfrwt beam="1">  1        1 0.48922637E-02 0.69877272E+02</pdfrwt>
<pdfrwt beam="2">  1       -1 0.59057535E-02 0.69877272E+02</pdfrwt>
<totfact> 0.18387487E+05</totfact>
</mgrwt>
</event>
<event>
 7    1  0.3345055E-009  0.9038286E+02  0.7818608E-02  0.1301927E+00
          1   -1    0    0  501    0  0.00000000000E+00  0.00000000000E+00  0.20751727464E+02  0.20751728076E+02  0.50400000000E-02 0. -1.
         -1   -1    0    0    0  501 -0.00000000000E+00 -0.00000000000E+00 -0.98414241765E+02  0.98414241894E+02  0.50400000000E-02 0.  1.
         23    2    1    2    0    0  0.00000000000E+00  0.00000000000E+00 -0.77662514301E+02  0.11916596997E+03  0.90382864922E+02 0.  0.
    9000005    2    3    3    0    0 -0.98808420815E+01 -0.27964819163E+02 -0.83510234421E+02  0.88935885921E+02  0.74813368090E+01 0.  0.
         22    1    3    3    0    0  0.98808420815E+01  0.27964819163E+02  0.58477201203E+01  0.30230084050E+02  0.00000000000E+00 0. -1.
         22    1    4    4    0    0 -0.28438958485E+01 -0.16870175176E+02 -0.40540941689E+02  0.44002937483E+02  0.00000000000E+00 0. -1.
         22    1    4    4    0    0 -0.70369462330E+01 -0.11094643987E+02 -0.42969292731E+02  0.44932948438E+02  0.00000000000E+00 0. -1.
<mgrwt>
<rscale>  0 0.90382865E+02</rscale>
<asrwt>0</asrwt>
<pdfrwt beam="1">  1        1 0.31925736E-02 0.90382865E+02</pdfrwt>
<pdfrwt beam="2">  1       -1 0.15140652E-01 0.90382865E+02</pdfrwt>
<totfact> 0.83468661E+04</totfact>
</mgrwt>
</event>
<event>
 7    1  0.3345055E-009  0.9095243E+02  0.7818608E-02  0.1300561E+00
         -1   -1    0    0    0  501 -0.00000000000E+00  0.00000000000E+00  0.21989254943E+01  0.21989312702E+01  0.50400000000E-02 0.  1.
          1   -1    0    0  501    0  0.00000000000E+00 -0.00000000000E+00 -0.94049731543E+03  0.94049731544E+03  0.50400000000E-02 0. -1.
         23    2    1    2    0    0  0.00000000000E+00  0.00000000000E+00 -0.93829838993E+03  0.94269624671E+03  0.90952432689E+02 0.  0.
    9000005    2    3    3    0    0  0.13842346729E+02 -0.17729082991E+02 -0.87651634185E+03  0.87694708389E+03  0.15791119709E+02 0.  0.
         22    1    3    3    0    0 -0.13842346729E+02  0.17729082991E+02 -0.61782048081E+02  0.65749162821E+02  0.00000000000E+00 0.  1.
         22    1    4    4    0    0  0.68679100110E+00 -0.12308475906E+01 -0.55835328106E+01  0.57586896355E+01  0.00000000000E+00 0. -1.
         22    1    4    4    0    0  0.13155555728E+02 -0.16498235400E+02 -0.87093280904E+03  0.87118839425E+03  0.00000000000E+00 0. -1.
<mgrwt>
<rscale>  0 0.90952433E+02</rscale>
<asrwt>0</asrwt>
<pdfrwt beam="2">  1        1 0.14469157E+00 0.90952433E+02</pdfrwt>
<pdfrwt beam="1">  1       -1 0.33829743E-03 0.90952433E+02</pdfrwt>
<totfact> 0.13891152E+05</totfact>
</mgrwt>
</event>
<event>
 7    1  0.3345055E-009  0.9008958E+02  0.7818608E-02  0.1302635E+00
          1   -1    0    0  501    0  0.00000000000E+00  0.00000000000E+00  0.83893307417E+01  0.83893322556E+01  0.50400000000E-02 0. -1.
         -1   -1    0    0    0  501 -0.00000000000E+00 -0.00000000000E+00 -0.24185872663E+03  0.24185872668E+03  0.50400000000E-02 0.  1.
         23    2    1    2    0    0  0.00000000000E+00  0.00000000000E+00 -0.23346939588E+03  0.25024805893E+03  0.90089578674E+02 0.  0.
    9000005    2    3    3    0    0 -0.89273911581E+01 -0.38547923773E+02 -0.61213107337E+02  0.73505676682E+02  0.95078522553E+01 0.  0.
         22    1    3    3    0    0  0.89273911581E+01  0.38547923773E+02 -0.17225628855E+03  0.17674238225E+03  0.00000000000E+00 0.  1.
         22    1    4    4    0    0 -0.10622964263E+02 -0.36213212539E+02 -0.57886380535E+02  0.69101933284E+02  0.00000000000E+00 0.  1.
         22    1    4    4    0    0  0.16955731048E+01 -0.23347112337E+01 -0.33267268018E+01  0.44037433977E+01  0.00000000000E+00 0.  1.
<mgrwt>
<rscale>  0 0.90089579E+02</rscale>
<asrwt>0</asrwt>
<pdfrwt beam="1">  1        1 0.12906666E-02 0.90089579E+02</pdfrwt>
<pdfrwt beam="2">  1       -1 0.37209030E-01 0.90089579E+02</pdfrwt>
<totfact> 0.67567319E+04</totfact>
</mgrwt>
</event>
<event>
 7    1  0.3345055E-009  0.1018219E+03  0.7818608E-02  0.1276511E+00
         -1   -1    0    0    0  501 -0.00000000000E+00  0.00000000000E+00  0.16078070574E+02  0.16078071364E+02  0.50400000000E-02 0.  1.
          1   -1    0    0  501    0  0.00000000000E+00 -0.00000000000E+00 -0.16120881422E+03  0.16120881430E+03  0.50400000000E-02 0. -1.
         23    2    1    2    0    0  0.00000000000E+00  0.00000000000E+00 -0.14513074364E+03  0.17728688566E+03  0.10182193809E+03 0.  0.
    9000005    2    3    3    0    0 -0.84435175332E+01  0.26005991139E+02  0.18922336929E+01  0.27743044502E+02  0.43001635347E+01 0.  0.
         22    1    3    3    0    0  0.84435175332E+01 -0.26005991139E+02 -0.14702297734E+03  0.14954384116E+03  0.00000000000E+00 0. -1.
         22    1    4    4    0    0 -0.20252527781E+01  0.12103914066E+02  0.19785745050E+01  0.12430653306E+02  0.00000000000E+00 0.  1.
         22    1    4    4    0    0 -0.64182647551E+01  0.13902077073E+02 -0.86340812080E-01  0.15312391197E+02  0.00000000000E+00 0.  1.
<mgrwt>
<rscale>  0 0.10182194E+03</rscale>
<asrwt>0</asrwt>
<pdfrwt beam="2">  1        1 0.24801355E-01 0.10182194E+03</pdfrwt>
<pdfrwt beam="1">  1       -1 0.24735495E-02 0.10182194E+03</pdfrwt>
<totfact> 0.84227196E+04</totfact>
</mgrwt>
</event>
<event>
 7    1  0.3345055E-009  0.9178291E+02  0.7818608E-02  0.1298591E+00
         -1   -1    0    0    0  501 -0.00000000000E+00  0.00000000000E+00  0.20519504865E+02  0.20519505484E+02  0.50400000000E-02 0.  1.
          1   -1    0    0  501    0  0.00000000000E+00 -0.00000000000E+00 -0.10263531328E+03  0.10263531341E+03  0.50400000000E-02 0. -1.
         23    2    1    2    0    0  0.00000000000E+00  0.00000000000E+00 -0.82115808417E+02  0.12315481889E+03  0.91782914661E+02 0.  0.
    9000005    2    3    3    0    0 -0.17578867873E+02 -0.40732439093E+02 -0.34102445297E+02  0.57783332534E+02  0.14414872644E+02 0.  0.
         22    1    3    3    0    0  0.17578867873E+02  0.40732439093E+02 -0.48013363119E+02  0.65371486355E+02  0.00000000000E+00 0. -1.
         22    1    4    4    0    0 -0.99909687081E+01 -0.35502067387E+02 -0.23483325069E+02  0.43722794979E+02  0.00000000000E+00 0. -1.
         22    1    4    4    0    0 -0.75878991654E+01 -0.52303717064E+01 -0.10619120228E+02  0.14060537556E+02  0.00000000000E+00 0. -1.
<mgrwt>
<rscale>  0 0.91782915E+02</rscale>
<asrwt>0</asrwt>
<pdfrwt beam="2">  1        1 0.15790048E-01 0.91782915E+02</pdfrwt>
<pdfrwt beam="1">  1       -1 0.31568470E-02 0.91782915E+02</pdfrwt>
<totfact> 0.10302702E+05</totfact>
</mgrwt>
</event>
<event>
 7    1  0.3345055E-009  0.7886408E+02  0.7818608E-02  0.1332306E+00
          1   -1    0    0  501    0  0.00000000000E+00  0.00000000000E+00  0.84930398016E+01  0.84930412970E+01  0.50400000000E-02 0. -1.
         -1   -1    0    0    0  501 -0.00000000000E+00 -0.00000000000E+00 -0.18307763172E+03  0.18307763179E+03  0.50400000000E-02 0.  1.
         23    2    1    2    0    0  0.00000000000E+00  0.00000000000E+00 -0.17458459192E+03  0.19157067308E+03  0.78864079601E+02 0.  0.
    9000005    2    3    3    0    0 -0.30051058152E+02  0.19371307429E+02 -0.47011662732E+02  0.59082311677E+02  0.15196949603E+01 0.  0.
         22    1    3    3    0    0  0.30051058152E+02 -0.19371307429E+02 -0.12757292918E+03  0.13248836141E+03  0.00000000000E+00 0. -1.
         22    1    4    4    0    0 -0.24096434128E+02  0.14977440529E+02 -0.36613407582E+02  0.46319579848E+02  0.00000000000E+00 0.  1.
         22    1    4    4    0    0 -0.59546240244E+01  0.43938668992E+01 -0.10398255149E+02  0.12762731829E+02  0.00000000000E+00 0.  1.
<mgrwt>
<rscale>  0 0.78864080E+02</rscale>
<asrwt>0</asrwt>
<pdfrwt beam="1">  1        1 0.13066218E-02 0.78864080E+02</pdfrwt>
<pdfrwt beam="2">  1       -1 0.28165787E-01 0.78864080E+02</pdfrwt>
<totfact> 0.10359887E+05</totfact>
</mgrwt>
</event>
<event>
 7    1  0.3345055E-009  0.9328776E+02  0.7818608E-02  0.1295080E+00
          1   -1    0    0  501    0  0.00000000000E+00  0.00000000000E+00  0.78268919838E+03  0.78268919840E+03  0.50400000000E-02 0. -1.
         -1   -1    0    0    0  501 -0.00000000000E+00 -0.00000000000E+00 -0.27797107307E+01  0.27797152998E+01  0.50400000000E-02 0.  1.
         23    2    1    2    0    0  0.00000000000E+00  0.17763568394E-14  0.77990948765E+03  0.78546891370E+03  0.93287756203E+02 0.  0.
    9000005    2    3    3    0    0  0.14311952147E+02  0.15362618490E+02  0.73986824779E+03  0.74025671500E+03  0.11581796077E+02 0.  0.
         22    1    3    3    0    0 -0.14311952147E+02 -0.15362618490E+02  0.40041239868E+02  0.45212198701E+02  0.00000000000E+00 0.  1.
         22    1    4    4    0    0  0.64238259474E+01  0.11116153497E+02  0.57656538493E+03  0.57670831233E+03  0.00000000000E+00 0.  1.
         22    1    4    4    0    0  0.78881262001E+01  0.42464649930E+01  0.16330286285E+03  0.16354840267E+03  0.00000000000E+00 0.  1.
<mgrwt>
<rscale>  0 0.93287756E+02</rscale>
<asrwt>0</asrwt>
<pdfrwt beam="1">  1        1 0.12041393E+00 0.93287756E+02</pdfrwt>
<pdfrwt beam="2">  1       -1 0.42764743E-03 0.93287756E+02</pdfrwt>
<totfact> 0.13322579E+05</totfact>
</mgrwt>
</event>
<event>
 7    1  0.3345055E-009  0.9047079E+02  0.7818608E-02  0.1301716E+00
          1   -1    0    0  501    0  0.00000000000E+00  0.00000000000E+00  0.13439827494E+02  0.13439828439E+02  0.50400000000E-02 0. -1.
         -1   -1    0    0    0  501 -0.00000000000E+00 -0.00000000000E+00 -0.15225200818E+03  0.15225200826E+03  0.50400000000E-02 0.  1.
         23    2    1    2    0    0  0.00000000000E+00  0.00000000000E+00 -0.13881218068E+03  0.16569183670E+03  0.90470786681E+02 0.  0.
    9000005    2    3    3    0    0  0.23113643764E+02 -0.14435804814E+02 -0.13497460471E+03  0.13817166268E+03  0.11429412198E+02 0.  0.
         22    1    3    3    0    0 -0.23113643764E+02  0.14435804814E+02 -0.38375759762E+01  0.27520174019E+02  0.00000000000E+00 0. -1.
         22    1    4    4    0    0  0.17238206284E+02 -0.10739411703E+02 -0.11947098970E+03  0.12118501599E+03  0.00000000000E+00 0.  1.
         22    1    4    4    0    0  0.58754374794E+01 -0.36963931106E+01 -0.15503615004E+02  0.16986646691E+02  0.00000000000E+00 0.  1.
<mgrwt>
<rscale>  0 0.90470787E+02</rscale>
<asrwt>0</asrwt>
<pdfrwt beam="1">  1        1 0.20676660E-02 0.90470787E+02</pdfrwt>
<pdfrwt beam="2">  1       -1 0.23423385E-01 0.90470787E+02</pdfrwt>
<totfact> 0.76044984E+04</totfact>
</mgrwt>
</event>
<event>
 7    1  0.3345055E-009  0.9227703E+02  0.7818608E-02  0.1297429E+00
          1   -1    0    0  501    0  0.00000000000E+00  0.00000000000E+00  0.31370569229E+03  0.31370569233E+03  0.50400000000E-02 0.  1.
         -1   -1    0    0    0  501 -0.00000000000E+00 -0.00000000000E+00 -0.67858585498E+01  0.67858604214E+01  0.50400000000E-02 0. -1.
         23    2    1    2    0    0  0.00000000000E+00  0.00000000000E+00  0.30691983374E+03  0.32049155275E+03  0.92277034208E+02 0.  0.
    9000005    2    3    3    0    0 -0.38904465999E+02 -0.13405169499E+02  0.22142906267E+03  0.22561306214E+03  0.13310445742E+02 0.  0.
         22    1    3    3    0    0  0.38904465999E+02  0.13405169499E+02  0.85490771065E+02  0.94878490615E+02  0.00000000000E+00 0. -1.
         22    1    4    4    0    0 -0.99235261991E+01 -0.13940516731E+01  0.86835182180E+02  0.87411490186E+02  0.00000000000E+00 0.  1.
         22    1    4    4    0    0 -0.28980939800E+02 -0.12011117826E+02  0.13459388049E+03  0.13820157195E+03  0.00000000000E+00 0.  1.
<mgrwt>
<rscale>  0 0.92277034E+02</rscale>
<asrwt>0</asrwt>
<pdfrwt beam="1">  1        1 0.48262416E-01 0.92277034E+02</pdfrwt>
<pdfrwt beam="2">  1       -1 0.10439783E-02 0.92277034E+02</pdfrwt>
<totfact> 0.12514326E+05</totfact>
</mgrwt>
</event>
<event>
 7    1  0.3345055E-009  0.9518853E+02  0.7818608E-02  0.1290752E+00
          1   -1    0    0  501    0  0.00000000000E+00  0.00000000000E+00  0.49910781168E+03  0.49910781170E+03  0.50400000000E-02 0. -1.
         -1   -1    0    0    0  501 -0.00000000000E+00 -0.00000000000E+00 -0.45385254091E+01  0.45385282075E+01  0.50400000000E-02 0.  1.
         23    2    1    2    0    0  0.00000000000E+00  0.00000000000E+00  0.49456928627E+03  0.50364633991E+03  0.95188532845E+02 0.  0.
    9000005    2    3    3    0    0  0.15415338367E+01  0.32512052835E+02  0.42993534781E+03  0.43127952495E+03  0.99103704948E+01 0.  0.
         22    1    3    3    0    0 -0.15415338367E+01 -0.32512052835E+02  0.64633938463E+02  0.72366814959E+02  0.00000000000E+00 0.  1.
         22    1    4    4    0    0  0.21480310768E+01  0.15673972248E+02  0.26893736806E+03  0.26940229284E+03  0.00000000000E+00 0. -1.
         22    1    4    4    0    0 -0.60649724013E+00  0.16838080587E+02  0.16099797974E+03  0.16187723212E+03  0.00000000000E+00 0. -1.
<mgrwt>
<rscale>  0 0.95188533E+02</rscale>
<asrwt>0</asrwt>
<pdfrwt beam="1">  1        1 0.76785853E-01 0.95188533E+02</pdfrwt>
<pdfrwt beam="2">  1       -1 0.69823457E-03 0.95188533E+02</pdfrwt>
<totfact> 0.12418618E+05</totfact>
</mgrwt>
</event>
<event>
 7    1  0.3345055E-009  0.8793135E+02  0.7818608E-02  0.1307940E+00
         -1   -1    0    0    0  501 -0.00000000000E+00  0.00000000000E+00  0.62514056229E+01  0.62514076546E+01  0.50400000000E-02 0.  1.
          1   -1    0    0  501    0  0.00000000000E+00 -0.00000000000E+00 -0.30920731520E+03  0.30920731524E+03  0.50400000000E-02 0. -1.
         23    2    1    2    0    0  0.44408920985E-15  0.00000000000E+00 -0.30295590957E+03  0.31545872289E+03  0.87931352220E+02 0.  0.
    9000005    2    3    3    0    0  0.38407717008E+01  0.28774176714E+02 -0.26816461809E+03  0.27014714892E+03  0.14983821301E+02 0.  0.
         22    1    3    3    0    0 -0.38407717008E+01 -0.28774176714E+02 -0.34791291484E+02  0.45311573974E+02  0.00000000000E+00 0.  1.
         22    1    4    4    0    0  0.77545126821E+01  0.26251928978E+02 -0.24460246117E+03  0.24612935675E+03  0.00000000000E+00 0.  1.
         22    1    4    4    0    0 -0.39137409813E+01  0.25222477362E+01 -0.23562156919E+02  0.24017792171E+02  0.00000000000E+00 0.  1.
<mgrwt>
<rscale>  0 0.87931352E+02</rscale>
<asrwt>0</asrwt>
<pdfrwt beam="2">  1        1 0.47570344E-01 0.87931352E+02</pdfrwt>
<pdfrwt beam="1">  1       -1 0.96175511E-03 0.87931352E+02</pdfrwt>
<totfact> 0.14188613E+05</totfact>
</mgrwt>
</event>
<event>
 7    1  0.3345055E-009  0.9140450E+02  0.7818608E-02  0.1299486E+00
          1   -1    0    0  501    0  0.00000000000E+00  0.00000000000E+00  0.48447056874E+03  0.48447056877E+03  0.50400000000E-02 0. -1.
         -1   -1    0    0    0  501 -0.00000000000E+00 -0.00000000000E+00 -0.43112941657E+01  0.43112971116E+01  0.50400000000E-02 0.  1.
         23    2    1    2    0    0  0.00000000000E+00 -0.35527136788E-14  0.48015927458E+03  0.48878186588E+03  0.91404504546E+02 0.  0.
    9000005    2    3    3    0    0 -0.10223662357E+02  0.26917910901E+02  0.42762745947E+03  0.42887620005E+03  0.15506569070E+02 0.  0.
         22    1    3    3    0    0  0.10223662357E+02 -0.26917910901E+02  0.52531815113E+02  0.59905665829E+02  0.00000000000E+00 0.  1.
         22    1    4    4    0    0 -0.76056338622E+01  0.12122568159E+02  0.11486757390E+03  0.11575561264E+03  0.00000000000E+00 0. -1.
         22    1    4    4    0    0 -0.26180284951E+01  0.14795342742E+02  0.31275988557E+03  0.31312058741E+03  0.00000000000E+00 0. -1.
<mgrwt>
<rscale>  0 0.91404505E+02</rscale>
<asrwt>0</asrwt>
<pdfrwt beam="1">  1        1 0.74533889E-01 0.91404505E+02</pdfrwt>
<pdfrwt beam="2">  1       -1 0.66327666E-03 0.91404505E+02</pdfrwt>
<totfact> 0.13781515E+05</totfact>
</mgrwt>
</event>
<event>
 7    1  0.3345055E-009  0.1061717E+03  0.7818608E-02  0.1267828E+00
          1   -1    0    0  501    0  0.00000000000E+00  0.00000000000E+00  0.45939773274E+03  0.45939773276E+03  0.50400000000E-02 0. -1.
         -1   -1    0    0    0  501 -0.00000000000E+00 -0.00000000000E+00 -0.61343568240E+01  0.61343588945E+01  0.50400000000E-02 0.  1.
         23    2    1    2    0    0  0.17763568394E-14  0.00000000000E+00  0.45326337591E+03  0.46553209166E+03  0.10617174963E+03 0.  0.
    9000005    2    3    3    0    0  0.88463800193E+01  0.42679793057E+02  0.35887608591E+03  0.36156679125E+03  0.62190290509E+01 0.  0.
         22    1    3    3    0    0 -0.88463800193E+01 -0.42679793057E+02  0.94387289999E+02  0.10396530040E+03  0.00000000000E+00 0.  1.
         22    1    4    4    0    0  0.24246559727E+01  0.24351663314E+02  0.18587074627E+03  0.18747484307E+03  0.00000000000E+00 0. -1.
         22    1    4    4    0    0  0.64217240467E+01  0.18328129743E+02  0.17300533964E+03  0.17409194819E+03  0.00000000000E+00 0. -1.
<mgrwt>
<rscale>  0 0.10617175E+03</rscale>
<asrwt>0</asrwt>
<pdfrwt beam="1">  1        1 0.70676604E-01 0.10617175E+03</pdfrwt>
<pdfrwt beam="2">  1       -1 0.94374696E-03 0.10617175E+03</pdfrwt>
<totfact> 0.91708755E+04</totfact>
</mgrwt>
</event>
<event>
 7    1  0.3345055E-009  0.8319849E+02  0.7818608E-02  0.1320212E+00
          1   -1    0    0  501    0  0.00000000000E+00  0.00000000000E+00  0.96446434428E+02  0.96446434560E+02  0.50400000000E-02 0. -1.
         -1   -1    0    0    0  501 -0.00000000000E+00 -0.00000000000E+00 -0.17942571243E+02  0.17942571951E+02  0.50400000000E-02 0.  1.
         23    2    1    2    0    0  0.00000000000E+00  0.00000000000E+00  0.78503863185E+02  0.11438900651E+03  0.83198487218E+02 0.  0.
    9000005    2    3    3    0    0  0.33856626499E+02 -0.22614030872E+02  0.34037407561E+02  0.54098615684E+02  0.10509498338E+02 0.  0.
         22    1    3    3    0    0 -0.33856626499E+02  0.22614030872E+02  0.44466455625E+02  0.60290390826E+02  0.00000000000E+00 0.  1.
         22    1    4    4    0    0  0.19119792900E+02 -0.12465197190E+02  0.25657173535E+02  0.34340037498E+02  0.00000000000E+00 0. -1.
         22    1    4    4    0    0  0.14736833599E+02 -0.10148833682E+02  0.83802340254E+01  0.19758578186E+02  0.00000000000E+00 0. -1.
<mgrwt>
<rscale>  0 0.83198487E+02</rscale>
<asrwt>0</asrwt>
<pdfrwt beam="1">  1        1 0.14837913E-01 0.83198487E+02</pdfrwt>
<pdfrwt beam="2">  1       -1 0.27603956E-02 0.83198487E+02</pdfrwt>
<totfact> 0.13308233E+05</totfact>
</mgrwt>
</event>
<event>
 7    1  0.3345055E-009  0.9063101E+02  0.7818608E-02  0.1301331E+00
         -1   -1    0    0    0  501 -0.00000000000E+00  0.00000000000E+00  0.91988998165E+02  0.91988998304E+02  0.50400000000E-02 0.  1.
          1   -1    0    0  501    0  0.00000000000E+00 -0.00000000000E+00 -0.22323264685E+02  0.22323265253E+02  0.50400000000E-02 0. -1.
         23    2    1    2    0    0  0.17763568394E-14 -0.35527136788E-14  0.69665733481E+02  0.11431226356E+03  0.90631005611E+02 0.  0.
    9000005    2    3    3    0    0 -0.15500473067E+02  0.18198188248E+02  0.82819215534E+02  0.87027600998E+02  0.11972558330E+02 0.  0.
         22    1    3    3    0    0  0.15500473067E+02 -0.18198188248E+02 -0.13153482053E+02  0.27284662559E+02  0.00000000000E+00 0. -1.
         22    1    4    4    0    0 -0.89252706567E-01  0.65962602687E+01  0.31944061113E+02  0.32618118523E+02  0.00000000000E+00 0.  1.
         22    1    4    4    0    0 -0.15411220361E+02  0.11601927979E+02  0.50875154421E+02  0.54409482475E+02  0.00000000000E+00 0.  1.
<mgrwt>
<rscale>  0 0.90631006E+02</rscale>
<asrwt>0</asrwt>
<pdfrwt beam="2">  1        1 0.34343485E-02 0.90631006E+02</pdfrwt>
<pdfrwt beam="1">  1       -1 0.14152154E-01 0.90631006E+02</pdfrwt>
<totfact> 0.83903602E+04</totfact>
</mgrwt>
</event>
<event>
 7    1  0.3345055E-009  0.9120289E+02  0.7818608E-02  0.1299965E+00
         -1   -1    0    0    0  501 -0.00000000000E+00  0.00000000000E+00  0.21536947622E+02  0.21536948211E+02  0.50400000000E-02 0.  1.
          1   -1    0    0  501    0  0.00000000000E+00 -0.00000000000E+00 -0.96554612210E+02  0.96554612342E+02  0.50400000000E-02 0. -1.
         23    2    1    2    0    0  0.00000000000E+00  0.00000000000E+00 -0.75017664589E+02  0.11809156055E+03  0.91202887419E+02 0.  0.
    9000005    2    3    3    0    0 -0.91793174824E+01 -0.20156175362E+02  0.13614587595E+02  0.26733980671E+02  0.62303653555E+01 0.  0.
         22    1    3    3    0    0  0.91793174824E+01  0.20156175362E+02 -0.88632252184E+02  0.91357579882E+02  0.00000000000E+00 0. -1.
         22    1    4    4    0    0 -0.45350197635E+01 -0.15909095366E+02  0.11274900627E+02  0.20019717874E+02  0.00000000000E+00 0.  1.
         22    1    4    4    0    0 -0.46442977189E+01 -0.42470799968E+01  0.23396869681E+01  0.67142627972E+01  0.00000000000E+00 0.  1.
<mgrwt>
<rscale>  0 0.91202887E+02</rscale>
<asrwt>0</asrwt>
<pdfrwt beam="2">  1        1 0.14854556E-01 0.91202887E+02</pdfrwt>
<pdfrwt beam="1">  1       -1 0.33133767E-02 0.91202887E+02</pdfrwt>
<totfact> 0.10376618E+05</totfact>
</mgrwt>
</event>
<event>
 7    1  0.3345055E-009  0.9200034E+02  0.7818608E-02  0.1298079E+00
         -1   -1    0    0    0  501 -0.00000000000E+00  0.00000000000E+00  0.19234967471E+01  0.19235033500E+01  0.50400000000E-02 0.  1.
          1   -1    0    0  501    0  0.00000000000E+00 -0.00000000000E+00 -0.11000860710E+04  0.11000860710E+04  0.50400000000E-02 0. -1.
         23    2    1    2    0    0  0.00000000000E+00  0.00000000000E+00 -0.10981625743E+04  0.11020095744E+04  0.92000339646E+02 0.  0.
    9000005    2    3    3    0    0 -0.23756215497E+02 -0.12910010177E+02 -0.99464833777E+03  0.99502255042E+03  0.36788418429E+01 0.  0.
         22    1    3    3    0    0  0.23756215497E+02  0.12910010177E+02 -0.10351423651E+03  0.10698702397E+03  0.00000000000E+00 0.  1.
         22    1    4    4    0    0 -0.43661075884E+01 -0.13529426408E+01 -0.13275255561E+03  0.13283122514E+03  0.00000000000E+00 0.  1.
         22    1    4    4    0    0 -0.19390107909E+02 -0.11557067536E+02 -0.86189578216E+03  0.86219132528E+03  0.00000000000E+00 0.  1.
<mgrwt>
<rscale>  0 0.92000340E+02</rscale>
<asrwt>0</asrwt>
<pdfrwt beam="2">  1        1 0.16924351E+00 0.92000340E+02</pdfrwt>
<pdfrwt beam="1">  1       -1 0.29592396E-03 0.92000340E+02</pdfrwt>
<totfact> 0.12889558E+05</totfact>
</mgrwt>
</event>
<event>
 7    1  0.3345055E-009  0.8917105E+02  0.7818608E-02  0.1304872E+00
         -1   -1    0    0    0  501 -0.00000000000E+00  0.00000000000E+00  0.31878629760E+01  0.31878669601E+01  0.50400000000E-02 0.  1.
          1   -1    0    0  501    0  0.00000000000E+00 -0.00000000000E+00 -0.62357384337E+03  0.62357384339E+03  0.50400000000E-02 0. -1.
         23    2    1    2    0    0  0.00000000000E+00  0.00000000000E+00 -0.62038598040E+03  0.62676171035E+03  0.89171054115E+02 0.  0.
    9000005    2    3    3    0    0 -0.36211300922E+02 -0.11385431669E+02 -0.47347209158E+03  0.47502319482E+03  0.55070630681E+01 0.  0.
         22    1    3    3    0    0  0.36211300922E+02  0.11385431669E+02 -0.14691388882E+03  0.15173851553E+03  0.00000000000E+00 0. -1.
         22    1    4    4    0    0 -0.63249746805E+01  0.13343807731E+00 -0.79176354885E+02  0.79428699368E+02  0.00000000000E+00 0. -1.
         22    1    4    4    0    0 -0.29886326242E+02 -0.11518869747E+02 -0.39429573669E+03  0.39559449545E+03  0.00000000000E+00 0. -1.
<mgrwt>
<rscale>  0 0.89171054E+02</rscale>
<asrwt>0</asrwt>
<pdfrwt beam="2">  1        1 0.95934341E-01 0.89171054E+02</pdfrwt>
<pdfrwt beam="1">  1       -1 0.49044126E-03 0.89171054E+02</pdfrwt>
<totfact> 0.15046271E+05</totfact>
</mgrwt>
</event>
<event>
 7    1  0.3345055E-009  0.9344256E+02  0.7818608E-02  0.1294723E+00
          1   -1    0    0  501    0  0.00000000000E+00  0.00000000000E+00  0.15826033018E+03  0.15826033026E+03  0.50400000000E-02 0. -1.
         -1   -1    0    0    0  501 -0.00000000000E+00 -0.00000000000E+00 -0.13792957778E+02  0.13792958699E+02  0.50400000000E-02 0.  1.
         23    2    1    2    0    0  0.00000000000E+00 -0.71054273576E-14  0.14446737240E+03  0.17205328896E+03  0.93442562854E+02 0.  0.
    9000005    2    3    3    0    0 -0.19166292710E+02 -0.40655462747E+02  0.95522287475E+02  0.10560154131E+03  0.26390707907E+01 0.  0.
         22    1    3    3    0    0  0.19166292710E+02  0.40655462747E+02  0.48945084926E+02  0.66451747651E+02  0.00000000000E+00 0.  1.
         22    1    4    4    0    0 -0.45637627545E+01 -0.12411902627E+02  0.28757406791E+02  0.31652356984E+02  0.00000000000E+00 0.  1.
         22    1    4    4    0    0 -0.14602529955E+02 -0.28243560120E+02  0.66764880683E+02  0.73949184323E+02  0.00000000000E+00 0.  1.
<mgrwt>
<rscale>  0 0.93442563E+02</rscale>
<asrwt>0</asrwt>
<pdfrwt beam="1">  1        1 0.24347745E-01 0.93442563E+02</pdfrwt>
<pdfrwt beam="2">  1       -1 0.21219934E-02 0.93442563E+02</pdfrwt>
<totfact> 0.10598574E+05</totfact>
</mgrwt>
</event>
<event>
 7    1  0.3345055E-009  0.8990610E+02  0.7818608E-02  0.1303079E+00
          1   -1    0    0  501    0  0.00000000000E+00  0.00000000000E+00  0.10829999233E+02  0.10830000406E+02  0.50400000000E-02 0. -1.
         -1   -1    0    0    0  501 -0.00000000000E+00 -0.00000000000E+00 -0.18659064672E+03  0.18659064679E+03  0.50400000000E-02 0.  1.
         23    2    1    2    0    0  0.00000000000E+00 -0.35527136788E-14 -0.17576064749E+03  0.19742064719E+03  0.89906099533E+02 0.  0.
    9000005    2    3    3    0    0 -0.15135755009E+02 -0.29613387672E+02 -0.22143809345E+02  0.40245023225E+02  0.48238773765E+01 0.  0.
         22    1    3    3    0    0  0.15135755009E+02  0.29613387672E+02 -0.15361683814E+03  0.15717562397E+03  0.00000000000E+00 0.  1.
         22    1    4    4    0    0 -0.64650656825E+01 -0.16484315306E+02 -0.97326167970E+01  0.20205285326E+02  0.00000000000E+00 0. -1.
         22    1    4    4    0    0 -0.86706893269E+01 -0.13129072367E+02 -0.12411192548E+02  0.20039737900E+02  0.00000000000E+00 0. -1.
<mgrwt>
<rscale>  0 0.89906100E+02</rscale>
<asrwt>0</asrwt>
<pdfrwt beam="1">  1        1 0.16661540E-02 0.89906100E+02</pdfrwt>
<pdfrwt beam="2">  1       -1 0.28706251E-01 0.89906100E+02</pdfrwt>
<totfact> 0.73413139E+04</totfact>
</mgrwt>
</event>
<event>
 7    1  0.3345055E-009  0.9219193E+02  0.7818608E-02  0.1297629E+00
         -1   -1    0    0    0  501 -0.00000000000E+00  0.00000000000E+00  0.67965927443E+02  0.67965927629E+02  0.50400000000E-02 0.  1.
          1   -1    0    0  501    0  0.00000000000E+00 -0.00000000000E+00 -0.31263280490E+02  0.31263280897E+02  0.50400000000E-02 0. -1.
         23    2    1    2    0    0  0.35527136788E-14  0.00000000000E+00  0.36702646952E+02  0.99229208526E+02  0.92191927691E+02 0.  0.
    9000005    2    3    3    0    0 -0.30693389997E+02 -0.61290870734E+01  0.53378342548E+02  0.63764737270E+02  0.15396245260E+02 0.  0.
         22    1    3    3    0    0  0.30693389997E+02  0.61290870734E+01 -0.16675695596E+02  0.35464471256E+02  0.00000000000E+00 0. -1.
         22    1    4    4    0    0 -0.32049256851E+02 -0.43010107151E+01  0.47509807095E+02  0.57470299530E+02  0.00000000000E+00 0. -1.
         22    1    4    4    0    0  0.13558668542E+01 -0.18280763583E+01  0.58685354532E+01  0.62944377401E+01  0.00000000000E+00 0. -1.
<mgrwt>
<rscale>  0 0.92191928E+02</rscale>
<asrwt>0</asrwt>
<pdfrwt beam="2">  1        1 0.48097355E-02 0.92191928E+02</pdfrwt>
<pdfrwt beam="1">  1       -1 0.10456297E-01 0.92191928E+02</pdfrwt>
<totfact> 0.84531097E+04</totfact>
</mgrwt>
</event>
<event>
 7    1  0.3345055E-009  0.9193347E+02  0.7818608E-02  0.1298236E+00
          1   -1    0    0  501    0  0.00000000000E+00  0.00000000000E+00  0.77168127943E+02  0.77168128108E+02  0.50400000000E-02 0. -1.
         -1   -1    0    0    0  501 -0.00000000000E+00 -0.00000000000E+00 -0.27381000831E+02  0.27381001295E+02  0.50400000000E-02 0.  1.
         23    2    1    2    0    0  0.00000000000E+00  0.00000000000E+00  0.49787127112E+02  0.10454912940E+03  0.91933467425E+02 0.  0.
    9000005    2    3    3    0    0  0.28127241130E+02  0.61834542897E+01 -0.15418254793E+02  0.33267163731E+02  0.62932345650E+01 0.  0.
         22    1    3    3    0    0 -0.28127241130E+02 -0.61834542897E+01  0.65205381905E+02  0.71281965671E+02  0.00000000000E+00 0. -1.
         22    1    4    4    0    0  0.23624203499E+02  0.30595177599E+01 -0.13899573875E+02  0.27580097784E+02  0.00000000000E+00 0.  1.
         22    1    4    4    0    0  0.45030376313E+01  0.31239365298E+01 -0.15186809178E+01  0.56870659466E+01  0.00000000000E+00 0.  1.
<mgrwt>
<rscale>  0 0.91933467E+02</rscale>
<asrwt>0</asrwt>
<pdfrwt beam="1">  1        1 0.11872020E-01 0.91933467E+02</pdfrwt>
<pdfrwt beam="2">  1       -1 0.42124618E-02 0.91933467E+02</pdfrwt>
<totfact> 0.97921887E+04</totfact>
</mgrwt>
</event>
<event>
 7    1  0.3345055E-009  0.9567738E+02  0.7818608E-02  0.1289658E+00
         -1   -1    0    0    0  501 -0.00000000000E+00  0.00000000000E+00  0.73257283817E+01  0.73257301154E+01  0.50400000000E-02 0.  1.
          1   -1    0    0  501    0  0.00000000000E+00 -0.00000000000E+00 -0.31239757703E+03  0.31239757707E+03  0.50400000000E-02 0. -1.
         23    2    1    2    0    0  0.00000000000E+00 -0.71054273576E-14 -0.30507184865E+03  0.31972330719E+03  0.95677376220E+02 0.  0.
    9000005    2    3    3    0    0 -0.15726829529E+02 -0.34774454216E+02 -0.24841558287E+03  0.25141131493E+03  0.63837005896E+01 0.  0.
         22    1    3    3    0    0  0.15726829529E+02  0.34774454216E+02 -0.56656265782E+02  0.68311992252E+02  0.00000000000E+00 0.  1.
         22    1    4    4    0    0 -0.93478413486E+01 -0.26709040477E+02 -0.19042552058E+03  0.19251658076E+03  0.00000000000E+00 0. -1.
         22    1    4    4    0    0 -0.63789881803E+01 -0.80654137382E+01 -0.57990062290E+02  0.58894734173E+02  0.00000000000E+00 0. -1.
<mgrwt>
<rscale>  0 0.95677376E+02</rscale>
<asrwt>0</asrwt>
<pdfrwt beam="2">  1        1 0.48061156E-01 0.95677376E+02</pdfrwt>
<pdfrwt beam="1">  1       -1 0.11270355E-02 0.95677376E+02</pdfrwt>
<totfact> 0.11351739E+05</totfact>
</mgrwt>
</event>
<event>
 7    1  0.3345055E-009  0.9002060E+02  0.7818608E-02  0.1302802E+00
         -1   -1    0    0    0  501 -0.00000000000E+00  0.00000000000E+00  0.36144835374E+01  0.36144870513E+01  0.50400000000E-02 0.  1.
          1   -1    0    0  501    0  0.00000000000E+00 -0.00000000000E+00 -0.56050224718E+03  0.56050224720E+03  0.50400000000E-02 0. -1.
         23    2    1    2    0    0  0.17763568394E-14  0.00000000000E+00 -0.55688776364E+03  0.56411673425E+03  0.90020600811E+02 0.  0.
    9000005    2    3    3    0    0  0.11520403089E+02  0.36050661398E+02 -0.42461836016E+03  0.42653924709E+03  0.14234031583E+02 0.  0.
         22    1    3    3    0    0 -0.11520403089E+02 -0.36050661398E+02 -0.13226940348E+03  0.13757748716E+03  0.00000000000E+00 0.  1.
         22    1    4    4    0    0  0.14463229680E+02  0.33651084710E+02 -0.38743415847E+03  0.38916167291E+03  0.00000000000E+00 0.  1.
         22    1    4    4    0    0 -0.29428265905E+01  0.23995766876E+01 -0.37184201688E+02  0.37377574183E+02  0.00000000000E+00 0.  1.
<mgrwt>
<rscale>  0 0.90020601E+02</rscale>
<asrwt>0</asrwt>
<pdfrwt beam="2">  1        1 0.86231046E-01 0.90020601E+02</pdfrwt>
<pdfrwt beam="1">  1       -1 0.55607511E-03 0.90020601E+02</pdfrwt>
<totfact> 0.14573101E+05</totfact>
</mgrwt>
</event>
<event>
 7    1  0.3345055E-009  0.9069297E+02  0.7818608E-02  0.1301182E+00
          1   -1    0    0  501    0  0.00000000000E+00  0.00000000000E+00  0.18228871105E+02  0.18228871802E+02  0.50400000000E-02 0. -1.
         -1   -1    0    0    0  501 -0.00000000000E+00 -0.00000000000E+00 -0.11280478419E+03  0.11280478430E+03  0.50400000000E-02 0.  1.
         23    2    1    2    0    0  0.00000000000E+00 -0.17763568394E-14 -0.94575913081E+02  0.13103365610E+03  0.90692974898E+02 0.  0.
    9000005    2    3    3    0    0 -0.20417354882E+02  0.81629020336E+01  0.94651714564E+01  0.24694347180E+02  0.60596998226E+01 0.  0.
         22    1    3    3    0    0  0.20417354882E+02 -0.81629020336E+01 -0.10404108454E+03  0.10633930892E+03  0.00000000000E+00 0.  1.
         22    1    4    4    0    0 -0.15785837391E+02  0.35681296026E+01  0.77757859147E+01  0.17955140144E+02  0.00000000000E+00 0. -1.
         22    1    4    4    0    0 -0.46315174911E+01  0.45947724310E+01  0.16893855417E+01  0.67392070358E+01  0.00000000000E+00 0. -1.
<mgrwt>
<rscale>  0 0.90692975E+02</rscale>
<asrwt>0</asrwt>
<pdfrwt beam="1">  1        1 0.28044418E-02 0.90692975E+02</pdfrwt>
<pdfrwt beam="2">  1       -1 0.17354582E-01 0.90692975E+02</pdfrwt>
<totfact> 0.80612464E+04</totfact>
</mgrwt>
</event>
<event>
 7    1  0.3345055E-009  0.9311714E+02  0.7818608E-02  0.1295474E+00
          1   -1    0    0  501    0  0.00000000000E+00  0.00000000000E+00  0.10549689096E+02  0.10549690300E+02  0.50400000000E-02 0. -1.
         -1   -1    0    0    0  501 -0.00000000000E+00 -0.00000000000E+00 -0.20547526131E+03  0.20547526137E+03  0.50400000000E-02 0.  1.
         23    2    1    2    0    0  0.35527136788E-14  0.71054273576E-14 -0.19492557221E+03  0.21602495167E+03  0.93117136134E+02 0.  0.
    9000005    2    3    3    0    0  0.18697699731E+02  0.41373627443E+02 -0.88975721729E+02  0.10075677809E+03  0.13185911076E+02 0.  0.
         22    1    3    3    0    0 -0.18697699731E+02 -0.41373627443E+02 -0.10594985048E+03  0.11526817358E+03  0.00000000000E+00 0.  1.
         22    1    4    4    0    0  0.16685720845E+02  0.25458132378E+02 -0.66581911572E+02  0.73209840410E+02  0.00000000000E+00 0. -1.
         22    1    4    4    0    0  0.20119788868E+01  0.15915495066E+02 -0.22393810157E+02  0.27546937680E+02  0.00000000000E+00 0. -1.
<mgrwt>
<rscale>  0 0.93117136E+02</rscale>
<asrwt>0</asrwt>
<pdfrwt beam="1">  1        1 0.16230293E-02 0.93117136E+02</pdfrwt>
<pdfrwt beam="2">  1       -1 0.31611576E-01 0.93117136E+02</pdfrwt>
<totfact> 0.65201345E+04</totfact>
</mgrwt>
</event>
<event>
 7    1  0.3345055E-009  0.8902178E+02  0.7818608E-02  0.1305238E+00
          1   -1    0    0  501    0  0.00000000000E+00  0.00000000000E+00  0.44786225136E+01  0.44786253495E+01  0.50400000000E-02 0. -1.
         -1   -1    0    0    0  501 -0.00000000000E+00 -0.00000000000E+00 -0.44237235723E+03  0.44237235726E+03  0.50400000000E-02 0.  1.
         23    2    1    2    0    0 -0.71054273576E-14 -0.35527136788E-14 -0.43789373471E+03  0.44685098261E+03  0.89021782469E+02 0.  0.
    9000005    2    3    3    0    0  0.36121782601E+02 -0.23394080405E+02 -0.25221621193E+03  0.25625137966E+03  0.14131024047E+02 0.  0.
         22    1    3    3    0    0 -0.36121782601E+02  0.23394080405E+02 -0.18567752278E+03  0.19059960295E+03  0.00000000000E+00 0. -1.
         22    1    4    4    0    0  0.33045759493E+02 -0.23944457871E+02 -0.24517282944E+03  0.24854592248E+03  0.00000000000E+00 0.  1.
         22    1    4    4    0    0  0.30760231081E+01  0.55037746619E+00 -0.70433824877E+01  0.77054571821E+01  0.00000000000E+00 0.  1.
<mgrwt>
<rscale>  0 0.89021782E+02</rscale>
<asrwt>0</asrwt>
<pdfrwt beam="1">  1        1 0.68901942E-03 0.89021782E+02</pdfrwt>
<pdfrwt beam="2">  1       -1 0.68057251E-01 0.89021782E+02</pdfrwt>
<totfact> 0.53794649E+04</totfact>
</mgrwt>
</event>
<event>
 7    1  0.3345055E-009  0.9095373E+02  0.7818608E-02  0.1300558E+00
          1   -1    0    0  501    0  0.00000000000E+00  0.00000000000E+00  0.11394947114E+03  0.11394947125E+03  0.50400000000E-02 0. -1.
         -1   -1    0    0    0  501 -0.00000000000E+00 -0.00000000000E+00 -0.18149667519E+02  0.18149668219E+02  0.50400000000E-02 0.  1.
         23    2    1    2    0    0  0.00000000000E+00  0.00000000000E+00  0.95799803617E+02  0.13209913947E+03  0.90953726007E+02 0.  0.
    9000005    2    3    3    0    0  0.80782086940E+01  0.39471734967E+02  0.77929518356E+02  0.88023949026E+02  0.72062787783E+01 0.  0.
         22    1    3    3    0    0 -0.80782086940E+01 -0.39471734967E+02  0.17870285261E+02  0.44075190440E+02  0.00000000000E+00 0.  1.
         22    1    4    4    0    0  0.77332462870E+01  0.30534928185E+02  0.54534548824E+02  0.62977789361E+02  0.00000000000E+00 0. -1.
         22    1    4    4    0    0  0.34496240703E+00  0.89368067825E+01  0.23394969532E+02  0.25046159665E+02  0.00000000000E+00 0. -1.
<mgrwt>
<rscale>  0 0.90953726E+02</rscale>
<asrwt>0</asrwt>
<pdfrwt beam="1">  1        1 0.17530688E-01 0.90953726E+02</pdfrwt>
<pdfrwt beam="2">  1       -1 0.27922566E-02 0.90953726E+02</pdfrwt>
<totfact> 0.10749387E+05</totfact>
</mgrwt>
</event>
<event>
 7    1  0.3345055E-009  0.9169561E+02  0.7818608E-02  0.1298797E+00
          1   -1    0    0  501    0  0.00000000000E+00  0.00000000000E+00  0.10017439558E+03  0.10017439570E+03  0.50400000000E-02 0. -1.
         -1   -1    0    0    0  501 -0.00000000000E+00 -0.00000000000E+00 -0.20983615279E+02  0.20983615884E+02  0.50400000000E-02 0.  1.
         23    2    1    2    0    0  0.00000000000E+00  0.00000000000E+00  0.79190780299E+02  0.12115801159E+03  0.91695605608E+02 0.  0.
    9000005    2    3    3    0    0 -0.26375502957E+02 -0.99208602378E+01  0.86912943195E+02  0.91939482812E+02  0.10242957621E+02 0.  0.
         22    1    3    3    0    0  0.26375502957E+02  0.99208602378E+01 -0.77221628964E+01  0.29218528777E+02  0.00000000000E+00 0.  1.
         22    1    4    4    0    0 -0.15065903717E+02 -0.25012829989E+01  0.58662114133E+02  0.60617501648E+02  0.00000000000E+00 0. -1.
         22    1    4    4    0    0 -0.11309599239E+02 -0.74195772389E+01  0.28250829062E+02  0.31321981165E+02  0.00000000000E+00 0. -1.
<mgrwt>
<rscale>  0 0.91695606E+02</rscale>
<asrwt>0</asrwt>
<pdfrwt beam="1">  1        1 0.15411446E-01 0.91695606E+02</pdfrwt>
<pdfrwt beam="2">  1       -1 0.32282485E-02 0.91695606E+02</pdfrwt>
<totfact> 0.10287645E+05</totfact>
</mgrwt>
</event>
<event>
 7    1  0.3345055E-009  0.1064553E+03  0.7818608E-02  0.1267279E+00
         -1   -1    0    0    0  501 -0.00000000000E+00  0.00000000000E+00  0.10506595142E+02  0.10506596351E+02  0.50400000000E-02 0.  1.
          1   -1    0    0  501    0  0.00000000000E+00 -0.00000000000E+00 -0.26965737550E+03  0.26965737554E+03  0.50400000000E-02 0. -1.
         23    2    1    2    0    0  0.71054273576E-14  0.00000000000E+00 -0.25915078035E+03  0.28016397189E+03  0.10645526849E+03 0.  0.
    9000005    2    3    3    0    0  0.47264632277E+02 -0.88639732781E+01 -0.70991889727E+02  0.85957165606E+02  0.60224932900E+01 0.  0.
         22    1    3    3    0    0 -0.47264632277E+02  0.88639732781E+01 -0.18815889063E+03  0.19420680629E+03  0.00000000000E+00 0. -1.
         22    1    4    4    0    0  0.17910848445E+02 -0.32308381348E+01 -0.32178924413E+02  0.36969176126E+02  0.00000000000E+00 0. -1.
         22    1    4    4    0    0  0.29353783832E+02 -0.56331351433E+01 -0.38812965314E+02  0.48987989480E+02  0.00000000000E+00 0. -1.
<mgrwt>
<rscale>  0 0.10645527E+03</rscale>
<asrwt>0</asrwt>
<pdfrwt beam="2">  1        1 0.41485745E-01 0.10645527E+03</pdfrwt>
<pdfrwt beam="1">  1       -1 0.16163995E-02 0.10645527E+03</pdfrwt>
<totfact> 0.82718826E+04</totfact>
</mgrwt>
</event>
<event>
 7    1  0.3345055E-009  0.9047621E+02  0.7818608E-02  0.1301703E+00
          1   -1    0    0  501    0  0.00000000000E+00  0.00000000000E+00  0.53397591634E+02  0.53397591872E+02  0.50400000000E-02 0. -1.
         -1   -1    0    0    0  501 -0.00000000000E+00 -0.00000000000E+00 -0.38325441688E+02  0.38325442019E+02  0.50400000000E-02 0.  1.
         23    2    1    2    0    0 -0.35527136788E-14  0.17763568394E-14  0.15072149947E+02  0.91723033892E+02  0.90476213682E+02 0.  0.
    9000005    2    3    3    0    0  0.31897406352E+02 -0.87390232485E+01 -0.22740673747E+02  0.41487342446E+02  0.10499822924E+02 0.  0.
         22    1    3    3    0    0 -0.31897406352E+02  0.87390232485E+01  0.37812823694E+02  0.50235691446E+02  0.00000000000E+00 0. -1.
         22    1    4    4    0    0  0.20658995331E+02 -0.46410572502E+01 -0.83171996691E+01  0.22748830977E+02  0.00000000000E+00 0. -1.
         22    1    4    4    0    0  0.11238411022E+02 -0.40979659982E+01 -0.14423474078E+02  0.18738511469E+02  0.00000000000E+00 0. -1.
<mgrwt>
<rscale>  0 0.90476214E+02</rscale>
<asrwt>0</asrwt>
<pdfrwt beam="1">  1        1 0.82150141E-02 0.90476214E+02</pdfrwt>
<pdfrwt beam="2">  1       -1 0.58962218E-02 0.90476214E+02</pdfrwt>
<totfact> 0.96748969E+04</totfact>
</mgrwt>
</event>
<event>
 7    1  0.3345055E-009  0.9061675E+02  0.7818608E-02  0.1301365E+00
          1   -1    0    0  501    0  0.00000000000E+00  0.00000000000E+00  0.33287479239E+03  0.33287479243E+03  0.50400000000E-02 0. -1.
         -1   -1    0    0    0  501 -0.00000000000E+00 -0.00000000000E+00 -0.61670291752E+01  0.61670312346E+01  0.50400000000E-02 0.  1.
         23    2    1    2    0    0  0.00000000000E+00  0.22204460493E-15  0.32670776322E+03  0.33904182367E+03  0.90616751475E+02 0.  0.
    9000005    2    3    3    0    0 -0.43891580956E+02 -0.19157976509E+01  0.18345478546E+03  0.18920338802E+03  0.14564428295E+02 0.  0.
         22    1    3    3    0    0  0.43891580956E+02  0.19157976509E+01  0.14325297776E+03  0.14983843564E+03  0.00000000000E+00 0.  1.
         22    1    4    4    0    0 -0.97868699939E+01 -0.32882948872E+01  0.68981101282E+02  0.69749466246E+02  0.00000000000E+00 0. -1.
         22    1    4    4    0    0 -0.34104710963E+02  0.13724972363E+01  0.11447368418E+03  0.11945392178E+03  0.00000000000E+00 0. -1.
<mgrwt>
<rscale>  0 0.90616751E+02</rscale>
<asrwt>0</asrwt>
<pdfrwt beam="1">  1        1 0.51211508E-01 0.90616751E+02</pdfrwt>
<pdfrwt beam="2">  1       -1 0.94877385E-03 0.90616751E+02</pdfrwt>
<totfact> 0.13279929E+05</totfact>
</mgrwt>
</event>
<event>
 7    1  0.3345055E-009  0.8835778E+02  0.7818608E-02  0.1306878E+00
          1   -1    0    0  501    0  0.00000000000E+00  0.00000000000E+00  0.13712336319E+03  0.13712336328E+03  0.50400000000E-02 0. -1.
         -1   -1    0    0    0  501 -0.00000000000E+00 -0.00000000000E+00 -0.14233711053E+02  0.14233711945E+02  0.50400000000E-02 0.  1.
         23    2    1    2    0    0  0.00000000000E+00  0.00000000000E+00  0.12288965214E+03  0.15135707523E+03  0.88357781881E+02 0.  0.
    9000005    2    3    3    0    0  0.11103397773E+02 -0.42578989628E+02  0.55418599046E+02  0.70805235987E+02  0.24299224439E+01 0.  0.
         22    1    3    3    0    0 -0.11103397773E+02  0.42578989628E+02  0.67471053091E+02  0.80551839241E+02  0.00000000000E+00 0. -1.
         22    1    4    4    0    0  0.34182357643E+01 -0.92503274319E+01  0.11960563270E+02  0.15501869793E+02  0.00000000000E+00 0.  1.
         22    1    4    4    0    0  0.76851620086E+01 -0.33328662196E+02  0.43458035776E+02  0.55303366194E+02  0.00000000000E+00 0.  1.
<mgrwt>
<rscale>  0 0.88357782E+02</rscale>
<asrwt>0</asrwt>
<pdfrwt beam="1">  1        1 0.21095902E-01 0.88357782E+02</pdfrwt>
<pdfrwt beam="2">  1       -1 0.21898018E-02 0.88357782E+02</pdfrwt>
<totfact> 0.12006401E+05</totfact>
</mgrwt>
</event>
<event>
 7    1  0.3345055E-009  0.9086239E+02  0.7818608E-02  0.1300777E+00
         -1   -1    0    0    0  501 -0.00000000000E+00  0.00000000000E+00  0.53460933806E+02  0.53460934044E+02  0.50400000000E-02 0.  1.
          1   -1    0    0  501    0  0.00000000000E+00 -0.00000000000E+00 -0.38607508649E+02  0.38607508978E+02  0.50400000000E-02 0. -1.
         23    2    1    2    0    0  0.00000000000E+00  0.00000000000E+00  0.14853425157E+02  0.92068443022E+02  0.90862390248E+02 0.  0.
    9000005    2    3    3    0    0 -0.26300713984E+02 -0.26646585954E+02  0.31232503614E+02  0.51202291868E+02  0.15634491083E+02 0.  0.
         22    1    3    3    0    0  0.26300713984E+02  0.26646585954E+02 -0.16379078457E+02  0.40866151155E+02  0.00000000000E+00 0. -1.
         22    1    4    4    0    0  0.94800105469E+00  0.12491052091E+01  0.99836554325E+00  0.18589522804E+01  0.00000000000E+00 0. -1.
         22    1    4    4    0    0 -0.27248715039E+02 -0.27895691163E+02  0.30234138071E+02  0.49343339587E+02  0.00000000000E+00 0. -1.
<mgrwt>
<rscale>  0 0.90862390E+02</rscale>
<asrwt>0</asrwt>
<pdfrwt beam="2">  1        1 0.59396168E-02 0.90862390E+02</pdfrwt>
<pdfrwt beam="1">  1       -1 0.82247591E-02 0.90862390E+02</pdfrwt>
<totfact> 0.91061211E+04</totfact>
</mgrwt>
</event>
<event>
 7    1  0.3345055E-009  0.9067913E+02  0.7818608E-02  0.1301215E+00
         -1   -1    0    0    0  501 -0.00000000000E+00  0.00000000000E+00  0.27649525628E+03  0.27649525632E+03  0.50400000000E-02 0.  1.
          1   -1    0    0  501    0  0.00000000000E+00 -0.00000000000E+00 -0.74347606911E+01  0.74347623994E+01  0.50400000000E-02 0. -1.
         23    2    1    2    0    0  0.00000000000E+00  0.00000000000E+00  0.26906049559E+03  0.28393001872E+03  0.90679133469E+02 0.  0.
    9000005    2    3    3    0    0  0.10705510452E+02 -0.37072448218E+02  0.20673977324E+03  0.21063031337E+03  0.11611231648E+02 0.  0.
         22    1    3    3    0    0 -0.10705510452E+02  0.37072448218E+02  0.62320722345E+02  0.73299705351E+02  0.00000000000E+00 0. -1.
         22    1    4    4    0    0 -0.91447978573E+00 -0.16436042646E+02  0.93901225405E+02  0.95333204623E+02  0.00000000000E+00 0.  1.
         22    1    4    4    0    0  0.11619990237E+02 -0.20636405572E+02  0.11283854783E+03  0.11529710875E+03  0.00000000000E+00 0.  1.
<mgrwt>
<rscale>  0 0.90679133E+02</rscale>
<asrwt>0</asrwt>
<pdfrwt beam="2">  1        1 0.11438093E-02 0.90679133E+02</pdfrwt>
<pdfrwt beam="1">  1       -1 0.42537737E-01 0.90679133E+02</pdfrwt>
<totfact> 0.63398626E+04</totfact>
</mgrwt>
</event>
<event>
 7    1  0.3345055E-009  0.9094119E+02  0.7818608E-02  0.1300588E+00
          1   -1    0    0  501    0  0.00000000000E+00  0.00000000000E+00  0.79171382429E+02  0.79171382589E+02  0.50400000000E-02 0. -1.
         -1   -1    0    0    0  501 -0.00000000000E+00 -0.00000000000E+00 -0.26115182963E+02  0.26115183449E+02  0.50400000000E-02 0.  1.
         23    2    1    2    0    0  0.00000000000E+00  0.00000000000E+00  0.53056199466E+02  0.10528656604E+03  0.90941193561E+02 0.  0.
    9000005    2    3    3    0    0  0.16522762988E+02 -0.41418549973E+02  0.29864632669E+02  0.55023789065E+02  0.12133552651E+02 0.  0.
         22    1    3    3    0    0 -0.16522762988E+02  0.41418549973E+02  0.23191566797E+02  0.50262776974E+02  0.00000000000E+00 0. -1.
         22    1    4    4    0    0  0.14116761140E+02 -0.19322852662E+02  0.16851250163E+02  0.29268074965E+02  0.00000000000E+00 0. -1.
         22    1    4    4    0    0  0.24060018479E+01 -0.22095697310E+02  0.13013382506E+02  0.25755714100E+02  0.00000000000E+00 0. -1.
<mgrwt>
<rscale>  0 0.90941194E+02</rscale>
<asrwt>0</asrwt>
<pdfrwt beam="1">  1        1 0.12180213E-01 0.90941194E+02</pdfrwt>
<pdfrwt beam="2">  1       -1 0.40177205E-02 0.90941194E+02</pdfrwt>
<totfact> 0.10129617E+05</totfact>
</mgrwt>
</event>
<event>
 7    1  0.3345055E-009  0.9453262E+02  0.7818608E-02  0.1292232E+00
         -1   -1    0    0    0  501 -0.00000000000E+00  0.00000000000E+00  0.70478941189E+01  0.70478959210E+01  0.50400000000E-02 0.  1.
          1   -1    0    0  501    0  0.00000000000E+00 -0.00000000000E+00 -0.31698880877E+03  0.31698880881E+03  0.50400000000E-02 0. -1.
         23    2    1    2    0    0  0.00000000000E+00 -0.17763568394E-14 -0.30994091465E+03  0.32403670473E+03  0.94532615738E+02 0.  0.
    9000005    2    3    3    0    0 -0.60088636668E+01  0.14050172535E+02 -0.30809607835E+03  0.30864458948E+03  0.10235982210E+02 0.  0.
         22    1    3    3    0    0  0.60088636668E+01 -0.14050172535E+02 -0.18448363012E+01  0.15392115248E+02  0.00000000000E+00 0.  1.
         22    1    4    4    0    0 -0.67221572846E+01  0.11794304356E+02 -0.17439538587E+03  0.17492296484E+03  0.00000000000E+00 0.  1.
         22    1    4    4    0    0  0.71329361785E+00  0.22558681790E+01 -0.13370069248E+03  0.13372162465E+03  0.00000000000E+00 0.  1.
<mgrwt>
<rscale>  0 0.94532616E+02</rscale>
<asrwt>0</asrwt>
<pdfrwt beam="2">  1        1 0.48767498E-01 0.94532616E+02</pdfrwt>
<pdfrwt beam="1">  1       -1 0.10842918E-02 0.94532616E+02</pdfrwt>
<totfact> 0.11755687E+05</totfact>
</mgrwt>
</event>
<event>
 7    1  0.3345055E-009  0.8948807E+02  0.7818608E-02  0.1304096E+00
         -1   -1    0    0    0  501 -0.00000000000E+00  0.00000000000E+00  0.57227746430E+01  0.57227768623E+01  0.50400000000E-02 0.  1.
          1   -1    0    0  501    0  0.00000000000E+00 -0.00000000000E+00 -0.34983526731E+03  0.34983526735E+03  0.50400000000E-02 0. -1.
         23    2    1    2    0    0  0.00000000000E+00  0.00000000000E+00 -0.34411249267E+03  0.35555804421E+03  0.89488072903E+02 0.  0.
    9000005    2    3    3    0    0  0.13969441389E+02 -0.26791062091E+02 -0.30217587397E+03  0.30387065418E+03  0.10686877854E+02 0.  0.
         22    1    3    3    0    0 -0.13969441389E+02  0.26791062091E+02 -0.41936618692E+02  0.51687390029E+02  0.00000000000E+00 0.  1.
         22    1    4    4    0    0  0.74154196296E+01 -0.19894530581E+02 -0.16416897294E+03  0.16553619686E+03  0.00000000000E+00 0.  1.
         22    1    4    4    0    0  0.65540217593E+01 -0.68965315101E+01 -0.13800690103E+03  0.13833445732E+03  0.00000000000E+00 0.  1.
<mgrwt>
<rscale>  0 0.89488073E+02</rscale>
<asrwt>0</asrwt>
<pdfrwt beam="2">  1        1 0.53820794E-01 0.89488073E+02</pdfrwt>
<pdfrwt beam="1">  1       -1 0.88042731E-03 0.89488073E+02</pdfrwt>
<totfact> 0.13853081E+05</totfact>
</mgrwt>
</event>
<event>
 7    1  0.3345055E-009  0.9023908E+02  0.7818608E-02  0.1302274E+00
          1   -1    0    0  501    0  0.00000000000E+00  0.00000000000E+00  0.41185722521E+01  0.41185753359E+01  0.50400000000E-02 0. -1.
         -1   -1    0    0    0  501 -0.00000000000E+00 -0.00000000000E+00 -0.49429068868E+03  0.49429068870E+03  0.50400000000E-02 0.  1.
         23    2    1    2    0    0  0.00000000000E+00 -0.17763568394E-14 -0.49017211643E+03  0.49840926404E+03  0.90239075566E+02 0.  0.
    9000005    2    3    3    0    0 -0.41771859584E+02 -0.13060777428E+02 -0.29967979959E+03  0.30295391125E+03  0.75906455562E+01 0.  0.
         22    1    3    3    0    0  0.41771859584E+02  0.13060777428E+02 -0.19049231683E+03  0.19545535279E+03  0.00000000000E+00 0.  1.
         22    1    4    4    0    0 -0.35684503565E+02 -0.10765369656E+02 -0.23363981847E+03  0.23659425554E+03  0.00000000000E+00 0. -1.
         22    1    4    4    0    0 -0.60873560187E+01 -0.22954077717E+01 -0.66039981124E+02  0.66359655718E+02  0.00000000000E+00 0. -1.
<mgrwt>
<rscale>  0 0.90239076E+02</rscale>
<asrwt>0</asrwt>
<pdfrwt beam="1">  1        1 0.63362713E-03 0.90239076E+02</pdfrwt>
<pdfrwt beam="2">  1       -1 0.76044674E-01 0.90239076E+02</pdfrwt>
<totfact> 0.48676541E+04</totfact>
</mgrwt>
</event>
<event>
 7    1  0.3345055E-009  0.9747336E+02  0.7818608E-02  0.1285701E+00
          1   -1    0    0  501    0  0.00000000000E+00  0.00000000000E+00  0.28241171450E+02  0.28241171900E+02  0.50400000000E-02 0. -1.
         -1   -1    0    0    0  501 -0.00000000000E+00 -0.00000000000E+00 -0.84106421838E+02  0.84106421989E+02  0.50400000000E-02 0.  1.
         23    2    1    2    0    0  0.00000000000E+00  0.00000000000E+00 -0.55865250388E+02  0.11234759389E+03  0.97473358676E+02 0.  0.
    9000005    2    3    3    0    0  0.41795602332E+02  0.85867699620E+01 -0.53526995105E+02  0.69615025156E+02  0.12669156633E+02 0.  0.
         22    1    3    3    0    0 -0.41795602332E+02 -0.85867699620E+01 -0.23382552829E+01  0.42732568732E+02  0.00000000000E+00 0. -1.
         22    1    4    4    0    0  0.80149716606E+00 -0.20080417843E+01 -0.28640149208E+01  0.35884831031E+01  0.00000000000E+00 0. -1.
         22    1    4    4    0    0  0.40994105166E+02  0.10594811746E+02 -0.50662980184E+02  0.66026542053E+02  0.00000000000E+00 0. -1.
<mgrwt>
<rscale>  0 0.97473359E+02</rscale>
<asrwt>0</asrwt>
<pdfrwt beam="1">  1        1 0.43447957E-02 0.97473359E+02</pdfrwt>
<pdfrwt beam="2">  1       -1 0.12939449E-01 0.97473359E+02</pdfrwt>
<totfact> 0.70706796E+04</totfact>
</mgrwt>
</event>
<event>
 7    1  0.3789154E-009  0.8891501E+02  0.7818608E-02  0.1305501E+00
         -1   -1    0    0    0  501 -0.00000000000E+00  0.00000000000E+00  0.87744668025E+01  0.87744682500E+01  0.50400000000E-02 0.  1.
          1   -1    0    0  501    0  0.00000000000E+00 -0.00000000000E+00 -0.22525240516E+03  0.22525240522E+03  0.50400000000E-02 0. -1.
         23    2    1    2    0    0 -0.17763568394E-14 -0.17763568394E-14 -0.21647793836E+03  0.23402687347E+03  0.88915013968E+02 0.  0.
    9000005    2    3    3    0    0 -0.15943857638E+02 -0.13499919492E+02 -0.21100214010E+03  0.21242967945E+03  0.12961911997E+02 0.  0.
         22    1    3    3    0    0  0.15943857638E+02  0.13499919492E+02 -0.54757982561E+01  0.21597194013E+02  0.00000000000E+00 0.  1.
         22    1    4    4    0    0 -0.11271996047E+02 -0.13068325757E+02 -0.19476964092E+03  0.19553273909E+03  0.00000000000E+00 0.  1.
         22    1    4    4    0    0 -0.46718615916E+01 -0.43159373495E+00 -0.16232499183E+02  0.16896940363E+02  0.00000000000E+00 0.  1.
<mgrwt>
<rscale>  0 0.88915014E+02</rscale>
<asrwt>0</asrwt>
<pdfrwt beam="2">  1        1 0.34654212E-01 0.88915014E+02</pdfrwt>
<pdfrwt beam="1">  1       -1 0.13499183E-02 0.88915014E+02</pdfrwt>
<totfact> 0.12958933E+05</totfact>
</mgrwt>
</event>
<event>
 7    1  0.3345055E-009  0.8985943E+02  0.7818608E-02  0.1303192E+00
          1   -1    0    0  501    0  0.00000000000E+00  0.00000000000E+00  0.91350254610E+02  0.91350254749E+02  0.50400000000E-02 0. -1.
         -1   -1    0    0    0  501 -0.00000000000E+00 -0.00000000000E+00 -0.22098232524E+02  0.22098233099E+02  0.50400000000E-02 0.  1.
         23    2    1    2    0    0  0.00000000000E+00  0.00000000000E+00  0.69252022086E+02  0.11344848785E+03  0.89859428175E+02 0.  0.
    9000005    2    3    3    0    0  0.89624579402E+01  0.14608885329E+02 -0.15577776555E+02  0.26904626597E+02  0.13691114894E+02 0.  0.
         22    1    3    3    0    0 -0.89624579402E+01 -0.14608885329E+02  0.84829798641E+02  0.86543861251E+02  0.00000000000E+00 0. -1.
         22    1    4    4    0    0  0.65248586039E+01  0.15029878835E+02 -0.17348131814E+02  0.23862705526E+02  0.00000000000E+00 0.  1.
         22    1    4    4    0    0  0.24375993363E+01 -0.42099350620E+00  0.17703552590E+01  0.30419210706E+01  0.00000000000E+00 0.  1.
<mgrwt>
<rscale>  0 0.89859428E+02</rscale>
<asrwt>0</asrwt>
<pdfrwt beam="1">  1        1 0.14053885E-01 0.89859428E+02</pdfrwt>
<pdfrwt beam="2">  1       -1 0.33997282E-02 0.89859428E+02</pdfrwt>
<totfact> 0.10707816E+05</totfact>
</mgrwt>
</event>
<event>
 7    1  0.3345055E-009  0.9228589E+02  0.7818608E-02  0.1297409E+00
         -1   -1    0    0    0  501 -0.00000000000E+00  0.00000000000E+00  0.47400077446E+01  0.47400104241E+01  0.50400000000E-02 0.  1.
          1   -1    0    0  501    0  0.00000000000E+00 -0.00000000000E+00 -0.44919141605E+03  0.44919141608E+03  0.50400000000E-02 0. -1.
         23    2    1    2    0    0  0.35527136788E-14 -0.35527136788E-14 -0.44445140831E+03  0.45393142650E+03  0.92285890697E+02 0.  0.
    9000005    2    3    3    0    0 -0.17105493266E+02  0.31289255269E+02 -0.36303723165E+03  0.36505013738E+03  0.13926803070E+02 0.  0.
         22    1    3    3    0    0  0.17105493266E+02 -0.31289255269E+02 -0.81414176656E+02  0.88881289121E+02  0.00000000000E+00 0.  1.
         22    1    4    4    0    0 -0.31992142128E+01  0.15070741061E+02 -0.20455995792E+03  0.20513931509E+03  0.00000000000E+00 0.  1.
         22    1    4    4    0    0 -0.13906279053E+02  0.16218514208E+02 -0.15847727373E+03  0.15991082230E+03  0.00000000000E+00 0.  1.
<mgrwt>
<rscale>  0 0.92285891E+02</rscale>
<asrwt>0</asrwt>
<pdfrwt beam="2">  1        1 0.69106339E-01 0.92285891E+02</pdfrwt>
<pdfrwt beam="1">  1       -1 0.72923252E-03 0.92285891E+02</pdfrwt>
<totfact> 0.13298383E+05</totfact>
</mgrwt>
</event>
<event>
 7    1  0.3345055E-009  0.9281175E+02  0.7818608E-02  0.1296182E+00
         -1   -1    0    0    0  501 -0.00000000000E+00  0.00000000000E+00  0.26335660593E+01  0.26335708820E+01  0.50400000000E-02 0.  1.
          1   -1    0    0  501    0  0.00000000000E+00 -0.00000000000E+00 -0.81771382346E+03  0.81771382348E+03  0.50400000000E-02 0. -1.
         23    2    1    2    0    0  0.00000000000E+00  0.00000000000E+00 -0.81508025740E+03  0.82034739436E+03  0.92811752623E+02 0.  0.
    9000005    2    3    3    0    0  0.42113876950E+01 -0.25328103096E+02 -0.74684632605E+03  0.74744253868E+03  0.15220555589E+02 0.  0.
         22    1    3    3    0    0 -0.42113876950E+01  0.25328103096E+02 -0.68233931358E+02  0.72904855677E+02  0.00000000000E+00 0.  1.
         22    1    4    4    0    0  0.76969113829E+00  0.20798636602E+01 -0.59982923487E+02  0.60023906632E+02  0.00000000000E+00 0. -1.
         22    1    4    4    0    0  0.34416965568E+01 -0.27407966756E+02 -0.68686340256E+03  0.68741863205E+03  0.00000000000E+00 0. -1.
<mgrwt>
<rscale>  0 0.92811753E+02</rscale>
<asrwt>0</asrwt>
<pdfrwt beam="2">  1        1 0.12580192E+00 0.92811753E+02</pdfrwt>
<pdfrwt beam="1">  1       -1 0.40516503E-03 0.92811753E+02</pdfrwt>
<totfact> 0.13452885E+05</totfact>
</mgrwt>
</event>
<event>
 7    1  0.3345055E-009  0.9129813E+02  0.7818608E-02  0.1299738E+00
          1   -1    0    0  501    0  0.00000000000E+00  0.00000000000E+00  0.16437504521E+03  0.16437504529E+03  0.50400000000E-02 0. -1.
         -1   -1    0    0    0  501 -0.00000000000E+00 -0.00000000000E+00 -0.12677332281E+02  0.12677333283E+02  0.50400000000E-02 0.  1.
         23    2    1    2    0    0  0.00000000000E+00  0.00000000000E+00  0.15169771293E+03  0.17705237857E+03  0.91298130592E+02 0.  0.
    9000005    2    3    3    0    0 -0.46388650879E+01  0.16545734525E+02  0.15764428035E+03  0.15886881280E+03  0.96072967547E+01 0.  0.
         22    1    3    3    0    0  0.46388650879E+01 -0.16545734525E+02 -0.59465674206E+01  0.18183565777E+02  0.00000000000E+00 0.  1.
         22    1    4    4    0    0 -0.57450621812E+01  0.11018155633E+02  0.74107480818E+02  0.75142026897E+02  0.00000000000E+00 0. -1.
         22    1    4    4    0    0  0.11061970933E+01  0.55275788927E+01  0.83536799536E+02  0.83726785900E+02  0.00000000000E+00 0. -1.
<mgrwt>
<rscale>  0 0.91298131E+02</rscale>
<asrwt>0</asrwt>
<pdfrwt beam="1">  1        1 0.25288468E-01 0.91298131E+02</pdfrwt>
<pdfrwt beam="2">  1       -1 0.19503589E-02 0.91298131E+02</pdfrwt>
<totfact> 0.11364505E+05</totfact>
</mgrwt>
</event>
<event>
 7    1  0.3345055E-009  0.8647555E+02  0.7818608E-02  0.1311618E+00
          1   -1    0    0  501    0  0.00000000000E+00  0.00000000000E+00  0.31618003547E+03  0.31618003551E+03  0.50400000000E-02 0. -1.
         -1   -1    0    0    0  501 -0.00000000000E+00 -0.00000000000E+00 -0.59127863084E+01  0.59127884564E+01  0.50400000000E-02 0.  1.
         23    2    1    2    0    0  0.00000000000E+00  0.00000000000E+00  0.31026724916E+03  0.32209282396E+03  0.86475553473E+02 0.  0.
    9000005    2    3    3    0    0 -0.40557080729E+02 -0.11626332980E+02  0.17516551960E+03  0.18055651856E+03  0.11732379304E+02 0.  0.
         22    1    3    3    0    0  0.40557080729E+02  0.11626332980E+02  0.13510172956E+03  0.14153630540E+03  0.00000000000E+00 0.  1.
         22    1    4    4    0    0 -0.31742901616E+02 -0.13954879221E+02  0.13862616499E+03  0.14289704012E+03  0.00000000000E+00 0. -1.
         22    1    4    4    0    0 -0.88141791131E+01  0.23285462405E+01  0.36539354607E+02  0.37659478437E+02  0.00000000000E+00 0. -1.
<mgrwt>
<rscale>  0 0.86475553E+02</rscale>
<asrwt>0</asrwt>
<pdfrwt beam="1">  1        1 0.48643093E-01 0.86475553E+02</pdfrwt>
<pdfrwt beam="2">  1       -1 0.90965941E-03 0.86475553E+02</pdfrwt>
<totfact> 0.14892136E+05</totfact>
</mgrwt>
</event>
<event>
 7    1  0.3345055E-009  0.6105038E+02  0.7818608E-02  0.1393476E+00
         -1   -1    0    0    0  501 -0.00000000000E+00  0.00000000000E+00  0.42134998049E+02  0.42134998350E+02  0.50400000000E-02 0.  1.
          1   -1    0    0  501    0  0.00000000000E+00 -0.00000000000E+00 -0.22114330714E+02  0.22114331289E+02  0.50400000000E-02 0. -1.
         23    2    1    2    0    0  0.00000000000E+00  0.00000000000E+00  0.20020667334E+02  0.64249329639E+02  0.61050382788E+02 0.  0.
    9000005    2    3    3    0    0  0.22697345132E+02  0.81223478641E+01 -0.57118224290E+01  0.28988827086E+02  0.15052746244E+02 0.  0.
         22    1    3    3    0    0 -0.22697345132E+02 -0.81223478641E+01  0.25732489763E+02  0.35260502553E+02  0.00000000000E+00 0.  1.
         22    1    4    4    0    0  0.13702204075E+02  0.11587881587E+02 -0.70027853626E+01  0.19263135752E+02  0.00000000000E+00 0. -1.
         22    1    4    4    0    0  0.89951410570E+01 -0.34655337225E+01  0.12909629336E+01  0.97256913334E+01  0.00000000000E+00 0. -1.
<mgrwt>
<rscale>  0 0.61050383E+02</rscale>
<asrwt>0</asrwt>
<pdfrwt beam="2">  1        1 0.34022048E-02 0.61050383E+02</pdfrwt>
<pdfrwt beam="1">  1       -1 0.64823074E-02 0.61050383E+02</pdfrwt>
<totfact> 0.25436172E+05</totfact>
</mgrwt>
</event>
<event>
 7    1  0.3345055E-009  0.8217021E+02  0.7818608E-02  0.1323003E+00
         -1   -1    0    0    0  501 -0.00000000000E+00  0.00000000000E+00  0.47381396525E+02  0.47381396793E+02  0.50400000000E-02 0.  1.
          1   -1    0    0  501    0  0.00000000000E+00 -0.00000000000E+00 -0.35625501032E+02  0.35625501388E+02  0.50400000000E-02 0. -1.
         23    2    1    2    0    0  0.00000000000E+00  0.00000000000E+00  0.11755895493E+02  0.83006898181E+02  0.82170213987E+02 0.  0.
    9000005    2    3    3    0    0  0.38381297667E+02  0.89914356117E+01  0.91268678621E+00  0.42122364430E+02  0.14815217279E+02 0.  0.
         22    1    3    3    0    0 -0.38381297667E+02 -0.89914356117E+01  0.10843208707E+02  0.40884533751E+02  0.00000000000E+00 0. -1.
         22    1    4    4    0    0  0.31725145087E+02  0.36070738342E+01 -0.41155282650E+01  0.32193685488E+02  0.00000000000E+00 0.  1.
         22    1    4    4    0    0  0.66561525804E+01  0.53843617775E+01  0.50282150512E+01  0.99286789416E+01  0.00000000000E+00 0.  1.
<mgrwt>
<rscale>  0 0.82170214E+02</rscale>
<asrwt>0</asrwt>
<pdfrwt beam="2">  1        1 0.54808464E-02 0.82170214E+02</pdfrwt>
<pdfrwt beam="1">  1       -1 0.72894457E-02 0.82170214E+02</pdfrwt>
<totfact> 0.11935540E+05</totfact>
</mgrwt>
</event>
<event>
 7    1  0.3345055E-009  0.8836073E+02  0.7818608E-02  0.1306871E+00
          1   -1    0    0  501    0  0.00000000000E+00  0.00000000000E+00  0.95572228350E+02  0.95572228483E+02  0.50400000000E-02 0. -1.
         -1   -1    0    0    0  501 -0.00000000000E+00 -0.00000000000E+00 -0.20423344084E+02  0.20423344706E+02  0.50400000000E-02 0.  1.
         23    2    1    2    0    0  0.00000000000E+00  0.00000000000E+00  0.75148884265E+02  0.11599557319E+03  0.88360727663E+02 0.  0.
    9000005    2    3    3    0    0 -0.23659408363E+02  0.26211684434E+02  0.27788944002E+01  0.35470822720E+02  0.19070934349E+01 0.  0.
         22    1    3    3    0    0  0.23659408363E+02 -0.26211684434E+02  0.72369989865E+02  0.80524750469E+02  0.00000000000E+00 0. -1.
         22    1    4    4    0    0 -0.70881746807E+01  0.85703930600E+01  0.16222433078E+01  0.11239463104E+02  0.00000000000E+00 0.  1.
         22    1    4    4    0    0 -0.16571233682E+02  0.17641291374E+02  0.11566510923E+01  0.24231359617E+02  0.00000000000E+00 0.  1.
<mgrwt>
<rscale>  0 0.88360728E+02</rscale>
<asrwt>0</asrwt>
<pdfrwt beam="1">  1        1 0.14703420E-01 0.88360728E+02</pdfrwt>
<pdfrwt beam="2">  1       -1 0.31420531E-02 0.88360728E+02</pdfrwt>
<totfact> 0.11291440E+05</totfact>
</mgrwt>
</event>
<event>
 7    1  0.3345055E-009  0.8863927E+02  0.7818608E-02  0.1306181E+00
          1   -1    0    0  501    0  0.00000000000E+00  0.00000000000E+00  0.68855739412E+02  0.68855739597E+02  0.50400000000E-02 0. -1.
         -1   -1    0    0    0  501 -0.00000000000E+00 -0.00000000000E+00 -0.28526743273E+02  0.28526743719E+02  0.50400000000E-02 0.  1.
         23    2    1    2    0    0  0.00000000000E+00  0.35527136788E-14  0.40328996139E+02  0.97382483315E+02  0.88639269667E+02 0.  0.
    9000005    2    3    3    0    0 -0.24918277675E+02  0.17550483578E+02 -0.15045984154E+02  0.34173872521E+02  0.35400406462E+01 0.  0.
         22    1    3    3    0    0  0.24918277675E+02 -0.17550483578E+02  0.55374980293E+02  0.63208610795E+02  0.00000000000E+00 0. -1.
         22    1    4    4    0    0 -0.35918009788E+01  0.25319946206E+01 -0.84624592755E+00  0.44752835887E+01  0.00000000000E+00 0.  1.
         22    1    4    4    0    0 -0.21326476696E+02  0.15018488958E+02 -0.14199738227E+02  0.29698588932E+02  0.00000000000E+00 0.  1.
<mgrwt>
<rscale>  0 0.88639270E+02</rscale>
<asrwt>0</asrwt>
<pdfrwt beam="1">  1        1 0.10593191E-01 0.88639270E+02</pdfrwt>
<pdfrwt beam="2">  1       -1 0.43887298E-02 0.88639270E+02</pdfrwt>
<totfact> 0.10636496E+05</totfact>
</mgrwt>
</event>
<event>
 7    1  0.3345055E-009  0.9030995E+02  0.7818608E-02  0.1302103E+00
         -1   -1    0    0    0  501 -0.00000000000E+00  0.00000000000E+00  0.18102642157E+03  0.18102642164E+03  0.50400000000E-02 0.  1.
          1   -1    0    0  501    0  0.00000000000E+00 -0.00000000000E+00 -0.11263393495E+02  0.11263394623E+02  0.50400000000E-02 0. -1.
         23    2    1    2    0    0  0.00000000000E+00  0.00000000000E+00  0.16976302808E+03  0.19228981627E+03  0.90309953701E+02 0.  0.
    9000005    2    3    3    0    0 -0.15185685097E+02  0.22239762779E+02  0.13010164122E+02  0.33240539504E+02  0.14507136715E+02 0.  0.
         22    1    3    3    0    0  0.15185685097E+02 -0.22239762779E+02  0.15675286396E+03  0.15904927676E+03  0.00000000000E+00 0.  1.
         22    1    4    4    0    0 -0.58245170397E+01  0.75150431645E+00 -0.96518629724E+00  0.59515831568E+01  0.00000000000E+00 0.  1.
         22    1    4    4    0    0 -0.93611680578E+01  0.21488258462E+02  0.13975350419E+02  0.27288956347E+02  0.00000000000E+00 0.  1.
<mgrwt>
<rscale>  0 0.90309954E+02</rscale>
<asrwt>0</asrwt>
<pdfrwt beam="2">  1        1 0.17328300E-02 0.90309954E+02</pdfrwt>
<pdfrwt beam="1">  1       -1 0.27850217E-01 0.90309954E+02</pdfrwt>
<totfact> 0.73156060E+04</totfact>
</mgrwt>
</event>
<event>
 7    1  0.3345055E-009  0.9195630E+02  0.7818608E-02  0.1298182E+00
         -1   -1    0    0    0  501 -0.00000000000E+00  0.00000000000E+00  0.26231917730E+03  0.26231917734E+03  0.50400000000E-02 0.  1.
          1   -1    0    0  501    0  0.00000000000E+00 -0.00000000000E+00 -0.80588462706E+01  0.80588478466E+01  0.50400000000E-02 0. -1.
         23    2    1    2    0    0 -0.88817841970E-15  0.00000000000E+00  0.25426033102E+03  0.27037802519E+03  0.91956297082E+02 0.  0.
    9000005    2    3    3    0    0  0.44471588366E+01 -0.38837369942E+02  0.61390848563E+02  0.73586877547E+02  0.10866173846E+02 0.  0.
         22    1    3    3    0    0 -0.44471588366E+01  0.38837369942E+02  0.19286948246E+03  0.19679114764E+03  0.00000000000E+00 0. -1.
         22    1    4    4    0    0  0.79817124090E+01 -0.27527708137E+02  0.41534688788E+02  0.50463975477E+02  0.00000000000E+00 0. -1.
         22    1    4    4    0    0 -0.35345535724E+01 -0.11309661806E+02  0.19856159775E+02  0.23122902070E+02  0.00000000000E+00 0. -1.
<mgrwt>
<rscale>  0 0.91956297E+02</rscale>
<asrwt>0</asrwt>
<pdfrwt beam="2">  1        1 0.12398225E-02 0.91956297E+02</pdfrwt>
<pdfrwt beam="1">  1       -1 0.40356799E-01 0.91956297E+02</pdfrwt>
<totfact> 0.62294126E+04</totfact>
</mgrwt>
</event>
<event>
 7    1  0.3345055E-009  0.9347562E+02  0.7818608E-02  0.1294647E+00
         -1   -1    0    0    0  501 -0.00000000000E+00  0.00000000000E+00  0.19766481714E+02  0.19766482356E+02  0.50400000000E-02 0.  1.
          1   -1    0    0  501    0  0.00000000000E+00 -0.00000000000E+00 -0.11051146263E+03  0.11051146274E+03  0.50400000000E-02 0. -1.
         23    2    1    2    0    0  0.00000000000E+00  0.00000000000E+00 -0.90744980915E+02  0.13027794510E+03  0.93475619378E+02 0.  0.
    9000005    2    3    3    0    0  0.11962591274E+02  0.68076736058E+01 -0.10721191252E+03  0.10881616870E+03  0.12534607012E+02 0.  0.
         22    1    3    3    0    0 -0.11962591274E+02 -0.68076736058E+01  0.16466931607E+02  0.21461776405E+02  0.00000000000E+00 0.  1.
         22    1    4    4    0    0 -0.11093382158E+01 -0.23628698503E+01 -0.17641276194E+02  0.17833351086E+02  0.00000000000E+00 0. -1.
         22    1    4    4    0    0  0.13071929490E+02  0.91705434561E+01 -0.89570636328E+02  0.90982817609E+02  0.00000000000E+00 0. -1.
<mgrwt>
<rscale>  0 0.93475619E+02</rscale>
<asrwt>0</asrwt>
<pdfrwt beam="2">  1        1 0.17001763E-01 0.93475619E+02</pdfrwt>
<pdfrwt beam="1">  1       -1 0.30409973E-02 0.93475619E+02</pdfrwt>
<totfact> 0.99255051E+04</totfact>
</mgrwt>
</event>
<event>
 7    1  0.3345055E-009  0.9093229E+02  0.7818608E-02  0.1300610E+00
         -1   -1    0    0    0  501 -0.00000000000E+00  0.00000000000E+00  0.17049237358E+02  0.17049238103E+02  0.50400000000E-02 0.  1.
          1   -1    0    0  501    0  0.00000000000E+00 -0.00000000000E+00 -0.12124708953E+03  0.12124708964E+03  0.50400000000E-02 0. -1.
         23    2    1    2    0    0  0.00000000000E+00  0.35527136788E-14 -0.10419785218E+03  0.13829632774E+03  0.90932292772E+02 0.  0.
    9000005    2    3    3    0    0 -0.23344780711E+02 -0.29609151688E+02 -0.89904557647E+02  0.97972898838E+02  0.97045747381E+01 0.  0.
         22    1    3    3    0    0  0.23344780711E+02  0.29609151688E+02 -0.14293294529E+02  0.40323428904E+02  0.00000000000E+00 0.  1.
         22    1    4    4    0    0 -0.11836149790E+02 -0.20323061315E+02 -0.63407551856E+02  0.67628683970E+02  0.00000000000E+00 0. -1.
         22    1    4    4    0    0 -0.11508630921E+02 -0.92860903728E+01 -0.26497005791E+02  0.30344214868E+02  0.00000000000E+00 0. -1.
<mgrwt>
<rscale>  0 0.90932293E+02</rscale>
<asrwt>0</asrwt>
<pdfrwt beam="2">  1        1 0.18653398E-01 0.90932293E+02</pdfrwt>
<pdfrwt beam="1">  1       -1 0.26229597E-02 0.90932293E+02</pdfrwt>
<totfact> 0.10872158E+05</totfact>
</mgrwt>
</event>
<event>
 7    1  0.3345055E-009  0.9060547E+02  0.7818608E-02  0.1301392E+00
          1   -1    0    0  501    0  0.00000000000E+00  0.00000000000E+00  0.79303660474E+01  0.79303676489E+01  0.50400000000E-02 0. -1.
         -1   -1    0    0    0  501 -0.00000000000E+00 -0.00000000000E+00 -0.25879482733E+03  0.25879482738E+03  0.50400000000E-02 0.  1.
         23    2    1    2    0    0 -0.35527136788E-14  0.00000000000E+00 -0.25086446128E+03  0.26672519503E+03  0.90605472948E+02 0.  0.
    9000005    2    3    3    0    0  0.16538289039E+02  0.32652413751E+02 -0.48249261266E+02  0.60830526797E+02  0.57154745698E+01 0.  0.
         22    1    3    3    0    0 -0.16538289039E+02 -0.32652413751E+02 -0.20261520002E+03  0.20589466823E+03  0.00000000000E+00 0.  1.
         22    1    4    4    0    0  0.84117018325E+01  0.15450454952E+02 -0.27811932667E+02  0.32908614140E+02  0.00000000000E+00 0.  1.
         22    1    4    4    0    0  0.81265872069E+01  0.17201958799E+02 -0.20437328599E+02  0.27921912657E+02  0.00000000000E+00 0.  1.
<mgrwt>
<rscale>  0 0.90605473E+02</rscale>
<asrwt>0</asrwt>
<pdfrwt beam="1">  1        1 0.12200566E-02 0.90605473E+02</pdfrwt>
<pdfrwt beam="2">  1       -1 0.39814582E-01 0.90605473E+02</pdfrwt>
<totfact> 0.65058606E+04</totfact>
</mgrwt>
</event>
<event>
 7    1  0.3345055E-009  0.9164220E+02  0.7818608E-02  0.1298923E+00
          1   -1    0    0  501    0  0.00000000000E+00  0.00000000000E+00  0.12578236275E+03  0.12578236285E+03  0.50400000000E-02 0. -1.
         -1   -1    0    0    0  501 -0.00000000000E+00 -0.00000000000E+00 -0.16692111479E+02  0.16692112240E+02  0.50400000000E-02 0.  1.
         23    2    1    2    0    0  0.00000000000E+00 -0.17763568394E-14  0.10909025127E+03  0.14247447509E+03  0.91642201687E+02 0.  0.
    9000005    2    3    3    0    0  0.42874627455E+02  0.15452489864E+02  0.49523640005E+02  0.67473179768E+02  0.47985358448E+01 0.  0.
         22    1    3    3    0    0 -0.42874627455E+02 -0.15452489864E+02  0.59566611269E+02  0.75001295325E+02  0.00000000000E+00 0.  1.
         22    1    4    4    0    0  0.19640312738E+02  0.93282264899E+01  0.21873988945E+02  0.30842001982E+02  0.00000000000E+00 0.  1.
         22    1    4    4    0    0  0.23234314717E+02  0.61242633737E+01  0.27649651060E+02  0.36631177786E+02  0.00000000000E+00 0.  1.
<mgrwt>
<rscale>  0 0.91642202E+02</rscale>
<asrwt>0</asrwt>
<pdfrwt beam="1">  1        1 0.19351132E-01 0.91642202E+02</pdfrwt>
<pdfrwt beam="2">  1       -1 0.25680173E-02 0.91642202E+02</pdfrwt>
<totfact> 0.10714101E+05</totfact>
</mgrwt>
</event>
<event>
 7    1  0.3345055E-009  0.9105445E+02  0.7818608E-02  0.1300318E+00
         -1   -1    0    0    0  501 -0.00000000000E+00  0.00000000000E+00  0.29798214039E+01  0.29798256661E+01  0.50400000000E-02 0.  1.
          1   -1    0    0  501    0  0.00000000000E+00 -0.00000000000E+00 -0.69558761560E+03  0.69558761562E+03  0.50400000000E-02 0. -1.
         23    2    1    2    0    0 -0.88817841970E-15 -0.71054273576E-14 -0.69260779420E+03  0.69856744129E+03  0.91054453166E+02 0.  0.
    9000005    2    3    3    0    0 -0.55489236405E+01 -0.41999284188E+02 -0.46188708743E+03  0.46398957584E+03  0.12325361157E+02 0.  0.
         22    1    3    3    0    0  0.55489236405E+01  0.41999284188E+02 -0.23072070677E+03  0.23457786545E+03  0.00000000000E+00 0.  1.
         22    1    4    4    0    0 -0.48204606607E+01 -0.17405859393E+02 -0.13937939382E+03  0.14054471247E+03  0.00000000000E+00 0.  1.
         22    1    4    4    0    0 -0.72846297984E+00 -0.24593424794E+02 -0.32250769361E+03  0.32344486337E+03  0.00000000000E+00 0.  1.
<mgrwt>
<rscale>  0 0.91054453E+02</rscale>
<asrwt>0</asrwt>
<pdfrwt beam="2">  1        1 0.10701335E+00 0.91054453E+02</pdfrwt>
<pdfrwt beam="1">  1       -1 0.45843494E-03 0.91054453E+02</pdfrwt>
<totfact> 0.14268805E+05</totfact>
</mgrwt>
</event>
<event>
 7    1  0.3345055E-009  0.8945407E+02  0.7818608E-02  0.1304179E+00
         -1   -1    0    0    0  501 -0.00000000000E+00  0.00000000000E+00  0.10138569880E+03  0.10138569893E+03  0.50400000000E-02 0.  1.
          1   -1    0    0  501    0  0.00000000000E+00 -0.00000000000E+00 -0.19731656449E+02  0.19731657093E+02  0.50400000000E-02 0. -1.
         23    2    1    2    0    0  0.00000000000E+00  0.00000000000E+00  0.81654042351E+02  0.12111735602E+03  0.89454073673E+02 0.  0.
    9000005    2    3    3    0    0 -0.32740030092E+02  0.21997065165E+01  0.81492399139E+02  0.88303115091E+02  0.89264067905E+01 0.  0.
         22    1    3    3    0    0  0.32740030092E+02 -0.21997065165E+01  0.16164321267E+00  0.32814240928E+02  0.00000000000E+00 0. -1.
         22    1    4    4    0    0 -0.36697590064E+01  0.32060454743E+00  0.19009157889E+02  0.19362799439E+02  0.00000000000E+00 0. -1.
         22    1    4    4    0    0 -0.29070271085E+02  0.18791019691E+01  0.62483241249E+02  0.68940315652E+02  0.00000000000E+00 0. -1.
<mgrwt>
<rscale>  0 0.89454074E+02</rscale>
<asrwt>0</asrwt>
<pdfrwt beam="2">  1        1 0.30356395E-02 0.89454074E+02</pdfrwt>
<pdfrwt beam="1">  1       -1 0.15597800E-01 0.89454074E+02</pdfrwt>
<totfact> 0.85244831E+04</totfact>
</mgrwt>
</event>
<event>
 7    1  0.3345055E-009  0.9241642E+02  0.7818608E-02  0.1297103E+00
          1   -1    0    0  501    0  0.00000000000E+00  0.00000000000E+00  0.93832959047E+02  0.93832959183E+02  0.50400000000E-02 0. -1.
         -1   -1    0    0    0  501 -0.00000000000E+00 -0.00000000000E+00 -0.22755316353E+02  0.22755316911E+02  0.50400000000E-02 0.  1.
         23    2    1    2    0    0  0.00000000000E+00  0.00000000000E+00  0.71077642695E+02  0.11658827609E+03  0.92416420789E+02 0.  0.
    9000005    2    3    3    0    0  0.21362726532E+02  0.28950813871E+02  0.51365067588E+00  0.37380999418E+02  0.10127169981E+02 0.  0.
         22    1    3    3    0    0 -0.21362726532E+02 -0.28950813871E+02  0.70563992019E+02  0.79207276675E+02  0.00000000000E+00 0. -1.
         22    1    4    4    0    0  0.27284357892E+01  0.11126335540E+02 -0.13064493631E+01  0.11530243464E+02  0.00000000000E+00 0. -1.
         22    1    4    4    0    0  0.18634290743E+02  0.17824478332E+02  0.18201000390E+01  0.25850755955E+02  0.00000000000E+00 0. -1.
<mgrwt>
<rscale>  0 0.92416421E+02</rscale>
<asrwt>0</asrwt>
<pdfrwt beam="1">  1        1 0.14435840E-01 0.92416421E+02</pdfrwt>
<pdfrwt beam="2">  1       -1 0.35008180E-02 0.92416421E+02</pdfrwt>
<totfact> 0.99611203E+04</totfact>
</mgrwt>
</event>
<event>
 7    1  0.3345055E-009  0.9343303E+02  0.7818608E-02  0.1294745E+00
         -1   -1    0    0    0  501 -0.00000000000E+00  0.00000000000E+00  0.17944615223E+02  0.17944615931E+02  0.50400000000E-02 0.  1.
          1   -1    0    0  501    0  0.00000000000E+00 -0.00000000000E+00 -0.12162047881E+03  0.12162047891E+03  0.50400000000E-02 0. -1.
         23    2    1    2    0    0  0.00000000000E+00  0.00000000000E+00 -0.10367586358E+03  0.13956509484E+03  0.93433029537E+02 0.  0.
    9000005    2    3    3    0    0  0.41463090469E+02  0.16338563985E+02 -0.35790582505E+02  0.58358272891E+02  0.11772241689E+02 0.  0.
         22    1    3    3    0    0 -0.41463090469E+02 -0.16338563985E+02 -0.67885281078E+02  0.81206821951E+02  0.00000000000E+00 0.  1.
         22    1    4    4    0    0  0.12899976851E+02  0.16886919412E+01 -0.51841473170E+01  0.14004872961E+02  0.00000000000E+00 0. -1.
         22    1    4    4    0    0  0.28563113618E+02  0.14649872044E+02 -0.30606435188E+02  0.44353399930E+02  0.00000000000E+00 0. -1.
<mgrwt>
<rscale>  0 0.93433030E+02</rscale>
<asrwt>0</asrwt>
<pdfrwt beam="2">  1        1 0.18710842E-01 0.93433030E+02</pdfrwt>
<pdfrwt beam="1">  1       -1 0.27607102E-02 0.93433030E+02</pdfrwt>
<totfact> 0.10104994E+05</totfact>
</mgrwt>
</event>
<event>
 7    1  0.3345055E-009  0.9952021E+02  0.7818608E-02  0.1281308E+00
          1   -1    0    0  501    0  0.00000000000E+00  0.00000000000E+00  0.79580962447E+01  0.79580978407E+01  0.50400000000E-02 0. -1.
         -1   -1    0    0    0  501 -0.00000000000E+00 -0.00000000000E+00 -0.31113818772E+03  0.31113818776E+03  0.50400000000E-02 0.  1.
         23    2    1    2    0    0  0.00000000000E+00  0.00000000000E+00 -0.30318009147E+03  0.31909628560E+03  0.99520207082E+02 0.  0.
    9000005    2    3    3    0    0 -0.26674367842E+02  0.27974541020E+02 -0.24931138162E+03  0.25279443988E+03  0.15961421673E+02 0.  0.
         22    1    3    3    0    0  0.26674367842E+02 -0.27974541020E+02 -0.53868709851E+02  0.66301845721E+02  0.00000000000E+00 0. -1.
         22    1    4    4    0    0 -0.34975173229E+01  0.12372119784E+02 -0.10671675553E+03  0.10748845466E+03  0.00000000000E+00 0. -1.
         22    1    4    4    0    0 -0.23176850519E+02  0.15602421236E+02 -0.14259462609E+03  0.14530598521E+03  0.00000000000E+00 0. -1.
<mgrwt>
<rscale>  0 0.99520207E+02</rscale>
<asrwt>0</asrwt>
<pdfrwt beam="1">  1        1 0.12243229E-02 0.99520207E+02</pdfrwt>
<pdfrwt beam="2">  1       -1 0.47867404E-01 0.99520207E+02</pdfrwt>
<totfact> 0.47449791E+04</totfact>
</mgrwt>
</event>
<event>
 7    1  0.3345055E-009  0.9046948E+02  0.7818608E-02  0.1301719E+00
         -1   -1    0    0    0  501 -0.00000000000E+00  0.00000000000E+00  0.12940602075E+02  0.12940603057E+02  0.50400000000E-02 0.  1.
          1   -1    0    0  501    0  0.00000000000E+00 -0.00000000000E+00 -0.15812105516E+03  0.15812105524E+03  0.50400000000E-02 0. -1.
         23    2    1    2    0    0  0.00000000000E+00  0.00000000000E+00 -0.14518045308E+03  0.17106165829E+03  0.90469480939E+02 0.  0.
    9000005    2    3    3    0    0 -0.33190131019E+02 -0.18234594114E+02 -0.11878147341E+03  0.12489899646E+03  0.75256676126E+01 0.  0.
         22    1    3    3    0    0  0.33190131019E+02  0.18234594114E+02 -0.26398979676E+02  0.46162661833E+02  0.00000000000E+00 0.  1.
         22    1    4    4    0    0 -0.10628339679E+02 -0.25964858258E+01 -0.40119619625E+02  0.41584699372E+02  0.00000000000E+00 0.  1.
         22    1    4    4    0    0 -0.22561791340E+02 -0.15638108288E+02 -0.78661853781E+02  0.83314297090E+02  0.00000000000E+00 0.  1.
<mgrwt>
<rscale>  0 0.90469481E+02</rscale>
<asrwt>0</asrwt>
<pdfrwt beam="2">  1        1 0.24326315E-01 0.90469481E+02</pdfrwt>
<pdfrwt beam="1">  1       -1 0.19908620E-02 0.90469481E+02</pdfrwt>
<totfact> 0.11563000E+05</totfact>
</mgrwt>
</event>
<event>
 7    1  0.3345055E-009  0.8773225E+02  0.7818608E-02  0.1308438E+00
          1   -1    0    0  501    0  0.00000000000E+00  0.00000000000E+00  0.37212738678E+03  0.37212738681E+03  0.50400000000E-02 0. -1.
         -1   -1    0    0    0  501 -0.00000000000E+00 -0.00000000000E+00 -0.51709083851E+01  0.51709108413E+01  0.50400000000E-02 0.  1.
         23    2    1    2    0    0  0.00000000000E+00  0.88817841970E-15  0.36695647839E+03  0.37729829765E+03  0.87732253919E+02 0.  0.
    9000005    2    3    3    0    0  0.10215186696E+02  0.63343591346E+01  0.36450762028E+03  0.36503163344E+03  0.15421219904E+02 0.  0.
         22    1    3    3    0    0 -0.10215186696E+02 -0.63343591346E+01  0.24488581105E+01  0.12266664213E+02  0.00000000000E+00 0.  1.
         22    1    4    4    0    0  0.12274300549E+02  0.92840572475E+01  0.25426167683E+03  0.25472701560E+03  0.00000000000E+00 0. -1.
         22    1    4    4    0    0 -0.20591138538E+01 -0.29496981129E+01  0.11024594345E+03  0.11030461784E+03  0.00000000000E+00 0. -1.
<mgrwt>
<rscale>  0 0.87732254E+02</rscale>
<asrwt>0</asrwt>
<pdfrwt beam="1">  1        1 0.57250366E-01 0.87732254E+02</pdfrwt>
<pdfrwt beam="2">  1       -1 0.79552457E-03 0.87732254E+02</pdfrwt>
<totfact> 0.14758013E+05</totfact>
</mgrwt>
</event>
<event>
 7    1  0.3345055E-009  0.9015571E+02  0.7818608E-02  0.1302475E+00
         -1   -1    0    0    0  501 -0.00000000000E+00  0.00000000000E+00  0.48439786927E+02  0.48439787189E+02  0.50400000000E-02 0.  1.
          1   -1    0    0  501    0  0.00000000000E+00 -0.00000000000E+00 -0.41949258674E+02  0.41949258977E+02  0.50400000000E-02 0. -1.
         23    2    1    2    0    0  0.00000000000E+00  0.00000000000E+00  0.64905282528E+01  0.90389046166E+02  0.90155713684E+02 0.  0.
    9000005    2    3    3    0    0  0.19647716092E+02 -0.36993035307E+02 -0.10924534429E+02  0.45026045637E+02  0.12388782198E+02 0.  0.
         22    1    3    3    0    0 -0.19647716092E+02  0.36993035307E+02  0.17415062682E+02  0.45363000529E+02  0.00000000000E+00 0.  1.
         22    1    4    4    0    0  0.12608396023E+02 -0.14293326873E+02 -0.92916082753E+01  0.21203887090E+02  0.00000000000E+00 0.  1.
         22    1    4    4    0    0  0.70393200685E+01 -0.22699708434E+02 -0.16329261535E+01  0.23822158547E+02  0.00000000000E+00 0.  1.
<mgrwt>
<rscale>  0 0.90155714E+02</rscale>
<asrwt>0</asrwt>
<pdfrwt beam="2">  1        1 0.64537321E-02 0.90155714E+02</pdfrwt>
<pdfrwt beam="1">  1       -1 0.74522750E-02 0.90155714E+02</pdfrwt>
<totfact> 0.94259788E+04</totfact>
</mgrwt>
</event>
<event>
 7    1  0.3345055E-009  0.7571279E+02  0.7818608E-02  0.1341678E+00
         -1   -1    0    0    0  501 -0.00000000000E+00  0.00000000000E+00  0.79723671949E+01  0.79723687880E+01  0.50400000000E-02 0.  1.
          1   -1    0    0  501    0  0.00000000000E+00 -0.00000000000E+00 -0.17975923066E+03  0.17975923073E+03  0.50400000000E-02 0. -1.
         23    2    1    2    0    0 -0.35527136788E-14  0.00000000000E+00 -0.17178686347E+03  0.18773159952E+03  0.75712792834E+02 0.  0.
    9000005    2    3    3    0    0 -0.19225925031E+02  0.32376413230E+02 -0.95265916569E+02  0.10244781653E+03  0.14463489277E+01 0.  0.
         22    1    3    3    0    0  0.19225925031E+02 -0.32376413230E+02 -0.76520946897E+02  0.85283782989E+02  0.00000000000E+00 0. -1.
         22    1    4    4    0    0 -0.21477987554E+01  0.45655715416E+01 -0.12994467356E+02  0.13939643642E+02  0.00000000000E+00 0.  1.
         22    1    4    4    0    0 -0.17078126275E+02  0.27810841688E+02 -0.82271449212E+02  0.88508172888E+02  0.00000000000E+00 0.  1.
<mgrwt>
<rscale>  0 0.75712793E+02</rscale>
<asrwt>0</asrwt>
<pdfrwt beam="2">  1        1 0.27655264E-01 0.75712793E+02</pdfrwt>
<pdfrwt beam="1">  1       -1 0.12265183E-02 0.75712793E+02</pdfrwt>
<totfact> 0.19012463E+05</totfact>
</mgrwt>
</event>
<event>
 7    1  0.3345055E-009  0.9205422E+02  0.7818608E-02  0.1297952E+00
         -1   -1    0    0    0  501 -0.00000000000E+00  0.00000000000E+00  0.77358946363E+01  0.77358962781E+01  0.50400000000E-02 0.  1.
          1   -1    0    0  501    0  0.00000000000E+00 -0.00000000000E+00 -0.27385259724E+03  0.27385259729E+03  0.50400000000E-02 0. -1.
         23    2    1    2    0    0  0.00000000000E+00  0.44408920985E-15 -0.26611670260E+03  0.28158849356E+03  0.92054224799E+02 0.  0.
    9000005    2    3    3    0    0  0.26148723770E+02 -0.20850017183E+01 -0.24807125239E+03  0.24974918986E+03  0.12132954560E+02 0.  0.
         22    1    3    3    0    0 -0.26148723770E+02  0.20850017183E+01 -0.18045450214E+02  0.31839303704E+02  0.00000000000E+00 0.  1.
         22    1    4    4    0    0  0.77112840625E+01 -0.62574819443E+01 -0.93714584334E+02  0.94239287450E+02  0.00000000000E+00 0. -1.
         22    1    4    4    0    0  0.18437439708E+02  0.41724802260E+01 -0.15435666806E+03  0.15550990241E+03  0.00000000000E+00 0. -1.
<mgrwt>
<rscale>  0 0.92054225E+02</rscale>
<asrwt>0</asrwt>
<pdfrwt beam="2">  1        1 0.42131161E-01 0.92054225E+02</pdfrwt>
<pdfrwt beam="1">  1       -1 0.11901380E-02 0.92054225E+02</pdfrwt>
<totfact> 0.12270984E+05</totfact>
</mgrwt>
</event>
<event>
 7    1  0.3345055E-009  0.9085350E+02  0.7818608E-02  0.1300798E+00
          1   -1    0    0  501    0  0.00000000000E+00  0.00000000000E+00  0.39335855538E+03  0.39335855542E+03  0.50400000000E-02 0. -1.
         -1   -1    0    0    0  501 -0.00000000000E+00 -0.00000000000E+00 -0.52460770483E+01  0.52460794693E+01  0.50400000000E-02 0.  1.
         23    2    1    2    0    0  0.00000000000E+00 -0.35527136788E-14  0.38811247833E+03  0.39860463488E+03  0.90853503578E+02 0.  0.
    9000005    2    3    3    0    0 -0.30259915426E+02  0.23943455380E+02  0.29900096432E+03  0.30149740824E+03  0.31873142957E+01 0.  0.
         22    1    3    3    0    0  0.30259915426E+02 -0.23943455380E+02  0.89111514016E+02  0.97107226648E+02  0.00000000000E+00 0.  1.
         22    1    4    4    0    0 -0.51544984265E+01  0.39922276840E+01  0.41878062079E+02  0.42382529648E+02  0.00000000000E+00 0. -1.
         22    1    4    4    0    0 -0.25105417000E+02  0.19951227696E+02  0.25712290224E+03  0.25911487859E+03  0.00000000000E+00 0. -1.
<mgrwt>
<rscale>  0 0.90853504E+02</rscale>
<asrwt>0</asrwt>
<pdfrwt beam="1">  1        1 0.60516710E-01 0.90853504E+02</pdfrwt>
<pdfrwt beam="2">  1       -1 0.80708884E-03 0.90853504E+02</pdfrwt>
<totfact> 0.13579431E+05</totfact>
</mgrwt>
</event>
<event>
 7    1  0.3345055E-009  0.9488804E+02  0.7818608E-02  0.1291428E+00
          1   -1    0    0  501    0  0.00000000000E+00  0.00000000000E+00  0.65329453984E+02  0.65329454179E+02  0.50400000000E-02 0. -1.
         -1   -1    0    0    0  501 -0.00000000000E+00 -0.00000000000E+00 -0.34455131529E+02  0.34455131898E+02  0.50400000000E-02 0.  1.
         23    2    1    2    0    0  0.00000000000E+00  0.00000000000E+00  0.30874322455E+02  0.99784586077E+02  0.94888038400E+02 0.  0.
    9000005    2    3    3    0    0  0.35264846621E+02 -0.17643788804E+02  0.41194449994E+02  0.59024093894E+02  0.15229847642E+02 0.  0.
         22    1    3    3    0    0 -0.35264846621E+02  0.17643788804E+02 -0.10320127538E+02  0.40760492182E+02  0.00000000000E+00 0.  1.
         22    1    4    4    0    0  0.24167882713E+02 -0.83468491159E+01  0.16598078655E+02  0.30483645780E+02  0.00000000000E+00 0. -1.
         22    1    4    4    0    0  0.11096963908E+02 -0.92969396884E+01  0.24596371339E+02  0.28540448114E+02  0.00000000000E+00 0. -1.
<mgrwt>
<rscale>  0 0.94888038E+02</rscale>
<asrwt>0</asrwt>
<pdfrwt beam="1">  1        1 0.10050685E-01 0.94888038E+02</pdfrwt>
<pdfrwt beam="2">  1       -1 0.53007896E-02 0.94888038E+02</pdfrwt>
<totfact> 0.87393360E+04</totfact>
</mgrwt>
</event>
<event>
 7    1  0.3345055E-009  0.9007117E+02  0.7818608E-02  0.1302679E+00
         -1   -1    0    0    0  501 -0.00000000000E+00  0.00000000000E+00  0.39391640902E+03  0.39391640906E+03  0.50400000000E-02 0.  1.
          1   -1    0    0  501    0  0.00000000000E+00 -0.00000000000E+00 -0.51488165513E+01  0.51488190180E+01  0.50400000000E-02 0. -1.
         23    2    1    2    0    0  0.22204460493E-15  0.00000000000E+00  0.38876759247E+03  0.39906522807E+03  0.90071167978E+02 0.  0.
    9000005    2    3    3    0    0 -0.13256448357E+01  0.14069116703E+02  0.38355110373E+03  0.38400172470E+03  0.12090410364E+02 0.  0.
         22    1    3    3    0    0  0.13256448357E+01 -0.14069116703E+02  0.52164887427E+01  0.15063503372E+02  0.00000000000E+00 0. -1.
         22    1    4    4    0    0  0.37825135260E-01  0.37639760058E+01  0.23414901959E+02  0.23715534568E+02  0.00000000000E+00 0.  1.
         22    1    4    4    0    0 -0.13634699709E+01  0.10305140697E+02  0.36013620177E+03  0.36028619013E+03  0.00000000000E+00 0.  1.
<mgrwt>
<rscale>  0 0.90071168E+02</rscale>
<asrwt>0</asrwt>
<pdfrwt beam="2">  1        1 0.79212593E-03 0.90071168E+02</pdfrwt>
<pdfrwt beam="1">  1       -1 0.60602516E-01 0.90071168E+02</pdfrwt>
<totfact> 0.55443881E+04</totfact>
</mgrwt>
</event>
<event>
 7    1  0.3345055E-009  0.9117946E+02  0.7818608E-02  0.1300020E+00
         -1   -1    0    0    0  501 -0.00000000000E+00  0.00000000000E+00  0.78214920945E+02  0.78214921107E+02  0.50400000000E-02 0.  1.
          1   -1    0    0  501    0  0.00000000000E+00 -0.00000000000E+00 -0.26573235246E+02  0.26573235724E+02  0.50400000000E-02 0. -1.
         23    2    1    2    0    0  0.00000000000E+00  0.00000000000E+00  0.51641685699E+02  0.10478815683E+03  0.91179461011E+02 0.  0.
    9000005    2    3    3    0    0  0.17980646827E+02 -0.40334157876E+02  0.20306627582E+02  0.50639899066E+02  0.14208881089E+02 0.  0.
         22    1    3    3    0    0 -0.17980646827E+02  0.40334157876E+02  0.31335058116E+02  0.54148257765E+02  0.00000000000E+00 0. -1.
         22    1    4    4    0    0  0.17862499801E+02 -0.26451655820E+02  0.10344637053E+02  0.33552503789E+02  0.00000000000E+00 0.  1.
         22    1    4    4    0    0  0.11814702632E+00 -0.13882502055E+02  0.99619905296E+01  0.17087395277E+02  0.00000000000E+00 0.  1.
<mgrwt>
<rscale>  0 0.91179461E+02</rscale>
<asrwt>0</asrwt>
<pdfrwt beam="2">  1        1 0.40881901E-02 0.91179461E+02</pdfrwt>
<pdfrwt beam="1">  1       -1 0.12033065E-01 0.91179461E+02</pdfrwt>
<totfact> 0.84966666E+04</totfact>
</mgrwt>
</event>
<event>
 7    1  0.3345055E-009  0.8730908E+02  0.7818608E-02  0.1309502E+00
          1   -1    0    0  501    0  0.00000000000E+00  0.00000000000E+00  0.16022675304E+03  0.16022675312E+03  0.50400000000E-02 0.  1.
         -1   -1    0    0    0  501 -0.00000000000E+00 -0.00000000000E+00 -0.11893885165E+02  0.11893886233E+02  0.50400000000E-02 0. -1.
         23    2    1    2    0    0  0.00000000000E+00  0.71054273576E-14  0.14833286788E+03  0.17212063935E+03  0.87309076268E+02 0.  0.
    9000005    2    3    3    0    0  0.20696832182E+02 -0.36710634564E+02  0.95568482009E+02  0.10459205305E+03  0.54893765252E+01 0.  0.
         22    1    3    3    0    0 -0.20696832182E+02  0.36710634564E+02  0.52764385866E+02  0.67528586305E+02  0.00000000000E+00 0. -1.
         22    1    4    4    0    0  0.17036277576E+02 -0.29688035827E+02  0.82387126421E+02  0.89214644677E+02  0.00000000000E+00 0.  1.
         22    1    4    4    0    0  0.36605546064E+01 -0.70225987373E+01  0.13181355588E+02  0.15377408370E+02  0.00000000000E+00 0.  1.
<mgrwt>
<rscale>  0 0.87309076E+02</rscale>
<asrwt>0</asrwt>
<pdfrwt beam="1">  1        1 0.24650269E-01 0.87309076E+02</pdfrwt>
<pdfrwt beam="2">  1       -1 0.18298286E-02 0.87309076E+02</pdfrwt>
<totfact> 0.12752010E+05</totfact>
</mgrwt>
</event>
<event>
 7    1  0.3345055E-009  0.9405308E+02  0.7818608E-02  0.1293323E+00
         -1   -1    0    0    0  501 -0.00000000000E+00  0.00000000000E+00  0.26314245575E+03  0.26314245580E+03  0.50400000000E-02 0.  1.
          1   -1    0    0  501    0  0.00000000000E+00 -0.00000000000E+00 -0.84041743329E+01  0.84041758442E+01  0.50400000000E-02 0. -1.
         23    2    1    2    0    0  0.00000000000E+00  0.00000000000E+00  0.25473828141E+03  0.27154663164E+03  0.94053076170E+02 0.  0.
    9000005    2    3    3    0    0 -0.11030730698E+02  0.36456737287E+02  0.20393861893E+03  0.20805351058E+03  0.15637527325E+02 0.  0.
         22    1    3    3    0    0  0.11030730698E+02 -0.36456737287E+02  0.50799662489E+02  0.63493121063E+02  0.00000000000E+00 0. -1.
         22    1    4    4    0    0 -0.39716825304E+01  0.32954906797E+02  0.17024241328E+03  0.17344820387E+03  0.00000000000E+00 0. -1.
         22    1    4    4    0    0 -0.70590481681E+01  0.35018304893E+01  0.33696205643E+02  0.34605306710E+02  0.00000000000E+00 0. -1.
<mgrwt>
<rscale>  0 0.94053076E+02</rscale>
<asrwt>0</asrwt>
<pdfrwt beam="2">  1        1 0.12929500E-02 0.94053076E+02</pdfrwt>
<pdfrwt beam="1">  1       -1 0.40483456E-01 0.94053076E+02</pdfrwt>
<totfact> 0.58659325E+04</totfact>
</mgrwt>
</event>
<event>
 7    1  0.3345055E-009  0.1140203E+03  0.7818608E-02  0.1253301E+00
          1   -1    0    0  501    0  0.00000000000E+00  0.00000000000E+00  0.34259162909E+03  0.34259162912E+03  0.50400000000E-02 0. -1.
         -1   -1    0    0    0  501 -0.00000000000E+00 -0.00000000000E+00 -0.94869729458E+01  0.94869742845E+01  0.50400000000E-02 0.  1.
         23    2    1    2    0    0  0.00000000000E+00  0.00000000000E+00  0.33310465614E+03  0.35207860341E+03  0.11402030975E+03 0.  0.
    9000005    2    3    3    0    0 -0.26697701347E+02 -0.47020015601E+02  0.11205416693E+03  0.12451110154E+03  0.48196428314E+01 0.  0.
         22    1    3    3    0    0  0.26697701347E+02  0.47020015601E+02  0.22105048922E+03  0.22756750187E+03  0.00000000000E+00 0.  1.
         22    1    4    4    0    0 -0.12540016576E+02 -0.23300390872E+02  0.60183190151E+02  0.65743262828E+02  0.00000000000E+00 0.  1.
         22    1    4    4    0    0 -0.14157684771E+02 -0.23719624728E+02  0.51870976775E+02  0.58767838712E+02  0.00000000000E+00 0.  1.
<mgrwt>
<rscale>  0 0.11402031E+03</rscale>
<asrwt>0</asrwt>
<pdfrwt beam="1">  1        1 0.52706403E-01 0.11402031E+03</pdfrwt>
<pdfrwt beam="2">  1       -1 0.14595345E-02 0.11402031E+03</pdfrwt>
<totfact> 0.71950269E+04</totfact>
</mgrwt>
</event>
<event>
 7    1  0.3345055E-009  0.8504256E+02  0.7818608E-02  0.1315321E+00
          1   -1    0    0  501    0  0.00000000000E+00  0.00000000000E+00  0.30291649298E+03  0.30291649302E+03  0.50400000000E-02 0. -1.
         -1   -1    0    0    0  501 -0.00000000000E+00 -0.00000000000E+00 -0.59688365032E+01  0.59688386310E+01  0.50400000000E-02 0.  1.
         23    2    1    2    0    0  0.00000000000E+00  0.35527136788E-14  0.29694765648E+03  0.30888533165E+03  0.85042562422E+02 0.  0.
    9000005    2    3    3    0    0  0.32605845974E+01  0.29057356742E+02  0.25988945164E+03  0.26168075625E+03  0.89067237429E+01 0.  0.
         22    1    3    3    0    0 -0.32605845974E+01 -0.29057356742E+02  0.37058204838E+02  0.47204575399E+02  0.00000000000E+00 0.  1.
         22    1    4    4    0    0  0.44169439092E+01  0.28959833961E+02  0.24476225650E+03  0.24650911461E+03  0.00000000000E+00 0. -1.
         22    1    4    4    0    0 -0.11563593119E+01  0.97522781461E-01  0.15127195138E+02  0.15171641648E+02  0.00000000000E+00 0. -1.
<mgrwt>
<rscale>  0 0.85042562E+02</rscale>
<asrwt>0</asrwt>
<pdfrwt beam="1">  1        1 0.46602542E-01 0.85042562E+02</pdfrwt>
<pdfrwt beam="2">  1       -1 0.91828263E-03 0.85042562E+02</pdfrwt>
<totfact> 0.15441231E+05</totfact>
</mgrwt>
</event>
<event>
 7    1  0.3345055E-009  0.9158919E+02  0.7818608E-02  0.1299048E+00
         -1   -1    0    0    0  501 -0.00000000000E+00  0.00000000000E+00  0.26282135687E+01  0.26282184012E+01  0.50400000000E-02 0.  1.
          1   -1    0    0  501    0  0.00000000000E+00 -0.00000000000E+00 -0.79793475296E+03  0.79793475297E+03  0.50400000000E-02 0. -1.
         23    2    1    2    0    0  0.00000000000E+00  0.00000000000E+00 -0.79530653939E+03  0.80056297137E+03  0.91589188999E+02 0.  0.
    9000005    2    3    3    0    0 -0.13683501699E+02  0.22776068099E+02 -0.72361691102E+03  0.72410781908E+03  0.21707696601E+01 0.  0.
         22    1    3    3    0    0  0.13683501699E+02 -0.22776068099E+02 -0.71689628369E+02  0.76455152295E+02  0.00000000000E+00 0.  1.
         22    1    4    4    0    0 -0.54485335974E+01  0.10532825388E+02 -0.34353199052E+03  0.34373660765E+03  0.00000000000E+00 0. -1.
         22    1    4    4    0    0 -0.82349681021E+01  0.12243242711E+02 -0.38008492050E+03  0.38037121143E+03  0.00000000000E+00 0. -1.
<mgrwt>
<rscale>  0 0.91589189E+02</rscale>
<asrwt>0</asrwt>
<pdfrwt beam="2">  1        1 0.12275900E+00 0.91589189E+02</pdfrwt>
<pdfrwt beam="1">  1       -1 0.40434156E-03 0.91589189E+02</pdfrwt>
<totfact> 0.13965376E+05</totfact>
</mgrwt>
</event>
<event>
 7    1  0.3345055E-009  0.8946330E+02  0.7818608E-02  0.1304157E+00
          1   -1    0    0  501    0  0.00000000000E+00  0.00000000000E+00  0.38223817050E+03  0.38223817054E+03  0.50400000000E-02 0. -1.
         -1   -1    0    0    0  501 -0.00000000000E+00 -0.00000000000E+00 -0.52347463180E+01  0.52347487443E+01  0.50400000000E-02 0.  1.
         23    2    1    2    0    0  0.00000000000E+00  0.00000000000E+00  0.37700342419E+03  0.38747291928E+03  0.89463295985E+02 0.  0.
    9000005    2    3    3    0    0 -0.39988589031E+02  0.75637333407E+01  0.26726991217E+03  0.27043557066E+03  0.67745559156E+01 0.  0.
         22    1    3    3    0    0  0.39988589031E+02 -0.75637333407E+01  0.10973351201E+03  0.11703734863E+03  0.00000000000E+00 0.  1.
         22    1    4    4    0    0 -0.32437954864E+02  0.68972874628E+01  0.19876516557E+03  0.20151274038E+03  0.00000000000E+00 0.  1.
         22    1    4    4    0    0 -0.75506341677E+01  0.66644587793E+00  0.68504746605E+02  0.68922830281E+02  0.00000000000E+00 0.  1.
<mgrwt>
<rscale>  0 0.89463296E+02</rscale>
<asrwt>0</asrwt>
<pdfrwt beam="1">  1        1 0.58805882E-01 0.89463296E+02</pdfrwt>
<pdfrwt beam="2">  1       -1 0.80534565E-03 0.89463296E+02</pdfrwt>
<totfact> 0.14078259E+05</totfact>
</mgrwt>
</event>
<event>
 7    1  0.3345055E-009  0.9254075E+02  0.7818608E-02  0.1296813E+00
          1   -1    0    0  501    0  0.00000000000E+00  0.00000000000E+00  0.14169504155E+02  0.14169505051E+02  0.50400000000E-02 0. -1.
         -1   -1    0    0    0  501 -0.00000000000E+00 -0.00000000000E+00 -0.15109546031E+03  0.15109546039E+03  0.50400000000E-02 0.  1.
         23    2    1    2    0    0  0.00000000000E+00  0.17763568394E-14 -0.13692595615E+03  0.16526496544E+03  0.92540754990E+02 0.  0.
    9000005    2    3    3    0    0 -0.39452295793E+02 -0.14005645810E+02 -0.35138294863E+02  0.55204210635E+02  0.77565035960E+01 0.  0.
         22    1    3    3    0    0  0.39452295793E+02  0.14005645810E+02 -0.10178766129E+03  0.11006075481E+03  0.00000000000E+00 0. -1.
         22    1    4    4    0    0 -0.38776124596E+02 -0.14806946927E+02 -0.33982141265E+02  0.53643447325E+02  0.00000000000E+00 0.  1.
         22    1    4    4    0    0 -0.67617119743E+00  0.80130111641E+00 -0.11561535985E+01  0.15607633103E+01  0.00000000000E+00 0.  1.
<mgrwt>
<rscale>  0 0.92540755E+02</rscale>
<asrwt>0</asrwt>
<pdfrwt beam="1">  1        1 0.21799239E-02 0.92540755E+02</pdfrwt>
<pdfrwt beam="2">  1       -1 0.23245454E-01 0.92540755E+02</pdfrwt>
<totfact> 0.71834455E+04</totfact>
</mgrwt>
</event>
<event>
 7    1  0.3345055E-009  0.9325357E+02  0.7818608E-02  0.1295159E+00
         -1   -1    0    0    0  501 -0.00000000000E+00  0.00000000000E+00  0.13166370000E+01  0.13166466463E+01  0.50400000000E-02 0.  1.
          1   -1    0    0  501    0  0.00000000000E+00 -0.00000000000E+00 -0.16512135715E+04  0.16512135715E+04  0.50400000000E-02 0. -1.
         23    2    1    2    0    0 -0.17763568394E-14  0.00000000000E+00 -0.16498969345E+04  0.16525302182E+04  0.93253565292E+02 0.  0.
    9000005    2    3    3    0    0  0.11235079951E+02  0.97849316409E+01 -0.16068415000E+04  0.16069699026E+04  0.13809055084E+02 0.  0.
         22    1    3    3    0    0 -0.11235079951E+02 -0.97849316409E+01 -0.43055434534E+02  0.45560315534E+02  0.00000000000E+00 0.  1.
         22    1    4    4    0    0  0.25045165522E+01  0.11166745373E+02 -0.86250986608E+03  0.86258578582E+03  0.00000000000E+00 0. -1.
         22    1    4    4    0    0  0.87305633986E+01 -0.13818137318E+01 -0.74433163389E+03  0.74438411681E+03  0.00000000000E+00 0. -1.
<mgrwt>
<rscale>  0 0.93253565E+02</rscale>
<asrwt>0</asrwt>
<pdfrwt beam="2">  1        1 0.25403120E+00 0.93253565E+02</pdfrwt>
<pdfrwt beam="1">  1       -1 0.20256160E-03 0.93253565E+02</pdfrwt>
<totfact> 0.95364591E+04</totfact>
</mgrwt>
</event>
<event>
 7    1  0.3345055E-009  0.8540520E+02  0.7818608E-02  0.1314376E+00
          1   -1    0    0  501    0  0.00000000000E+00  0.00000000000E+00  0.14548949367E+02  0.14548950240E+02  0.50400000000E-02 0. -1.
         -1   -1    0    0    0  501 -0.00000000000E+00 -0.00000000000E+00 -0.12533633298E+03  0.12533633308E+03  0.50400000000E-02 0.  1.
         23    2    1    2    0    0  0.00000000000E+00  0.00000000000E+00 -0.11078738361E+03  0.13988528332E+03  0.85405199619E+02 0.  0.
    9000005    2    3    3    0    0  0.11150379049E+02 -0.31922994265E+02 -0.17891977584E+02  0.41026975743E+02  0.14821651763E+02 0.  0.
         22    1    3    3    0    0 -0.11150379049E+02  0.31922994265E+02 -0.92895406027E+02  0.98858307576E+02  0.00000000000E+00 0.  1.
         22    1    4    4    0    0  0.80451746030E+01 -0.25311376375E+02 -0.62523789548E+01  0.27285213046E+02  0.00000000000E+00 0. -1.
         22    1    4    4    0    0  0.31052044457E+01 -0.66116178903E+01 -0.11639598629E+02  0.13741762697E+02  0.00000000000E+00 0. -1.
<mgrwt>
<rscale>  0 0.85405200E+02</rscale>
<asrwt>0</asrwt>
<pdfrwt beam="1">  1        1 0.22383001E-02 0.85405200E+02</pdfrwt>
<pdfrwt beam="2">  1       -1 0.19282512E-01 0.85405200E+02</pdfrwt>
<totfact> 0.92139020E+04</totfact>
</mgrwt>
</event>
<event>
 7    1  0.3345055E-009  0.9089177E+02  0.7818608E-02  0.1300706E+00
          1   -1    0    0  501    0  0.00000000000E+00  0.00000000000E+00  0.35360135796E+03  0.35360135799E+03  0.50400000000E-02 0. -1.
         -1   -1    0    0    0  501 -0.00000000000E+00 -0.00000000000E+00 -0.58408377078E+01  0.58408398823E+01  0.50400000000E-02 0.  1.
         23    2    1    2    0    0  0.00000000000E+00  0.00000000000E+00  0.34776052025E+03  0.35944219787E+03  0.90891771736E+02 0.  0.
    9000005    2    3    3    0    0  0.32947858802E+02 -0.18889865928E+02  0.27219374795E+03  0.27486841050E+03  0.45627005361E+01 0.  0.
         22    1    3    3    0    0 -0.32947858802E+02  0.18889865928E+02  0.75566772302E+02  0.84573787373E+02  0.00000000000E+00 0.  1.
         22    1    4    4    0    0  0.22775851650E+02 -0.15126958959E+02  0.20189016915E+03  0.20373317036E+03  0.00000000000E+00 0.  1.
         22    1    4    4    0    0  0.10172007152E+02 -0.37629069690E+01  0.70303578800E+02  0.71135240145E+02  0.00000000000E+00 0.  1.
<mgrwt>
<rscale>  0 0.90891772E+02</rscale>
<asrwt>0</asrwt>
<pdfrwt beam="1">  1        1 0.54400212E-01 0.90891772E+02</pdfrwt>
<pdfrwt beam="2">  1       -1 0.89859053E-03 0.90891772E+02</pdfrwt>
<totfact> 0.13317707E+05</totfact>
</mgrwt>
</event>
<event>
 7    1  0.3345055E-009  0.9108264E+02  0.7818608E-02  0.1300251E+00
         -1   -1    0    0    0  501 -0.00000000000E+00  0.00000000000E+00  0.91672606544E+02  0.91672606683E+02  0.50400000000E-02 0.  1.
          1   -1    0    0  501    0  0.00000000000E+00 -0.00000000000E+00 -0.22624117448E+02  0.22624118009E+02  0.50400000000E-02 0. -1.
         23    2    1    2    0    0  0.00000000000E+00  0.00000000000E+00  0.69048489097E+02  0.11429672469E+03  0.91082640655E+02 0.  0.
    9000005    2    3    3    0    0  0.29905461339E+02  0.21804777681E+02  0.30303766388E+01  0.38612009457E+02  0.10579184475E+02 0.  0.
         22    1    3    3    0    0 -0.29905461339E+02 -0.21804777681E+02  0.66018112458E+02  0.75684715234E+02  0.00000000000E+00 0. -1.
         22    1    4    4    0    0  0.19260339121E+01 -0.10044121781E+01  0.11658939611E+01  0.24653111736E+01  0.00000000000E+00 0. -1.
         22    1    4    4    0    0  0.27979427427E+02  0.22809189859E+02  0.18644826777E+01  0.36146698284E+02  0.00000000000E+00 0. -1.
<mgrwt>
<rscale>  0 0.91082641E+02</rscale>
<asrwt>0</asrwt>
<pdfrwt beam="2">  1        1 0.34806336E-02 0.91082641E+02</pdfrwt>
<pdfrwt beam="1">  1       -1 0.14103478E-01 0.91082641E+02</pdfrwt>
<totfact> 0.82890683E+04</totfact>
</mgrwt>
</event>
<event>
 7    1  0.3345055E-009  0.8523551E+02  0.7818608E-02  0.1314818E+00
          1   -1    0    0  501    0  0.00000000000E+00  0.00000000000E+00  0.10921158505E+03  0.10921158516E+03  0.50400000000E-02 0. -1.
         -1   -1    0    0    0  501 -0.00000000000E+00 -0.00000000000E+00 -0.16630770282E+02  0.16630771046E+02  0.50400000000E-02 0.  1.
         23    2    1    2    0    0  0.00000000000E+00  0.00000000000E+00  0.92580814763E+02  0.12584235621E+03  0.85235505240E+02 0.  0.
    9000005    2    3    3    0    0 -0.22510800780E+00 -0.42574552030E+02  0.45439681101E+02  0.62321260206E+02  0.25557192598E+01 0.  0.
         22    1    3    3    0    0  0.22510800780E+00  0.42574552030E+02  0.47141133662E+02  0.63521096001E+02  0.00000000000E+00 0. -1.
         22    1    4    4    0    0  0.10112945308E+01 -0.18358290516E+02  0.20491801059E+02  0.27531136154E+02  0.00000000000E+00 0.  1.
         22    1    4    4    0    0 -0.12364025386E+01 -0.24216261515E+02  0.24947880042E+02  0.34790124052E+02  0.00000000000E+00 0.  1.
<mgrwt>
<rscale>  0 0.85235505E+02</rscale>
<asrwt>0</asrwt>
<pdfrwt beam="1">  1        1 0.16801783E-01 0.85235505E+02</pdfrwt>
<pdfrwt beam="2">  1       -1 0.25585800E-02 0.85235505E+02</pdfrwt>
<totfact> 0.12720921E+05</totfact>
</mgrwt>
</event>
<event>
 7    1  0.3345055E-009  0.8879776E+02  0.7818608E-02  0.1305789E+00
          1   -1    0    0  501    0  0.00000000000E+00  0.00000000000E+00  0.22250293987E+02  0.22250294558E+02  0.50400000000E-02 0. -1.
         -1   -1    0    0    0  501 -0.00000000000E+00 -0.00000000000E+00 -0.88594814481E+02  0.88594814624E+02  0.50400000000E-02 0.  1.
         23    2    1    2    0    0  0.44408920985E-15  0.00000000000E+00 -0.66344520494E+02  0.11084510918E+03  0.88797763654E+02 0.  0.
    9000005    2    3    3    0    0 -0.58087259649E+00  0.33455047360E+02 -0.68787632699E+02  0.77295945197E+02  0.11106175072E+02 0.  0.
         22    1    3    3    0    0  0.58087259649E+00 -0.33455047360E+02  0.24431122044E+01  0.33549163985E+02  0.00000000000E+00 0. -1.
         22    1    4    4    0    0 -0.43599766985E+01  0.54428923282E+01 -0.14540507984E+02  0.16126402145E+02  0.00000000000E+00 0. -1.
         22    1    4    4    0    0  0.37791041021E+01  0.28012155032E+02 -0.54247124715E+02  0.61169543052E+02  0.00000000000E+00 0. -1.
<mgrwt>
<rscale>  0 0.88797764E+02</rscale>
<asrwt>0</asrwt>
<pdfrwt beam="1">  1        1 0.34231223E-02 0.88797764E+02</pdfrwt>
<pdfrwt beam="2">  1       -1 0.13629971E-01 0.88797764E+02</pdfrwt>
<totfact> 0.89007074E+04</totfact>
</mgrwt>
</event>
<event>
 7    1  0.3345055E-009  0.8953812E+02  0.7818608E-02  0.1303974E+00
          1   -1    0    0  501    0  0.00000000000E+00  0.00000000000E+00  0.18894568881E+03  0.18894568887E+03  0.50400000000E-02 0. -1.
         -1   -1    0    0    0  501 -0.00000000000E+00 -0.00000000000E+00 -0.10607644286E+02  0.10607645483E+02  0.50400000000E-02 0.  1.
         23    2    1    2    0    0  0.00000000000E+00  0.00000000000E+00  0.17833804452E+03  0.19955333436E+03  0.89538121096E+02 0.  0.
    9000005    2    3    3    0    0 -0.28241026692E+02  0.21941893231E+02  0.30528649671E+02  0.47478946398E+02  0.65764453301E+01 0.  0.
         22    1    3    3    0    0  0.28241026692E+02 -0.21941893231E+02  0.14780939485E+03  0.15207438796E+03  0.00000000000E+00 0. -1.
         22    1    4    4    0    0  0.36177831105E+00  0.12498044462E+00  0.41833164413E+00  0.56701412890E+00  0.00000000000E+00 0. -1.
         22    1    4    4    0    0 -0.28602805003E+02  0.21816912786E+02  0.30110318027E+02  0.46911932269E+02  0.00000000000E+00 0. -1.
<mgrwt>
<rscale>  0 0.89538121E+02</rscale>
<asrwt>0</asrwt>
<pdfrwt beam="1">  1        1 0.29068565E-01 0.89538121E+02</pdfrwt>
<pdfrwt beam="2">  1       -1 0.16319455E-02 0.89538121E+02</pdfrwt>
<totfact> 0.12294501E+05</totfact>
</mgrwt>
</event>
<event>
 7    1  0.3826685E-009  0.9126266E+02  0.7818608E-02  0.1299822E+00
          1   -1    0    0  501    0  0.00000000000E+00  0.00000000000E+00  0.40117527787E+03  0.40117527790E+03  0.50400000000E-02 0. -1.
         -1   -1    0    0    0  501 -0.00000000000E+00 -0.00000000000E+00 -0.51902940870E+01  0.51902965341E+01  0.50400000000E-02 0.  1.
         23    2    1    2    0    0  0.00000000000E+00  0.00000000000E+00  0.39598498378E+03  0.40636557443E+03  0.91262657778E+02 0.  0.
    9000005    2    3    3    0    0  0.20023323643E+02 -0.24553426181E+02  0.34248902512E+03  0.34419144943E+03  0.12853688411E+02 0.  0.
         22    1    3    3    0    0 -0.20023323643E+02  0.24553426181E+02  0.53495958657E+02  0.62174125000E+02  0.00000000000E+00 0.  1.
         22    1    4    4    0    0  0.46531019336E+01 -0.70555109570E+01  0.44625578860E+02  0.45418871420E+02  0.00000000000E+00 0. -1.
         22    1    4    4    0    0  0.15370221710E+02 -0.17497915224E+02  0.29786344626E+03  0.29877257801E+03  0.00000000000E+00 0. -1.
<mgrwt>
<rscale>  0 0.91262658E+02</rscale>
<asrwt>0</asrwt>
<pdfrwt beam="1">  1        1 0.61719280E-01 0.91262658E+02</pdfrwt>
<pdfrwt beam="2">  1       -1 0.79850689E-03 0.91262658E+02</pdfrwt>
<totfact> 0.13461939E+05</totfact>
</mgrwt>
</event>
<event>
 7    1  0.3345055E-009  0.9175313E+02  0.7818608E-02  0.1298661E+00
          1   -1    0    0  501    0  0.00000000000E+00  0.00000000000E+00  0.38730787205E+03  0.38730787209E+03  0.50400000000E-02 0. -1.
         -1   -1    0    0    0  501 -0.00000000000E+00 -0.00000000000E+00 -0.54340721592E+01  0.54340744965E+01  0.50400000000E-02 0.  1.
         23    2    1    2    0    0  0.00000000000E+00  0.00000000000E+00  0.38187379990E+03  0.39274194658E+03  0.91753133788E+02 0.  0.
    9000005    2    3    3    0    0 -0.68991601752E+01 -0.25499719228E+02  0.35046963213E+03  0.35170469710E+03  0.13015253692E+02 0.  0.
         22    1    3    3    0    0  0.68991601752E+01  0.25499719228E+02  0.31404167769E+02  0.41037249482E+02  0.00000000000E+00 0.  1.
         22    1    4    4    0    0 -0.51401532557E+01 -0.19072082250E+01  0.88180052833E+02  0.88350327313E+02  0.00000000000E+00 0.  1.
         22    1    4    4    0    0 -0.17590069195E+01 -0.23592511003E+02  0.26228957929E+03  0.26335436979E+03  0.00000000000E+00 0.  1.
<mgrwt>
<rscale>  0 0.91753134E+02</rscale>
<asrwt>0</asrwt>
<pdfrwt beam="1">  1        1 0.59585829E-01 0.91753134E+02</pdfrwt>
<pdfrwt beam="2">  1       -1 0.83601125E-03 0.91753134E+02</pdfrwt>
<totfact> 0.13194238E+05</totfact>
</mgrwt>
</event>
<event>
 7    1  0.3345055E-009  0.8537497E+02  0.7818608E-02  0.1314455E+00
         -1   -1    0    0    0  501 -0.00000000000E+00  0.00000000000E+00  0.28864526871E+03  0.28864526875E+03  0.50400000000E-02 0.  1.
          1   -1    0    0  501    0  0.00000000000E+00 -0.00000000000E+00 -0.63130127979E+01  0.63130148098E+01  0.50400000000E-02 0. -1.
         23    2    1    2    0    0  0.00000000000E+00  0.00000000000E+00  0.28233225591E+03  0.29495828356E+03  0.85374974755E+02 0.  0.
    9000005    2    3    3    0    0 -0.35454390092E+02  0.62789534774E+01  0.21633477086E+03  0.21977778698E+03  0.14321436117E+02 0.  0.
         22    1    3    3    0    0  0.35454390092E+02 -0.62789534774E+01  0.65997485047E+02  0.75180496581E+02  0.00000000000E+00 0. -1.
         22    1    4    4    0    0 -0.10604700595E+02  0.86490391535E+01  0.69116993615E+02  0.70458671286E+02  0.00000000000E+00 0.  1.
         22    1    4    4    0    0 -0.24849689497E+02 -0.23700856761E+01  0.14721777725E+03  0.14931911570E+03  0.00000000000E+00 0.  1.
<mgrwt>
<rscale>  0 0.85374975E+02</rscale>
<asrwt>0</asrwt>
<pdfrwt beam="2">  1        1 0.97123297E-03 0.85374975E+02</pdfrwt>
<pdfrwt beam="1">  1       -1 0.44406961E-01 0.85374975E+02</pdfrwt>
<totfact> 0.72998552E+04</totfact>
</mgrwt>
</event>
<event>
 7    1  0.3345055E-009  0.9144608E+02  0.7818608E-02  0.1299387E+00
          1   -1    0    0  501    0  0.00000000000E+00  0.00000000000E+00  0.14780894113E+02  0.14780894972E+02  0.50400000000E-02 0. -1.
         -1   -1    0    0    0  501 -0.00000000000E+00 -0.00000000000E+00 -0.14143909318E+03  0.14143909327E+03  0.50400000000E-02 0.  1.
         23    2    1    2    0    0  0.17763568394E-14  0.00000000000E+00 -0.12665819907E+03  0.15621998824E+03  0.91446078840E+02 0.  0.
    9000005    2    3    3    0    0  0.97177545594E+01  0.27270876233E+02 -0.34297123610E+01  0.29636437256E+02  0.53310451281E+01 0.  0.
         22    1    3    3    0    0 -0.97177545594E+01 -0.27270876233E+02 -0.12322848670E+03  0.12658355098E+03  0.00000000000E+00 0.  1.
         22    1    4    4    0    0  0.10838976100E+01  0.12734867895E+01 -0.13766314179E+01  0.21660370940E+01  0.00000000000E+00 0.  1.
         22    1    4    4    0    0  0.86338569493E+01  0.25997389444E+02 -0.20530809431E+01  0.27470400162E+02  0.00000000000E+00 0.  1.
<mgrwt>
<rscale>  0 0.91446079E+02</rscale>
<asrwt>0</asrwt>
<pdfrwt beam="1">  1        1 0.22739839E-02 0.91446079E+02</pdfrwt>
<pdfrwt beam="2">  1       -1 0.21759860E-01 0.91446079E+02</pdfrwt>
<totfact> 0.75227534E+04</totfact>
</mgrwt>
</event>
<event>
 7    1  0.3345055E-009  0.8994889E+02  0.7818608E-02  0.1302976E+00
          1   -1    0    0  501    0  0.00000000000E+00  0.00000000000E+00  0.82992695121E+02  0.82992695274E+02  0.50400000000E-02 0. -1.
         -1   -1    0    0    0  501 -0.00000000000E+00 -0.00000000000E+00 -0.24372031330E+02  0.24372031851E+02  0.50400000000E-02 0.  1.
         23    2    1    2    0    0  0.00000000000E+00  0.00000000000E+00  0.58620663791E+02  0.10736472712E+03  0.89948887749E+02 0.  0.
    9000005    2    3    3    0    0  0.37347278138E+02 -0.22319914034E+01  0.12631052130E+01  0.38883412184E+02  0.10513008055E+02 0.  0.
         22    1    3    3    0    0 -0.37347278138E+02  0.22319914034E+01  0.57357558578E+02  0.68481314940E+02  0.00000000000E+00 0. -1.
         22    1    4    4    0    0  0.24400178791E+02 -0.16887742609E+01 -0.42069366906E+01  0.24817715444E+02  0.00000000000E+00 0. -1.
         22    1    4    4    0    0  0.12947099347E+02 -0.54321714255E+00  0.54700419036E+01  0.14065696741E+02  0.00000000000E+00 0. -1.
<mgrwt>
<rscale>  0 0.89948888E+02</rscale>
<asrwt>0</asrwt>
<pdfrwt beam="1">  1        1 0.12768107E-01 0.89948888E+02</pdfrwt>
<pdfrwt beam="2">  1       -1 0.37495433E-02 0.89948888E+02</pdfrwt>
<totfact> 0.10516325E+05</totfact>
</mgrwt>
</event>
<event>
 7    1  0.3345055E-009  0.9384064E+02  0.7818608E-02  0.1293809E+00
          1   -1    0    0  501    0  0.00000000000E+00  0.00000000000E+00  0.57616198104E+03  0.57616198107E+03  0.50400000000E-02 0. -1.
         -1   -1    0    0    0  501 -0.00000000000E+00 -0.00000000000E+00 -0.38210008079E+01  0.38210041319E+01  0.50400000000E-02 0.  1.
         23    2    1    2    0    0  0.00000000000E+00  0.00000000000E+00  0.57234098024E+03  0.57998298520E+03  0.93840638646E+02 0.  0.
    9000005    2    3    3    0    0 -0.18284260120E+02 -0.33039753754E+01  0.55235057598E+03  0.55269110575E+03  0.55739724502E+01 0.  0.
         22    1    3    3    0    0  0.18284260120E+02  0.33039753754E+01  0.19990404254E+02  0.27291879445E+02  0.00000000000E+00 0.  1.
         22    1    4    4    0    0 -0.16843567180E+02 -0.20778464953E+01  0.44437630036E+03  0.44470025806E+03  0.00000000000E+00 0. -1.
         22    1    4    4    0    0 -0.14406929395E+01 -0.12261288801E+01  0.10797427562E+03  0.10799084769E+03  0.00000000000E+00 0. -1.
<mgrwt>
<rscale>  0 0.93840639E+02</rscale>
<asrwt>0</asrwt>
<pdfrwt beam="1">  1        1 0.88640253E-01 0.93840639E+02</pdfrwt>
<pdfrwt beam="2">  1       -1 0.58784688E-03 0.93840639E+02</pdfrwt>
<totfact> 0.13082024E+05</totfact>
</mgrwt>
</event>
<event>
 7    1  0.3345055E-009  0.8995943E+02  0.7818608E-02  0.1302950E+00
          1   -1    0    0  501    0  0.00000000000E+00  0.00000000000E+00  0.71545434150E+02  0.71545434328E+02  0.50400000000E-02 0. -1.
         -1   -1    0    0    0  501 -0.00000000000E+00 -0.00000000000E+00 -0.28278180537E+02  0.28278180986E+02  0.50400000000E-02 0.  1.
         23    2    1    2    0    0  0.00000000000E+00  0.00000000000E+00  0.43267253613E+02  0.99823615314E+02  0.89959429407E+02 0.  0.
    9000005    2    3    3    0    0  0.23776451466E+02  0.35027010910E+02  0.95544876330E+01  0.45705580173E+02  0.14335295164E+02 0.  0.
         22    1    3    3    0    0 -0.23776451466E+02 -0.35027010910E+02  0.33712765980E+02  0.54118035141E+02  0.00000000000E+00 0. -1.
         22    1    4    4    0    0  0.13823863154E+02  0.21070850585E+02  0.12791294058E+02  0.28261230344E+02  0.00000000000E+00 0. -1.
         22    1    4    4    0    0  0.99525883117E+01  0.13956160325E+02 -0.32368064254E+01  0.17444349829E+02  0.00000000000E+00 0. -1.
<mgrwt>
<rscale>  0 0.89959429E+02</rscale>
<asrwt>0</asrwt>
<pdfrwt beam="1">  1        1 0.11006990E-01 0.89959429E+02</pdfrwt>
<pdfrwt beam="2">  1       -1 0.43504894E-02 0.89959429E+02</pdfrwt>
<totfact> 0.10273018E+05</totfact>
</mgrwt>
</event>
<event>
 7    1  0.3345055E-009  0.9208728E+02  0.7818608E-02  0.1297874E+00
          1   -1    0    0  501    0  0.00000000000E+00  0.00000000000E+00  0.82454118378E+01  0.82454133781E+01  0.50400000000E-02 0. -1.
         -1   -1    0    0    0  501 -0.00000000000E+00 -0.00000000000E+00 -0.25711471757E+03  0.25711471762E+03  0.50400000000E-02 0.  1.
         23    2    1    2    0    0  0.00000000000E+00  0.44408920985E-15 -0.24886930573E+03  0.26536013099E+03  0.92087283526E+02 0.  0.
    9000005    2    3    3    0    0 -0.39056700599E+02  0.20115354854E+01 -0.59805476999E+02  0.72293812153E+02  0.10964855671E+02 0.  0.
         22    1    3    3    0    0  0.39056700599E+02 -0.20115354854E+01 -0.18906382873E+03  0.19306631884E+03  0.00000000000E+00 0.  1.
         22    1    4    4    0    0 -0.30272189051E+02  0.40681533117E+01 -0.52263901058E+02  0.60534871397E+02  0.00000000000E+00 0. -1.
         22    1    4    4    0    0 -0.87845115486E+01 -0.20566178264E+01 -0.75415759408E+01  0.11758940756E+02  0.00000000000E+00 0. -1.
<mgrwt>
<rscale>  0 0.92087284E+02</rscale>
<asrwt>0</asrwt>
<pdfrwt beam="1">  1        1 0.12685252E-02 0.92087284E+02</pdfrwt>
<pdfrwt beam="2">  1       -1 0.39556104E-01 0.92087284E+02</pdfrwt>
<totfact> 0.62500130E+04</totfact>
</mgrwt>
</event>
<event>
 7    1  0.3345055E-009  0.9023360E+02  0.7818608E-02  0.1302287E+00
         -1   -1    0    0    0  501 -0.00000000000E+00  0.00000000000E+00  0.15911084406E+02  0.15911085204E+02  0.50400000000E-02 0.  1.
          1   -1    0    0  501    0  0.00000000000E+00 -0.00000000000E+00 -0.12793128505E+03  0.12793128515E+03  0.50400000000E-02 0. -1.
         23    2    1    2    0    0  0.00000000000E+00  0.00000000000E+00 -0.11202020065E+03  0.14384237036E+03  0.90233597716E+02 0.  0.
    9000005    2    3    3    0    0 -0.20412853669E+02  0.38221981671E+02 -0.67732970271E+02  0.81883002605E+02  0.15474701164E+02 0.  0.
         22    1    3    3    0    0  0.20412853669E+02 -0.38221981671E+02 -0.44287230374E+02  0.61959367750E+02  0.00000000000E+00 0.  1.
         22    1    4    4    0    0 -0.20311892062E+02  0.22623573503E+02 -0.45527086469E+02  0.54745909798E+02  0.00000000000E+00 0.  1.
         22    1    4    4    0    0 -0.10096160641E+00  0.15598408168E+02 -0.22205883802E+02  0.27137092808E+02  0.00000000000E+00 0.  1.
<mgrwt>
<rscale>  0 0.90233598E+02</rscale>
<asrwt>0</asrwt>
<pdfrwt beam="2">  1        1 0.19681736E-01 0.90233598E+02</pdfrwt>
<pdfrwt beam="1">  1       -1 0.24478593E-02 0.90233598E+02</pdfrwt>
<totfact> 0.11206413E+05</totfact>
</mgrwt>
</event>
<event>
 7    1  0.3345055E-009  0.9303651E+02  0.7818608E-02  0.1295661E+00
         -1   -1    0    0    0  501 -0.00000000000E+00  0.00000000000E+00  0.54431887414E+03  0.54431887416E+03  0.50400000000E-02 0.  1.
          1   -1    0    0  501    0  0.00000000000E+00 -0.00000000000E+00 -0.39755140129E+01  0.39755172077E+01  0.50400000000E-02 0. -1.
         23    2    1    2    0    0  0.00000000000E+00  0.00000000000E+00  0.54034336013E+03  0.54829439137E+03  0.93036513131E+02 0.  0.
    9000005    2    3    3    0    0 -0.35321250151E+02 -0.15003584637E+02  0.42103173658E+03  0.42296298359E+03  0.12540494852E+02 0.  0.
         22    1    3    3    0    0  0.35321250151E+02  0.15003584637E+02  0.11931162354E+03  0.12533140778E+03  0.00000000000E+00 0. -1.
         22    1    4    4    0    0 -0.32150977295E+02 -0.10198462014E+02  0.38495103146E+03  0.38642591863E+03  0.00000000000E+00 0.  1.
         22    1    4    4    0    0 -0.31702728561E+01 -0.48051226234E+01  0.36080705126E+02  0.36537064959E+02  0.00000000000E+00 0.  1.
<mgrwt>
<rscale>  0 0.93036513E+02</rscale>
<asrwt>0</asrwt>
<pdfrwt beam="2">  1        1 0.61161792E-03 0.93036513E+02</pdfrwt>
<pdfrwt beam="1">  1       -1 0.83741347E-01 0.93036513E+02</pdfrwt>
<totfact> 0.42246173E+04</totfact>
</mgrwt>
</event>
<event>
 7    1  0.3345055E-009  0.9342973E+02  0.7818608E-02  0.1294752E+00
          1   -1    0    0  501    0  0.00000000000E+00  0.00000000000E+00  0.15444019692E+03  0.15444019700E+03  0.50400000000E-02 0. -1.
         -1   -1    0    0    0  501 -0.00000000000E+00 -0.00000000000E+00 -0.14130248465E+02  0.14130249364E+02  0.50400000000E-02 0.  1.
         23    2    1    2    0    0  0.00000000000E+00  0.00000000000E+00  0.14030994845E+03  0.16857044637E+03  0.93429726280E+02 0.  0.
    9000005    2    3    3    0    0 -0.31051557394E+02 -0.33962741042E+02  0.78410856632E+02  0.91439618780E+02  0.97608631338E+01 0.  0.
         22    1    3    3    0    0  0.31051557394E+02  0.33962741042E+02  0.61899091823E+02  0.77130827586E+02  0.00000000000E+00 0. -1.
         22    1    4    4    0    0 -0.47648823629E+01 -0.66042801281E+01  0.21980707837E+02  0.23440822020E+02  0.00000000000E+00 0.  1.
         22    1    4    4    0    0 -0.26286675031E+02 -0.27358460914E+02  0.56430148795E+02  0.67998796760E+02  0.00000000000E+00 0.  1.
<mgrwt>
<rscale>  0 0.93429726E+02</rscale>
<asrwt>0</asrwt>
<pdfrwt beam="1">  1        1 0.23760030E-01 0.93429726E+02</pdfrwt>
<pdfrwt beam="2">  1       -1 0.21738845E-02 0.93429726E+02</pdfrwt>
<totfact> 0.10554200E+05</totfact>
</mgrwt>
</event>
<event>
 7    1  0.3345055E-009  0.9047426E+02  0.7818608E-02  0.1301707E+00
          1   -1    0    0  501    0  0.00000000000E+00  0.00000000000E+00  0.10212655383E+03  0.10212655395E+03  0.50400000000E-02 0. -1.
         -1   -1    0    0    0  501 -0.00000000000E+00 -0.00000000000E+00 -0.20037863994E+02  0.20037864628E+02  0.50400000000E-02 0.  1.
         23    2    1    2    0    0 -0.44408920985E-15  0.00000000000E+00  0.82088689833E+02  0.12216441858E+03  0.90474262464E+02 0.  0.
    9000005    2    3    3    0    0 -0.89371765328E+00 -0.38831575920E+02  0.70076903489E+02  0.81507647547E+02  0.14967771585E+02 0.  0.
         22    1    3    3    0    0  0.89371765328E+00  0.38831575920E+02  0.12011786344E+02  0.40656771033E+02  0.00000000000E+00 0.  1.
         22    1    4    4    0    0  0.62808055991E+01 -0.13550617902E+02  0.31082535140E+02  0.34484659709E+02  0.00000000000E+00 0. -1.
         22    1    4    4    0    0 -0.71745232523E+01 -0.25280958019E+02  0.38994368349E+02  0.47022987838E+02  0.00000000000E+00 0. -1.
<mgrwt>
<rscale>  0 0.90474262E+02</rscale>
<asrwt>0</asrwt>
<pdfrwt beam="1">  1        1 0.15711778E-01 0.90474262E+02</pdfrwt>
<pdfrwt beam="2">  1       -1 0.30827483E-02 0.90474262E+02</pdfrwt>
<totfact> 0.10704880E+05</totfact>
</mgrwt>
</event>
<event>
 7    1  0.3345055E-009  0.8649157E+02  0.7818608E-02  0.1311577E+00
          1   -1    0    0  501    0  0.00000000000E+00  0.00000000000E+00  0.24416426631E+03  0.24416426636E+03  0.50400000000E-02 0. -1.
         -1   -1    0    0    0  501 -0.00000000000E+00 -0.00000000000E+00 -0.76595883261E+01  0.76595899842E+01  0.50400000000E-02 0.  1.
         23    2    1    2    0    0  0.00000000000E+00  0.00000000000E+00  0.23650467799E+03  0.25182385635E+03  0.86491571363E+02 0.  0.
    9000005    2    3    3    0    0  0.21870722150E+02  0.36914343174E+02  0.13232764626E+03  0.13915686403E+03  0.36096567616E+01 0.  0.
         22    1    3    3    0    0 -0.21870722150E+02 -0.36914343174E+02  0.10417703172E+03  0.11266699232E+03  0.00000000000E+00 0. -1.
         22    1    4    4    0    0  0.71645890661E+01  0.12997826727E+02  0.51240376155E+02  0.53346518017E+02  0.00000000000E+00 0.  1.
         22    1    4    4    0    0  0.14706133084E+02  0.23916516448E+02  0.81087270108E+02  0.85810346013E+02  0.00000000000E+00 0.  1.
<mgrwt>
<rscale>  0 0.86491571E+02</rscale>
<asrwt>0</asrwt>
<pdfrwt beam="1">  1        1 0.37563731E-01 0.86491571E+02</pdfrwt>
<pdfrwt beam="2">  1       -1 0.11783984E-02 0.86491571E+02</pdfrwt>
<totfact> 0.14167328E+05</totfact>
</mgrwt>
</event>
<event>
 7    1  0.3345055E-009  0.8988956E+02  0.7818608E-02  0.1303119E+00
          1   -1    0    0  501    0  0.00000000000E+00  0.00000000000E+00  0.99363429368E+01  0.99363442151E+01  0.50400000000E-02 0. -1.
         -1   -1    0    0    0  501 -0.00000000000E+00 -0.00000000000E+00 -0.20329743346E+03  0.20329743352E+03  0.50400000000E-02 0.  1.
         23    2    1    2    0    0  0.00000000000E+00  0.00000000000E+00 -0.19336109052E+03  0.21323377773E+03  0.89889558013E+02 0.  0.
    9000005    2    3    3    0    0 -0.12347579062E+02 -0.42947422387E+02 -0.91633353883E+02  0.10212357928E+03  0.59674201770E+01 0.  0.
         22    1    3    3    0    0  0.12347579062E+02  0.42947422387E+02 -0.10172773664E+03  0.11111019845E+03  0.00000000000E+00 0.  1.
         22    1    4    4    0    0 -0.92872149448E+01 -0.32240099201E+02 -0.62531616329E+02  0.70963930265E+02  0.00000000000E+00 0. -1.
         22    1    4    4    0    0 -0.30603641169E+01 -0.10707323186E+02 -0.29101737554E+02  0.31159649019E+02  0.00000000000E+00 0. -1.
<mgrwt>
<rscale>  0 0.89889558E+02</rscale>
<asrwt>0</asrwt>
<pdfrwt beam="1">  1        1 0.15286684E-02 0.89889558E+02</pdfrwt>
<pdfrwt beam="2">  1       -1 0.31276525E-01 0.89889558E+02</pdfrwt>
<totfact> 0.71704221E+04</totfact>
</mgrwt>
</event>
<event>
 7    1  0.3345055E-009  0.9107750E+02  0.7818608E-02  0.1300263E+00
          1   -1    0    0  501    0  0.00000000000E+00  0.00000000000E+00  0.56995009986E+03  0.56995009988E+03  0.50400000000E-02 0. -1.
         -1   -1    0    0    0  501 -0.00000000000E+00 -0.00000000000E+00 -0.36385235235E+01  0.36385270142E+01  0.50400000000E-02 0.  1.
         23    2    1    2    0    0 -0.71054273576E-14  0.17763568394E-14  0.56631157634E+03  0.57358862690E+03  0.91077502229E+02 0.  0.
    9000005    2    3    3    0    0  0.42521349688E+02 -0.10403913376E+02  0.32836938415E+03  0.33165311190E+03  0.15843850378E+02 0.  0.
         22    1    3    3    0    0 -0.42521349688E+02  0.10403913376E+02  0.23794219219E+03  0.24193551499E+03  0.00000000000E+00 0.  1.
         22    1    4    4    0    0  0.39405671830E+02 -0.47105022700E+01  0.26551609435E+03  0.26846562566E+03  0.00000000000E+00 0.  1.
         22    1    4    4    0    0  0.31156778584E+01 -0.56934111059E+01  0.62853289802E+02  0.63187486241E+02  0.00000000000E+00 0.  1.
<mgrwt>
<rscale>  0 0.91077502E+02</rscale>
<asrwt>0</asrwt>
<pdfrwt beam="1">  1        1 0.87684578E-01 0.91077502E+02</pdfrwt>
<pdfrwt beam="2">  1       -1 0.55977346E-03 0.91077502E+02</pdfrwt>
<totfact> 0.14149229E+05</totfact>
</mgrwt>
</event>
<event>
 7    1  0.3345055E-009  0.9304885E+02  0.7818608E-02  0.1295632E+00
         -1   -1    0    0    0  501 -0.00000000000E+00  0.00000000000E+00  0.41328851707E+01  0.41328882438E+01  0.50400000000E-02 0.  1.
          1   -1    0    0  501    0  0.00000000000E+00 -0.00000000000E+00 -0.52373135158E+03  0.52373135161E+03  0.50400000000E-02 0. -1.
         23    2    1    2    0    0  0.00000000000E+00  0.00000000000E+00 -0.51959846641E+03  0.52786423985E+03  0.93048854992E+02 0.  0.
    9000005    2    3    3    0    0 -0.18293065147E+02  0.85974359908E+01 -0.49690760164E+03  0.49747629023E+03  0.12527674684E+02 0.  0.
         22    1    3    3    0    0  0.18293065147E+02 -0.85974359908E+01 -0.22690864767E+02  0.30387949618E+02  0.00000000000E+00 0.  1.
         22    1    4    4    0    0 -0.78881995891E+01  0.89089362508E+01 -0.34902173659E+03  0.34922452011E+03  0.00000000000E+00 0.  1.
         22    1    4    4    0    0 -0.10404865558E+02 -0.31150025993E+00 -0.14788586506E+03  0.14825177012E+03  0.00000000000E+00 0.  1.
<mgrwt>
<rscale>  0 0.93048855E+02</rscale>
<asrwt>0</asrwt>
<pdfrwt beam="2">  1        1 0.80574002E-01 0.93048855E+02</pdfrwt>
<pdfrwt beam="1">  1       -1 0.63582914E-03 0.93048855E+02</pdfrwt>
<totfact> 0.13264156E+05</totfact>
</mgrwt>
</event>
<event>
 7    1  0.3345055E-009  0.9112975E+02  0.7818608E-02  0.1300139E+00
         -1   -1    0    0    0  501 -0.00000000000E+00  0.00000000000E+00  0.14431580549E+02  0.14431581429E+02  0.50400000000E-02 0.  1.
          1   -1    0    0  501    0  0.00000000000E+00 -0.00000000000E+00 -0.14386212586E+03  0.14386212595E+03  0.50400000000E-02 0. -1.
         23    2    1    2    0    0  0.00000000000E+00  0.35527136788E-14 -0.12943054531E+03  0.15829370738E+03  0.91129752198E+02 0.  0.
    9000005    2    3    3    0    0 -0.99027287065E+01  0.27200087949E+02 -0.44114106616E+01  0.29967198624E+02  0.63768039864E+01 0.  0.
         22    1    3    3    0    0  0.99027287065E+01 -0.27200087949E+02 -0.12501913465E+03  0.12832650876E+03  0.00000000000E+00 0. -1.
         22    1    4    4    0    0 -0.56314012832E+00  0.44235251247E+01 -0.28677964109E+01  0.53017881500E+01  0.00000000000E+00 0.  1.
         22    1    4    4    0    0 -0.93395885782E+01  0.22776562824E+02 -0.15436142506E+01  0.24665410474E+02  0.00000000000E+00 0.  1.
<mgrwt>
<rscale>  0 0.91129752E+02</rscale>
<asrwt>0</asrwt>
<pdfrwt beam="2">  1        1 0.22132634E-01 0.91129752E+02</pdfrwt>
<pdfrwt beam="1">  1       -1 0.22202433E-02 0.91129752E+02</pdfrwt>
<totfact> 0.11143406E+05</totfact>
</mgrwt>
</event>
<event>
 7    1  0.3345055E-009  0.9138690E+02  0.7818608E-02  0.1299527E+00
         -1   -1    0    0    0  501 -0.00000000000E+00  0.00000000000E+00  0.88539500140E+02  0.88539500283E+02  0.50400000000E-02 0.  1.
          1   -1    0    0  501    0  0.00000000000E+00 -0.00000000000E+00 -0.23581468911E+02  0.23581469450E+02  0.50400000000E-02 0. -1.
         23    2    1    2    0    0  0.00000000000E+00  0.00000000000E+00  0.64958031228E+02  0.11212096973E+03  0.91386902961E+02 0.  0.
    9000005    2    3    3    0    0  0.12926163290E+02  0.43354162807E+02  0.30821573294E+02  0.55446752575E+02  0.88149793394E+01 0.  0.
         22    1    3    3    0    0 -0.12926163290E+02 -0.43354162807E+02  0.34136457934E+02  0.56674217157E+02  0.00000000000E+00 0.  1.
         22    1    4    4    0    0  0.51943186708E+01  0.16824220486E+02  0.69492564717E+01  0.18929540590E+02  0.00000000000E+00 0. -1.
         22    1    4    4    0    0  0.77318446188E+01  0.26529942321E+02  0.23872316822E+02  0.36517211986E+02  0.00000000000E+00 0. -1.
<mgrwt>
<rscale>  0 0.91386903E+02</rscale>
<asrwt>0</asrwt>
<pdfrwt beam="2">  1        1 0.36279183E-02 0.91386903E+02</pdfrwt>
<pdfrwt beam="1">  1       -1 0.13621462E-01 0.91386903E+02</pdfrwt>
<totfact> 0.82691795E+04</totfact>
</mgrwt>
</event>
<event>
 7    1  0.3345055E-009  0.9228969E+02  0.7818608E-02  0.1297400E+00
         -1   -1    0    0    0  501 -0.00000000000E+00  0.00000000000E+00  0.21254994256E+02  0.21254994854E+02  0.50400000000E-02 0.  1.
          1   -1    0    0  501    0  0.00000000000E+00 -0.00000000000E+00 -0.10018100476E+03  0.10018100489E+03  0.50400000000E-02 0. -1.
         23    2    1    2    0    0  0.00000000000E+00  0.44408920985E-15 -0.78926010505E+02  0.12143599974E+03  0.92289690102E+02 0.  0.
    9000005    2    3    3    0    0 -0.29525816268E+02 -0.33238010012E+01 -0.84763980523E+02  0.91155587371E+02  0.15543076767E+02 0.  0.
         22    1    3    3    0    0  0.29525816268E+02  0.33238010012E+01  0.58379700186E+01  0.30280412371E+02  0.00000000000E+00 0.  1.
         22    1    4    4    0    0 -0.15102077319E+02 -0.87277285186E+01 -0.54067340360E+02  0.56811295339E+02  0.00000000000E+00 0. -1.
         22    1    4    4    0    0 -0.14423738950E+02  0.54039275173E+01 -0.30696640163E+02  0.34344292032E+02  0.00000000000E+00 0. -1.
<mgrwt>
<rscale>  0 0.92289690E+02</rscale>
<asrwt>0</asrwt>
<pdfrwt beam="2">  1        1 0.15412462E-01 0.92289690E+02</pdfrwt>
<pdfrwt beam="1">  1       -1 0.32699992E-02 0.92289690E+02</pdfrwt>
<totfact> 0.10107871E+05</totfact>
</mgrwt>
</event>
<event>
 7    1  0.3345055E-009  0.9076356E+02  0.7818608E-02  0.1301013E+00
         -1   -1    0    0    0  501 -0.00000000000E+00  0.00000000000E+00  0.38146770709E+02  0.38146771042E+02  0.50400000000E-02 0.  1.
          1   -1    0    0  501    0  0.00000000000E+00 -0.00000000000E+00 -0.53988993812E+02  0.53988994048E+02  0.50400000000E-02 0. -1.
         23    2    1    2    0    0  0.00000000000E+00  0.00000000000E+00 -0.15842223103E+02  0.92135765090E+02  0.90763556430E+02 0.  0.
    9000005    2    3    3    0    0  0.23874625266E+01  0.31194399548E+02  0.25336492469E+02  0.40420417691E+02  0.36168736741E+01 0.  0.
         22    1    3    3    0    0 -0.23874625266E+01 -0.31194399548E+02 -0.41178715572E+02  0.51715347399E+02  0.00000000000E+00 0. -1.
         22    1    4    4    0    0  0.64933580699E+00  0.25906077256E+02  0.21295304775E+02  0.33541563488E+02  0.00000000000E+00 0. -1.
         22    1    4    4    0    0  0.17381267196E+01  0.52883222920E+01  0.40411876941E+01  0.68788542023E+01  0.00000000000E+00 0. -1.
<mgrwt>
<rscale>  0 0.90763556E+02</rscale>
<asrwt>0</asrwt>
<pdfrwt beam="2">  1        1 0.83059991E-02 0.90763556E+02</pdfrwt>
<pdfrwt beam="1">  1       -1 0.58687340E-02 0.90763556E+02</pdfrwt>
<totfact> 0.96057607E+04</totfact>
</mgrwt>
</event>
<event>
 7    1  0.3345055E-009  0.9500074E+02  0.7818608E-02  0.1291174E+00
         -1   -1    0    0    0  501 -0.00000000000E+00  0.00000000000E+00  0.20662596821E+03  0.20662596827E+03  0.50400000000E-02 0.  1.
          1   -1    0    0  501    0  0.00000000000E+00 -0.00000000000E+00 -0.10919659171E+02  0.10919660334E+02  0.50400000000E-02 0. -1.
         23    2    1    2    0    0  0.71054273576E-14  0.71054273576E-14  0.19570630904E+03  0.21754562860E+03  0.95000742774E+02 0.  0.
    9000005    2    3    3    0    0 -0.32075136779E+02 -0.29651820879E+02  0.14004003251E+03  0.14678703038E+03  0.52131276590E+01 0.  0.
         22    1    3    3    0    0  0.32075136779E+02  0.29651820879E+02  0.55666276521E+02  0.70758598224E+02  0.00000000000E+00 0. -1.
         22    1    4    4    0    0 -0.29185894906E+02 -0.25946677952E+02  0.11961000702E+03  0.12582368750E+03  0.00000000000E+00 0. -1.
         22    1    4    4    0    0 -0.28892418723E+01 -0.37051429278E+01  0.20430025500E+02  0.20963342878E+02  0.00000000000E+00 0. -1.
<mgrwt>
<rscale>  0 0.95000743E+02</rscale>
<asrwt>0</asrwt>
<pdfrwt beam="2">  1        1 0.16799479E-02 0.95000743E+02</pdfrwt>
<pdfrwt beam="1">  1       -1 0.31788606E-01 0.95000743E+02</pdfrwt>
<totfact> 0.61776203E+04</totfact>
</mgrwt>
</event>
<event>
 7    1  0.3345055E-009  0.9482575E+02  0.7818608E-02  0.1291569E+00
          1   -1    0    0  501    0  0.00000000000E+00  0.00000000000E+00  0.19092534803E+02  0.19092535469E+02  0.50400000000E-02 0. -1.
         -1   -1    0    0    0  501 -0.00000000000E+00 -0.00000000000E+00 -0.11774133903E+03  0.11774133914E+03  0.50400000000E-02 0.  1.
         23    2    1    2    0    0  0.00000000000E+00  0.00000000000E+00 -0.98648804227E+02  0.13683387461E+03  0.94825748953E+02 0.  0.
    9000005    2    3    3    0    0 -0.18378450521E+02 -0.25890700228E+02  0.14554381078E+01  0.31815042318E+02  0.14081249179E+01 0.  0.
         22    1    3    3    0    0  0.18378450521E+02  0.25890700228E+02 -0.10010424233E+03  0.10501883229E+03  0.00000000000E+00 0.  1.
         22    1    4    4    0    0 -0.56059733202E+00 -0.68268190934E+00 -0.18328210810E+00  0.90217309268E+00  0.00000000000E+00 0.  1.
         22    1    4    4    0    0 -0.17817853189E+02 -0.25208018319E+02  0.16387202159E+01  0.30912869226E+02  0.00000000000E+00 0.  1.
<mgrwt>
<rscale>  0 0.94825749E+02</rscale>
<asrwt>0</asrwt>
<pdfrwt beam="1">  1        1 0.29373132E-02 0.94825749E+02</pdfrwt>
<pdfrwt beam="2">  1       -1 0.18114052E-01 0.94825749E+02</pdfrwt>
<totfact> 0.71220925E+04</totfact>
</mgrwt>
</event>
<event>
 7    1  0.3345055E-009  0.9151085E+02  0.7818608E-02  0.1299234E+00
         -1   -1    0    0    0  501 -0.00000000000E+00  0.00000000000E+00  0.32659818045E+03  0.32659818049E+03  0.50400000000E-02 0.  1.
          1   -1    0    0  501    0  0.00000000000E+00 -0.00000000000E+00 -0.64101968225E+01  0.64101988038E+01  0.50400000000E-02 0. -1.
         23    2    1    2    0    0  0.00000000000E+00  0.88817841970E-15  0.32018798363E+03  0.33300837929E+03  0.91510850830E+02 0.  0.
    9000005    2    3    3    0    0  0.45085046214E+02  0.53072039708E+01  0.17692658504E+03  0.18272645712E+03  0.50113702983E+01 0.  0.
         22    1    3    3    0    0 -0.45085046214E+02 -0.53072039708E+01  0.14326139859E+03  0.15028192217E+03  0.00000000000E+00 0.  1.
         22    1    4    4    0    0  0.43691598331E+01  0.16112274078E+01  0.22725842123E+02  0.23198049737E+02  0.00000000000E+00 0. -1.
         22    1    4    4    0    0  0.40715886381E+02  0.36959765630E+01  0.15420074291E+03  0.15952840738E+03  0.00000000000E+00 0. -1.
<mgrwt>
<rscale>  0 0.91510851E+02</rscale>
<asrwt>0</asrwt>
<pdfrwt beam="2">  1        1 0.98618403E-03 0.91510851E+02</pdfrwt>
<pdfrwt beam="1">  1       -1 0.50245887E-01 0.91510851E+02</pdfrwt>
<totfact> 0.57965334E+04</totfact>
</mgrwt>
</event>
<event>
 7    1  0.3345055E-009  0.9172936E+02  0.7818608E-02  0.1298717E+00
         -1   -1    0    0    0  501 -0.00000000000E+00  0.00000000000E+00  0.63169357407E+02  0.63169357608E+02  0.50400000000E-02 0.  1.
          1   -1    0    0  501    0  0.00000000000E+00 -0.00000000000E+00 -0.33300463966E+02  0.33300464348E+02  0.50400000000E-02 0. -1.
         23    2    1    2    0    0 -0.35527136788E-14  0.00000000000E+00  0.29868893440E+02  0.96469821955E+02  0.91729361454E+02 0.  0.
    9000005    2    3    3    0    0  0.19979149596E+02  0.34864546673E+02  0.37441171373E+02  0.55579206572E+02  0.85149196169E+01 0.  0.
         22    1    3    3    0    0 -0.19979149596E+02 -0.34864546673E+02 -0.75722779325E+01  0.40890615383E+02  0.00000000000E+00 0. -1.
         22    1    4    4    0    0  0.10497256926E+01  0.53968138466E+01  0.22835800084E+01  0.59533403547E+01  0.00000000000E+00 0. -1.
         22    1    4    4    0    0  0.18929423903E+02  0.29467732827E+02  0.35157591364E+02  0.49625866217E+02  0.00000000000E+00 0. -1.
<mgrwt>
<rscale>  0 0.91729361E+02</rscale>
<asrwt>0</asrwt>
<pdfrwt beam="2">  1        1 0.51231484E-02 0.91729361E+02</pdfrwt>
<pdfrwt beam="1">  1       -1 0.97183626E-02 0.91729361E+02</pdfrwt>
<totfact> 0.86627316E+04</totfact>
</mgrwt>
</event>
<event>
 7    1  0.3345055E-009  0.8949338E+02  0.7818608E-02  0.1304083E+00
         -1   -1    0    0    0  501 -0.00000000000E+00  0.00000000000E+00  0.52762782860E+01  0.52762806931E+01  0.50400000000E-02 0.  1.
          1   -1    0    0  501    0  0.00000000000E+00 -0.00000000000E+00 -0.37948448868E+03  0.37948448872E+03  0.50400000000E-02 0. -1.
         23    2    1    2    0    0 -0.35527136788E-14  0.00000000000E+00 -0.37420821040E+03  0.38476076941E+03  0.89493379353E+02 0.  0.
    9000005    2    3    3    0    0 -0.31247919567E+02  0.14528264519E+02 -0.30975484051E+03  0.31167356234E+03  0.22012033721E+01 0.  0.
         22    1    3    3    0    0  0.31247919567E+02 -0.14528264519E+02 -0.64453369888E+02  0.73087207069E+02  0.00000000000E+00 0.  1.
         22    1    4    4    0    0 -0.86746421456E+01  0.37021018772E+01 -0.76583429128E+02  0.77162015212E+02  0.00000000000E+00 0. -1.
         22    1    4    4    0    0 -0.22573277421E+02  0.10826162642E+02 -0.23317141138E+03  0.23451154713E+03  0.00000000000E+00 0. -1.
<mgrwt>
<rscale>  0 0.89493379E+02</rscale>
<asrwt>0</asrwt>
<pdfrwt beam="2">  1        1 0.58382208E-01 0.89493379E+02</pdfrwt>
<pdfrwt beam="1">  1       -1 0.81173560E-03 0.89493379E+02</pdfrwt>
<totfact> 0.14048429E+05</totfact>
</mgrwt>
</event>
<event>
 6    1  0.3345055E-009  0.1388677E+03  0.7818608E-02  0.1214861E+00
         -1   -1    0    0    0  501 -0.00000000000E+00  0.00000000000E+00  0.26629396298E+02  0.26629396775E+02  0.50400000000E-02 0.  1.
          1   -1    0    0  501    0  0.00000000000E+00 -0.00000000000E+00 -0.18104283914E+03  0.18104283921E+03  0.50400000000E-02 0. -1.
    9000005    2    1    2    0    0  0.19293617175E+02 -0.64254536612E+02 -0.57235296312E+02  0.89585482697E+02  0.15773091869E+02 0.  0.
         22    1    1    2    0    0 -0.19293617175E+02  0.64254536612E+02 -0.97178146528E+02  0.11808675329E+03  0.00000000000E+00 0.  1.
         22    1    3    3    0    0  0.13125828799E+00 -0.26210304363E+02 -0.19370722336E+02  0.32591749989E+02  0.00000000000E+00 0.  1.
         22    1    3    3    0    0  0.19162358887E+02 -0.38044232250E+02 -0.37864573976E+02  0.56993732708E+02  0.00000000000E+00 0.  1.
<mgrwt>
<rscale>  0 0.13886773E+03</rscale>
<asrwt>0</asrwt>
<pdfrwt beam="2">  1        1 0.27852744E-01 0.13886773E+03</pdfrwt>
<pdfrwt beam="1">  1       -1 0.40968303E-02 0.13886773E+03</pdfrwt>
<totfact> 0.36428277E+04</totfact>
</mgrwt>
</event>
<event>
 7    1  0.3345055E-009  0.9122322E+02  0.7818608E-02  0.1299916E+00
         -1   -1    0    0    0  501 -0.00000000000E+00  0.00000000000E+00  0.52003481451E+01  0.52003505874E+01  0.50400000000E-02 0.  1.
          1   -1    0    0  501    0  0.00000000000E+00 -0.00000000000E+00 -0.40005364688E+03  0.40005364691E+03  0.50400000000E-02 0. -1.
         23    2    1    2    0    0  0.00000000000E+00 -0.44408920985E-15 -0.39485329873E+03  0.40525399750E+03  0.91223215067E+02 0.  0.
    9000005    2    3    3    0    0  0.44098628224E+02 -0.31640006903E+01 -0.14799395467E+03  0.15446676564E+03  0.17524715946E+01 0.  0.
         22    1    3    3    0    0 -0.44098628224E+02  0.31640006903E+01 -0.24685934407E+03  0.25078723186E+03  0.00000000000E+00 0.  1.
         22    1    4    4    0    0  0.39615190702E+01 -0.62799015458E+00 -0.12185949770E+02  0.12829083240E+02  0.00000000000E+00 0.  1.
         22    1    4    4    0    0  0.40137109154E+02 -0.25360105357E+01 -0.13580800490E+03  0.14163768240E+03  0.00000000000E+00 0.  1.
<mgrwt>
<rscale>  0 0.91223215E+02</rscale>
<asrwt>0</asrwt>
<pdfrwt beam="2">  1        1 0.61546691E-01 0.91223215E+02</pdfrwt>
<pdfrwt beam="1">  1       -1 0.80005407E-03 0.91223215E+02</pdfrwt>
<totfact> 0.13471238E+05</totfact>
</mgrwt>
</event>
<event>
 7    1  0.3345055E-009  0.9170120E+02  0.7818608E-02  0.1298784E+00
          1   -1    0    0  501    0  0.00000000000E+00  0.00000000000E+00  0.70036522174E+03  0.70036522176E+03  0.50400000000E-02 0. -1.
         -1   -1    0    0    0  501 -0.00000000000E+00 -0.00000000000E+00 -0.30016855019E+01  0.30016897331E+01  0.50400000000E-02 0.  1.
         23    2    1    2    0    0  0.00000000000E+00  0.00000000000E+00  0.69736353624E+03  0.70336691149E+03  0.91701202316E+02 0.  0.
    9000005    2    3    3    0    0 -0.11598191010E+02  0.26736349672E+02  0.61851931121E+03  0.61930882295E+03  0.11310588786E+02 0.  0.
         22    1    3    3    0    0  0.11598191010E+02 -0.26736349672E+02  0.78844225028E+02  0.84058088539E+02  0.00000000000E+00 0.  1.
         22    1    4    4    0    0  0.16275800752E+01  0.53127590689E+01  0.16254625998E+03  0.16264120345E+03  0.00000000000E+00 0.  1.
         22    1    4    4    0    0 -0.13225771085E+02  0.21423590603E+02  0.45597305123E+03  0.45666761951E+03  0.00000000000E+00 0.  1.
<mgrwt>
<rscale>  0 0.91701202E+02</rscale>
<asrwt>0</asrwt>
<pdfrwt beam="1">  1        1 0.10774852E+00 0.91701202E+02</pdfrwt>
<pdfrwt beam="2">  1       -1 0.46179799E-03 0.91701202E+02</pdfrwt>
<totfact> 0.14003342E+05</totfact>
</mgrwt>
</event>
<event>
 7    1  0.3345055E-009  0.9073736E+02  0.7818608E-02  0.1301076E+00
          1   -1    0    0  501    0  0.00000000000E+00  0.00000000000E+00  0.12179065164E+02  0.12179066207E+02  0.50400000000E-02 0.  1.
         -1   -1    0    0    0  501 -0.00000000000E+00 -0.00000000000E+00 -0.16900452381E+03  0.16900452389E+03  0.50400000000E-02 0. -1.
         23    2    1    2    0    0  0.00000000000E+00  0.00000000000E+00 -0.15682545865E+03  0.18118359010E+03  0.90737361873E+02 0.  0.
    9000005    2    3    3    0    0  0.50470431316E+01 -0.43774835441E+02 -0.81989524307E+02  0.94338176106E+02  0.15352540918E+02 0.  0.
         22    1    3    3    0    0 -0.50470431316E+01  0.43774835441E+02 -0.74835934343E+02  0.86845413991E+02  0.00000000000E+00 0. -1.
         22    1    4    4    0    0  0.22376959052E+01 -0.67429705796E+01 -0.45030801950E+01  0.84114604228E+01  0.00000000000E+00 0. -1.
         22    1    4    4    0    0  0.28093472264E+01 -0.37031864862E+02 -0.77486444112E+02  0.85926715683E+02  0.00000000000E+00 0. -1.
<mgrwt>
<rscale>  0 0.90737362E+02</rscale>
<asrwt>0</asrwt>
<pdfrwt beam="1">  1        1 0.18737025E-02 0.90737362E+02</pdfrwt>
<pdfrwt beam="2">  1       -1 0.26000694E-01 0.90737362E+02</pdfrwt>
<totfact> 0.73564529E+04</totfact>
</mgrwt>
</event>
<event>
 7    1  0.3345055E-009  0.9070833E+02  0.7818608E-02  0.1301145E+00
         -1   -1    0    0    0  501 -0.00000000000E+00  0.00000000000E+00  0.93554886794E+02  0.93554886930E+02  0.50400000000E-02 0.  1.
          1   -1    0    0  501    0  0.00000000000E+00 -0.00000000000E+00 -0.21987095525E+02  0.21987096103E+02  0.50400000000E-02 0. -1.
         23    2    1    2    0    0  0.35527136788E-14  0.71054273576E-14  0.71567791269E+02  0.11554198303E+03  0.90708329805E+02 0.  0.
    9000005    2    3    3    0    0 -0.14234013660E+02 -0.38789349682E+02  0.56902847387E+02  0.71698153676E+02  0.13981073143E+02 0.  0.
         22    1    3    3    0    0  0.14234013660E+02  0.38789349682E+02  0.14664943882E+02  0.43843829356E+02  0.00000000000E+00 0. -1.
         22    1    4    4    0    0 -0.16605676006E+02 -0.29905174462E+02  0.47618157859E+02  0.58630682182E+02  0.00000000000E+00 0. -1.
         22    1    4    4    0    0  0.23716623466E+01 -0.88841752198E+01  0.92846895277E+01  0.13067471494E+02  0.00000000000E+00 0. -1.
<mgrwt>
<rscale>  0 0.90708330E+02</rscale>
<asrwt>0</asrwt>
<pdfrwt beam="2">  1        1 0.33826301E-02 0.90708330E+02</pdfrwt>
<pdfrwt beam="1">  1       -1 0.14393060E-01 0.90708330E+02</pdfrwt>
<totfact> 0.83467069E+04</totfact>
</mgrwt>
</event>
<event>
 7    1  0.3345055E-009  0.9248634E+02  0.7818608E-02  0.1296940E+00
         -1   -1    0    0    0  501 -0.00000000000E+00  0.00000000000E+00  0.65293536094E+03  0.65293536096E+03  0.50400000000E-02 0.  1.
          1   -1    0    0  501    0  0.00000000000E+00 -0.00000000000E+00 -0.32751016590E+01  0.32751055370E+01  0.50400000000E-02 0. -1.
         23    2    1    2    0    0 -0.35527136788E-14  0.35527136788E-14  0.64966025928E+03  0.65621046649E+03  0.92486344130E+02 0.  0.
    9000005    2    3    3    0    0 -0.31660389915E+02  0.30277073603E+02  0.41042253007E+03  0.41299498065E+03  0.14110966686E+02 0.  0.
         22    1    3    3    0    0  0.31660389915E+02 -0.30277073603E+02  0.23923772921E+03  0.24321548584E+03  0.00000000000E+00 0.  1.
         22    1    4    4    0    0 -0.16781562468E+02  0.10605843512E+02  0.23658479561E+03  0.23741623843E+03  0.00000000000E+00 0. -1.
         22    1    4    4    0    0 -0.14878827447E+02  0.19671230091E+02  0.17383773446E+03  0.17557874222E+03  0.00000000000E+00 0. -1.
<mgrwt>
<rscale>  0 0.92486344E+02</rscale>
<asrwt>0</asrwt>
<pdfrwt beam="2">  1        1 0.50386179E-03 0.92486344E+02</pdfrwt>
<pdfrwt beam="1">  1       -1 0.10045165E+00 0.92486344E+02</pdfrwt>
<totfact> 0.37584391E+04</totfact>
</mgrwt>
</event>
<event>
 6    1  0.3345055E-009  0.1304310E+03  0.7818608E-02  0.1226818E+00
          1   -1    0    0  501    0  0.00000000000E+00  0.00000000000E+00  0.10743714691E+02  0.10743715873E+02  0.50400000000E-02 0. -1.
         -1   -1    0    0    0  501 -0.00000000000E+00 -0.00000000000E+00 -0.39586477266E+03  0.39586477269E+03  0.50400000000E-02 0.  1.
    9000005    2    1    2    0    0 -0.55095750225E+02  0.69721790876E+01 -0.91050549561E+02  0.10734001898E+03  0.12145950965E+02 0.  0.
         22    1    1    2    0    0  0.55095750225E+02 -0.69721790876E+01 -0.29407050841E+03  0.29926846959E+03  0.00000000000E+00 0.  1.
         22    1    3    3    0    0 -0.20541582795E+02  0.85599978243E+01 -0.35069486676E+02  0.41534312107E+02  0.00000000000E+00 0. -1.
         22    1    3    3    0    0 -0.34554167430E+02 -0.15878187367E+01 -0.55981062885E+02  0.65805706871E+02  0.00000000000E+00 0. -1.
<mgrwt>
<rscale>  0 0.13043095E+03</rscale>
<asrwt>0</asrwt>
<pdfrwt beam="1">  1        1 0.16528796E-02 0.13043095E+03</pdfrwt>
<pdfrwt beam="2">  1       -1 0.60902262E-01 0.13043095E+03</pdfrwt>
<totfact> 0.20727571E+04</totfact>
</mgrwt>
</event>
<event>
 7    1  0.3345055E-009  0.9388363E+02  0.7818608E-02  0.1293710E+00
          1   -1    0    0  501    0  0.00000000000E+00  0.00000000000E+00  0.30020583833E+03  0.30020583837E+03  0.50400000000E-02 0. -1.
         -1   -1    0    0    0  501 -0.00000000000E+00 -0.00000000000E+00 -0.73400757180E+01  0.73400774483E+01  0.50400000000E-02 0.  1.
         23    2    1    2    0    0  0.00000000000E+00  0.00000000000E+00  0.29286576261E+03  0.30754591582E+03  0.93883627048E+02 0.  0.
    9000005    2    3    3    0    0  0.13925447584E+02 -0.12230814775E+02  0.28739247568E+03  0.28822060107E+03  0.11539882286E+02 0.  0.
         22    1    3    3    0    0 -0.13925447584E+02  0.12230814775E+02  0.54732869361E+01  0.19325314755E+02  0.00000000000E+00 0.  1.
         22    1    4    4    0    0  0.66018200346E+01 -0.97729587543E+01  0.10419979905E+03  0.10486511752E+03  0.00000000000E+00 0. -1.
         22    1    4    4    0    0  0.73236275495E+01 -0.24578560209E+01  0.18319267663E+03  0.18335548355E+03  0.00000000000E+00 0. -1.
<mgrwt>
<rscale>  0 0.93883627E+02</rscale>
<asrwt>0</asrwt>
<pdfrwt beam="1">  1        1 0.46185512E-01 0.93883627E+02</pdfrwt>
<pdfrwt beam="2">  1       -1 0.11292426E-02 0.93883627E+02</pdfrwt>
<totfact> 0.11851020E+05</totfact>
</mgrwt>
</event>
<event>
 7    1  0.3345055E-009  0.8996533E+02  0.7818608E-02  0.1302936E+00
         -1   -1    0    0    0  501 -0.00000000000E+00  0.00000000000E+00  0.18515446872E+01  0.18515515467E+01  0.50400000000E-02 0.  1.
          1   -1    0    0  501    0  0.00000000000E+00 -0.00000000000E+00 -0.10928369388E+04  0.10928369388E+04  0.50400000000E-02 0. -1.
         23    2    1    2    0    0  0.00000000000E+00  0.00000000000E+00 -0.10909853941E+04  0.10946884903E+04  0.89965330852E+02 0.  0.
    9000005    2    3    3    0    0  0.14508701869E+02 -0.22764513670E+02 -0.98318002804E+03  0.98355468602E+03  0.28508492146E+01 0.  0.
         22    1    3    3    0    0 -0.14508701869E+02  0.22764513670E+02 -0.10780536604E+03  0.11113380431E+03  0.00000000000E+00 0.  1.
         22    1    4    4    0    0  0.13182986497E+02 -0.19678973657E+02 -0.83039648075E+03  0.83073423450E+03  0.00000000000E+00 0. -1.
         22    1    4    4    0    0  0.13257153721E+01 -0.30855400131E+01 -0.15278354729E+03  0.15282045152E+03  0.00000000000E+00 0. -1.
<mgrwt>
<rscale>  0 0.89965331E+02</rscale>
<asrwt>0</asrwt>
<pdfrwt beam="2">  1        1 0.16812824E+00 0.89965331E+02</pdfrwt>
<pdfrwt beam="1">  1       -1 0.28485443E-03 0.89965331E+02</pdfrwt>
<totfact> 0.13707383E+05</totfact>
</mgrwt>
</event>
<event>
 7    1  0.3345055E-009  0.8725951E+02  0.7818608E-02  0.1309627E+00
          1   -1    0    0  501    0  0.00000000000E+00  0.00000000000E+00  0.95073757611E+01  0.95073770970E+01  0.50400000000E-02 0. -1.
         -1   -1    0    0    0  501 -0.00000000000E+00 -0.00000000000E+00 -0.20021879135E+03  0.20021879141E+03  0.50400000000E-02 0.  1.
         23    2    1    2    0    0  0.00000000000E+00  0.00000000000E+00 -0.19071141559E+03  0.20972616851E+03  0.87259507919E+02 0.  0.
    9000005    2    3    3    0    0  0.37124073066E+02 -0.18114188422E+02 -0.12027536006E+03  0.12807104900E+03  0.15156211008E+02 0.  0.
         22    1    3    3    0    0 -0.37124073066E+02  0.18114188422E+02 -0.70436055530E+02  0.81655119508E+02  0.00000000000E+00 0. -1.
         22    1    4    4    0    0  0.25531612577E+02 -0.14456203704E+02 -0.10189155428E+03  0.10603175892E+03  0.00000000000E+00 0. -1.
         22    1    4    4    0    0  0.11592460490E+02 -0.36579847175E+01 -0.18383805782E+02  0.22039290085E+02  0.00000000000E+00 0. -1.
<mgrwt>
<rscale>  0 0.87259508E+02</rscale>
<asrwt>0</asrwt>
<pdfrwt beam="1">  1        1 0.14626735E-02 0.87259508E+02</pdfrwt>
<pdfrwt beam="2">  1       -1 0.30802888E-01 0.87259508E+02</pdfrwt>
<totfact> 0.77798186E+04</totfact>
</mgrwt>
</event>
<event>
 7    1  0.3345055E-009  0.9033334E+02  0.7818608E-02  0.1302046E+00
          1   -1    0    0  501    0  0.00000000000E+00  0.00000000000E+00  0.37355255942E+03  0.37355255946E+03  0.50400000000E-02 0. -1.
         -1   -1    0    0    0  501 -0.00000000000E+00 -0.00000000000E+00 -0.54611532804E+01  0.54611556061E+01  0.50400000000E-02 0.  1.
         23    2    1    2    0    0  0.00000000000E+00  0.00000000000E+00  0.36809140614E+03  0.37901371506E+03  0.90333343401E+02 0.  0.
    9000005    2    3    3    0    0  0.32596987457E+02 -0.29421525245E+02  0.17216520506E+03  0.17822709695E+03  0.13994660345E+02 0.  0.
         22    1    3    3    0    0 -0.32596987457E+02  0.29421525245E+02  0.19592620109E+03  0.20078661811E+03  0.00000000000E+00 0. -1.
         22    1    4    4    0    0  0.13601961004E+02 -0.46997472657E+01  0.67512910473E+02  0.69029660640E+02  0.00000000000E+00 0.  1.
         22    1    4    4    0    0  0.18995026453E+02 -0.24721777979E+02  0.10465229458E+03  0.10919743632E+03  0.00000000000E+00 0.  1.
<mgrwt>
<rscale>  0 0.90333343E+02</rscale>
<asrwt>0</asrwt>
<pdfrwt beam="1">  1        1 0.57469630E-01 0.90333343E+02</pdfrwt>
<pdfrwt beam="2">  1       -1 0.84017753E-03 0.90333343E+02</pdfrwt>
<totfact> 0.13667648E+05</totfact>
</mgrwt>
</event>
<event>
 7    1  0.3345055E-009  0.9293633E+02  0.7818608E-02  0.1295893E+00
          1   -1    0    0  501    0  0.00000000000E+00  0.00000000000E+00  0.18370567390E+03  0.18370567397E+03  0.50400000000E-02 0. -1.
         -1   -1    0    0    0  501 -0.00000000000E+00 -0.00000000000E+00 -0.11754075470E+02  0.11754076550E+02  0.50400000000E-02 0.  1.
         23    2    1    2    0    0 -0.35527136788E-14  0.00000000000E+00  0.17195159843E+03  0.19545975052E+03  0.92936332350E+02 0.  0.
    9000005    2    3    3    0    0  0.27295552262E+02 -0.20901764238E+02  0.23321323272E+02  0.42905204160E+02  0.10725740220E+02 0.  0.
         22    1    3    3    0    0 -0.27295552262E+02  0.20901764238E+02  0.14863027516E+03  0.15255454636E+03  0.00000000000E+00 0. -1.
         22    1    4    4    0    0  0.52950752714E+01  0.30384905397E+00  0.21095753810E+01  0.57079291047E+01  0.00000000000E+00 0. -1.
         22    1    4    4    0    0  0.22000476991E+02 -0.21205613292E+02  0.21211747891E+02  0.37197275055E+02  0.00000000000E+00 0. -1.
<mgrwt>
<rscale>  0 0.92936332E+02</rscale>
<asrwt>0</asrwt>
<pdfrwt beam="1">  1        1 0.28262409E-01 0.92936332E+02</pdfrwt>
<pdfrwt beam="2">  1       -1 0.18083196E-02 0.92936332E+02</pdfrwt>
<totfact> 0.11064018E+05</totfact>
</mgrwt>
</event>
<event>
 7    1  0.3345055E-009  0.8917826E+02  0.7818608E-02  0.1304854E+00
         -1   -1    0    0    0  501 -0.00000000000E+00  0.00000000000E+00  0.22506078731E+01  0.22506135163E+01  0.50400000000E-02 0.  1.
          1   -1    0    0  501    0  0.00000000000E+00 -0.00000000000E+00 -0.88340047360E+03  0.88340047361E+03  0.50400000000E-02 0. -1.
         23    2    1    2    0    0  0.00000000000E+00  0.00000000000E+00 -0.88114986572E+03  0.88565108713E+03  0.89178261169E+02 0.  0.
    9000005    2    3    3    0    0  0.15458539536E+02  0.32424730610E+02 -0.69435019504E+03  0.69542898912E+03  0.14455309344E+02 0.  0.
         22    1    3    3    0    0 -0.15458539536E+02 -0.32424730610E+02 -0.18679967069E+03  0.19022209800E+03  0.00000000000E+00 0.  1.
         22    1    4    4    0    0  0.17343633741E+02  0.31909795771E+02 -0.62742626756E+03  0.62847653728E+03  0.00000000000E+00 0. -1.
         22    1    4    4    0    0 -0.18850942054E+01  0.51493483858E+00 -0.66923927479E+02  0.66952451839E+02  0.00000000000E+00 0. -1.
<mgrwt>
<rscale>  0 0.89178261E+02</rscale>
<asrwt>0</asrwt>
<pdfrwt beam="2">  1        1 0.13590749E+00 0.89178261E+02</pdfrwt>
<pdfrwt beam="1">  1       -1 0.34624850E-03 0.89178261E+02</pdfrwt>
<totfact> 0.14802039E+05</totfact>
</mgrwt>
</event>
<event>
 7    1  0.3345055E-009  0.1237248E+03  0.7818608E-02  0.1237076E+00
          1   -1    0    0  501    0  0.00000000000E+00  0.00000000000E+00  0.74349559270E+02  0.74349559440E+02  0.50400000000E-02 0. -1.
         -1   -1    0    0    0  501 -0.00000000000E+00 -0.00000000000E+00 -0.51472483053E+02  0.51472483300E+02  0.50400000000E-02 0.  1.
         23    2    1    2    0    0  0.00000000000E+00  0.00000000000E+00  0.22877076216E+02  0.12582204274E+03  0.12372479874E+03 0.  0.
    9000005    2    3    3    0    0  0.11744636722E+02  0.56086913447E+02 -0.11415364112E+02  0.59041433164E+02  0.84795011960E+01 0.  0.
         22    1    3    3    0    0 -0.11744636722E+02 -0.56086913447E+02  0.34292440329E+02  0.66780609577E+02  0.00000000000E+00 0. -1.
         22    1    4    4    0    0  0.14005637894E+01  0.19108416758E+01  0.88972099383E+00  0.25307110236E+01  0.00000000000E+00 0.  1.
         22    1    4    4    0    0  0.10344072933E+02  0.54176071771E+02 -0.12305085106E+02  0.56510722140E+02  0.00000000000E+00 0.  1.
<mgrwt>
<rscale>  0 0.12372480E+03</rscale>
<asrwt>0</asrwt>
<pdfrwt beam="1">  1        1 0.11438394E-01 0.12372480E+03</pdfrwt>
<pdfrwt beam="2">  1       -1 0.79188436E-02 0.12372480E+03</pdfrwt>
<totfact> 0.42150066E+04</totfact>
</mgrwt>
</event>
<event>
 7    1  0.3345055E-009  0.8974008E+02  0.7818608E-02  0.1303482E+00
          1   -1    0    0  501    0  0.00000000000E+00  0.00000000000E+00  0.34313150146E+01  0.34313187161E+01  0.50400000000E-02 0. -1.
         -1   -1    0    0    0  501 -0.00000000000E+00 -0.00000000000E+00 -0.58674863312E+03  0.58674863314E+03  0.50400000000E-02 0.  1.
         23    2    1    2    0    0  0.00000000000E+00 -0.17763568394E-14 -0.58331731811E+03  0.59017995186E+03  0.89740080082E+02 0.  0.
    9000005    2    3    3    0    0  0.83825907876E+01  0.12579102063E+02 -0.56899518103E+03  0.56935628149E+03  0.13511387982E+02 0.  0.
         22    1    3    3    0    0 -0.83825907876E+01 -0.12579102063E+02 -0.14322137080E+02  0.20823670367E+02  0.00000000000E+00 0. -1.
         22    1    4    4    0    0  0.86451762833E+01  0.14154795239E+02 -0.55792080330E+03  0.55816728680E+03  0.00000000000E+00 0.  1.
         22    1    4    4    0    0 -0.26258549576E+00 -0.15756931752E+01 -0.11074377731E+02  0.11188994694E+02  0.00000000000E+00 0.  1.
<mgrwt>
<rscale>  0 0.89740080E+02</rscale>
<asrwt>0</asrwt>
<pdfrwt beam="1">  1        1 0.52789537E-03 0.89740080E+02</pdfrwt>
<pdfrwt beam="2">  1       -1 0.90268941E-01 0.89740080E+02</pdfrwt>
<totfact> 0.44092800E+04</totfact>
</mgrwt>
</event>
<event>
 7    1  0.3345055E-009  0.9119238E+02  0.7818608E-02  0.1299990E+00
         -1   -1    0    0    0  501 -0.00000000000E+00  0.00000000000E+00  0.34480074137E+02  0.34480074506E+02  0.50400000000E-02 0.  1.
          1   -1    0    0  501    0  0.00000000000E+00 -0.00000000000E+00 -0.60296050865E+02  0.60296051076E+02  0.50400000000E-02 0. -1.
         23    2    1    2    0    0  0.00000000000E+00 -0.35527136788E-14 -0.25815976728E+02  0.94776125582E+02  0.91192375371E+02 0.  0.
    9000005    2    3    3    0    0  0.24699331200E+02  0.24839692705E+02 -0.42271489561E+02  0.56074042976E+02  0.11417187508E+02 0.  0.
         22    1    3    3    0    0 -0.24699331200E+02 -0.24839692705E+02  0.16455512833E+02  0.38702082605E+02  0.00000000000E+00 0.  1.
         22    1    4    4    0    0  0.22798143662E+02  0.16731216318E+02 -0.29843588816E+02  0.41113607812E+02  0.00000000000E+00 0.  1.
         22    1    4    4    0    0  0.19011875381E+01  0.81084763872E+01 -0.12427900745E+02  0.14960435164E+02  0.00000000000E+00 0.  1.
<mgrwt>
<rscale>  0 0.91192375E+02</rscale>
<asrwt>0</asrwt>
<pdfrwt beam="2">  1        1 0.92763156E-02 0.91192375E+02</pdfrwt>
<pdfrwt beam="1">  1       -1 0.53046268E-02 0.91192375E+02</pdfrwt>
<totfact> 0.96397491E+04</totfact>
</mgrwt>
</event>
<event>
 7    1  0.3345055E-009  0.1064136E+03  0.7818608E-02  0.1267359E+00
         -1   -1    0    0    0  501 -0.00000000000E+00  0.00000000000E+00  0.16841814629E+02  0.16841815383E+02  0.50400000000E-02 0.  1.
          1   -1    0    0  501    0  0.00000000000E+00 -0.00000000000E+00 -0.16809136415E+03  0.16809136422E+03  0.50400000000E-02 0. -1.
         23    2    1    2    0    0  0.00000000000E+00  0.71054273576E-14 -0.15124954952E+03  0.18493317961E+03  0.10641360200E+03 0.  0.
    9000005    2    3    3    0    0 -0.64299551976E+01  0.52344386203E+02 -0.76722835149E+02  0.93634164029E+02  0.99841949785E+01 0.  0.
         22    1    3    3    0    0  0.64299551976E+01 -0.52344386203E+02 -0.74526714371E+02  0.91299015579E+02  0.00000000000E+00 0.  1.
         22    1    4    4    0    0 -0.62452778692E+01  0.14270583722E+02 -0.21044652022E+02  0.26182636120E+02  0.00000000000E+00 0.  1.
         22    1    4    4    0    0 -0.18467732833E+00  0.38073802480E+02 -0.55678183127E+02  0.67451527910E+02  0.00000000000E+00 0.  1.
<mgrwt>
<rscale>  0 0.10641360E+03</rscale>
<asrwt>0</asrwt>
<pdfrwt beam="2">  1        1 0.25860209E-01 0.10641360E+03</pdfrwt>
<pdfrwt beam="1">  1       -1 0.25910486E-02 0.10641360E+03</pdfrwt>
<totfact> 0.75270014E+04</totfact>
</mgrwt>
</event>
<event>
 7    1  0.3345055E-009  0.9105257E+02  0.7818608E-02  0.1300323E+00
          1   -1    0    0  501    0  0.00000000000E+00  0.00000000000E+00  0.21530166892E+02  0.21530167482E+02  0.50400000000E-02 0. -1.
         -1   -1    0    0    0  501 -0.00000000000E+00 -0.00000000000E+00 -0.96266909674E+02  0.96266909806E+02  0.50400000000E-02 0.  1.
         23    2    1    2    0    0  0.00000000000E+00  0.00000000000E+00 -0.74736742782E+02  0.11779707729E+03  0.91052571056E+02 0.  0.
    9000005    2    3    3    0    0  0.43543058422E+02  0.28182579423E+01 -0.50397353461E+02  0.67833626775E+02  0.12552576269E+02 0.  0.
         22    1    3    3    0    0 -0.43543058422E+02 -0.28182579423E+01 -0.24339389321E+02  0.49963450513E+02  0.00000000000E+00 0. -1.
         22    1    4    4    0    0  0.21965123450E+02  0.75488586376E+01 -0.27929623297E+02  0.36325139675E+02  0.00000000000E+00 0. -1.
         22    1    4    4    0    0  0.21577934973E+02 -0.47306006953E+01 -0.22467730164E+02  0.31508487100E+02  0.00000000000E+00 0. -1.
<mgrwt>
<rscale>  0 0.91052571E+02</rscale>
<asrwt>0</asrwt>
<pdfrwt beam="1">  1        1 0.33123335E-02 0.91052571E+02</pdfrwt>
<pdfrwt beam="2">  1       -1 0.14810294E-01 0.91052571E+02</pdfrwt>
<totfact> 0.82231558E+04</totfact>
</mgrwt>
</event>
<event>
 7    1  0.3345055E-009  0.8611573E+02  0.7818608E-02  0.1312540E+00
         -1   -1    0    0    0  501 -0.00000000000E+00  0.00000000000E+00  0.23757527752E+02  0.23757528287E+02  0.50400000000E-02 0.  1.
          1   -1    0    0  501    0  0.00000000000E+00 -0.00000000000E+00 -0.78037568835E+02  0.78037568997E+02  0.50400000000E-02 0. -1.
         23    2    1    2    0    0  0.00000000000E+00  0.17763568394E-14 -0.54280041083E+02  0.10179509728E+03  0.86115730103E+02 0.  0.
    9000005    2    3    3    0    0  0.21494967364E+02  0.11516601970E+02 -0.68495537046E+02  0.73568406575E+02  0.11225244229E+02 0.  0.
         22    1    3    3    0    0 -0.21494967364E+02 -0.11516601970E+02  0.14215495963E+02  0.28226690709E+02  0.00000000000E+00 0.  1.
         22    1    4    4    0    0  0.21267537986E+02  0.71119010023E+01 -0.56491692823E+02  0.60779919923E+02  0.00000000000E+00 0. -1.
         22    1    4    4    0    0  0.22742937727E+00  0.44047009673E+01 -0.12003844222E+02  0.12788486652E+02  0.00000000000E+00 0. -1.
<mgrwt>
<rscale>  0 0.86115730E+02</rscale>
<asrwt>0</asrwt>
<pdfrwt beam="2">  1        1 0.12005780E-01 0.86115730E+02</pdfrwt>
<pdfrwt beam="1">  1       -1 0.36550044E-02 0.86115730E+02</pdfrwt>
<totfact> 0.11730933E+05</totfact>
</mgrwt>
</event>
<event>
 7    1  0.3345055E-009  0.9035271E+02  0.7818608E-02  0.1302000E+00
          1   -1    0    0  501    0  0.00000000000E+00  0.00000000000E+00  0.13310276642E+03  0.13310276651E+03  0.50400000000E-02 0. -1.
         -1   -1    0    0    0  501 -0.00000000000E+00 -0.00000000000E+00 -0.15333286472E+02  0.15333287300E+02  0.50400000000E-02 0.  1.
         23    2    1    2    0    0  0.71054273576E-14  0.00000000000E+00  0.11776947995E+03  0.14843605381E+03  0.90352707015E+02 0.  0.
    9000005    2    3    3    0    0  0.35313396041E+02 -0.15067043357E+02  0.96342135400E+02  0.10446807877E+03  0.12558689907E+02 0.  0.
         22    1    3    3    0    0 -0.35313396041E+02  0.15067043357E+02  0.21427344545E+02  0.43967975047E+02  0.00000000000E+00 0.  1.
         22    1    4    4    0    0  0.16314520024E+02 -0.99374972114E+01  0.32898624777E+02  0.38042567298E+02  0.00000000000E+00 0. -1.
         22    1    4    4    0    0  0.18998876017E+02 -0.51295461457E+01  0.63443510623E+02  0.66425511468E+02  0.00000000000E+00 0. -1.
<mgrwt>
<rscale>  0 0.90352707E+02</rscale>
<asrwt>0</asrwt>
<pdfrwt beam="1">  1        1 0.20477348E-01 0.90352707E+02</pdfrwt>
<pdfrwt beam="2">  1       -1 0.23589673E-02 0.90352707E+02</pdfrwt>
<totfact> 0.11245332E+05</totfact>
</mgrwt>
</event>
<event>
 7    1  0.3345055E-009  0.9182602E+02  0.7818608E-02  0.1298489E+00
         -1   -1    0    0    0  501 -0.00000000000E+00  0.00000000000E+00  0.15339629803E+02  0.15339630631E+02  0.50400000000E-02 0.  1.
          1   -1    0    0  501    0  0.00000000000E+00 -0.00000000000E+00 -0.13742211367E+03  0.13742211376E+03  0.50400000000E-02 0. -1.
         23    2    1    2    0    0 -0.71054273576E-14  0.00000000000E+00 -0.12208248387E+03  0.15276174439E+03  0.91826018551E+02 0.  0.
    9000005    2    3    3    0    0  0.38693523287E+02  0.21324791379E+02 -0.49679327802E+02  0.67943394493E+02  0.14011915380E+02 0.  0.
         22    1    3    3    0    0 -0.38693523287E+02 -0.21324791379E+02 -0.72403156064E+02  0.84818349900E+02  0.00000000000E+00 0.  1.
         22    1    4    4    0    0  0.26287963250E+02  0.84975644188E+01 -0.23552524186E+02  0.36304090795E+02  0.00000000000E+00 0. -1.
         22    1    4    4    0    0  0.12405560037E+02  0.12827226960E+02 -0.26126803616E+02  0.31639303698E+02  0.00000000000E+00 0. -1.
<mgrwt>
<rscale>  0 0.91826019E+02</rscale>
<asrwt>0</asrwt>
<pdfrwt beam="2">  1        1 0.21141863E-01 0.91826019E+02</pdfrwt>
<pdfrwt beam="1">  1       -1 0.23599432E-02 0.91826019E+02</pdfrwt>
<totfact> 0.10825984E+05</totfact>
</mgrwt>
</event>
<event>
 7    1  0.3345055E-009  0.8731731E+02  0.7818608E-02  0.1309481E+00
          1   -1    0    0  501    0  0.00000000000E+00  0.00000000000E+00  0.97432926605E+02  0.97432926735E+02  0.50400000000E-02 0. -1.
         -1   -1    0    0    0  501 -0.00000000000E+00 -0.00000000000E+00 -0.19562975429E+02  0.19562976079E+02  0.50400000000E-02 0.  1.
         23    2    1    2    0    0  0.00000000000E+00 -0.88817841970E-15  0.77869951175E+02  0.11699590281E+03  0.87317306298E+02 0.  0.
    9000005    2    3    3    0    0 -0.18819975352E+02 -0.69218567239E+01  0.90381435328E+02  0.93360319291E+02  0.12051630322E+02 0.  0.
         22    1    3    3    0    0  0.18819975352E+02  0.69218567239E+01 -0.12511484153E+02  0.23635583523E+02  0.00000000000E+00 0.  1.
         22    1    4    4    0    0 -0.28741718061E+01  0.62045676062E+00  0.37486633687E+02  0.37601775694E+02  0.00000000000E+00 0. -1.
         22    1    4    4    0    0 -0.15945803546E+02 -0.75423134846E+01  0.52894801641E+02  0.55758543597E+02  0.00000000000E+00 0. -1.
<mgrwt>
<rscale>  0 0.87317306E+02</rscale>
<asrwt>0</asrwt>
<pdfrwt beam="1">  1        1 0.14989681E-01 0.87317306E+02</pdfrwt>
<pdfrwt beam="2">  1       -1 0.30096886E-02 0.87317306E+02</pdfrwt>
<totfact> 0.11697812E+05</totfact>
</mgrwt>
</event>
<event>
 7    1  0.3345055E-009  0.9097272E+02  0.7818608E-02  0.1300513E+00
          1   -1    0    0  501    0  0.00000000000E+00  0.00000000000E+00  0.80397334689E+03  0.80397334691E+03  0.50400000000E-02 0. -1.
         -1   -1    0    0    0  501 -0.00000000000E+00 -0.00000000000E+00 -0.25734768365E+01  0.25734817718E+01  0.50400000000E-02 0.  1.
         23    2    1    2    0    0  0.00000000000E+00  0.00000000000E+00  0.80139987006E+03  0.80654682868E+03  0.90972716394E+02 0.  0.
    9000005    2    3    3    0    0 -0.35368798464E+02 -0.24024121735E+01  0.65218644353E+03  0.65318004562E+03  0.63475498946E+01 0.  0.
         22    1    3    3    0    0  0.35368798464E+02  0.24024121735E+01  0.14921342653E+03  0.15336678306E+03  0.00000000000E+00 0.  1.
         22    1    4    4    0    0 -0.15298643148E+02 -0.16962671235E+01  0.22844248045E+03  0.22896046095E+03  0.00000000000E+00 0. -1.
         22    1    4    4    0    0 -0.20070155316E+02 -0.70614505000E+00  0.42374396307E+03  0.42421958467E+03  0.00000000000E+00 0. -1.
<mgrwt>
<rscale>  0 0.90972716E+02</rscale>
<asrwt>0</asrwt>
<pdfrwt beam="1">  1        1 0.12368833E+00 0.90972716E+02</pdfrwt>
<pdfrwt beam="2">  1       -1 0.39591950E-03 0.90972716E+02</pdfrwt>
<totfact> 0.14207574E+05</totfact>
</mgrwt>
</event>
<event>
 7    1  0.3345055E-009  0.9278880E+02  0.7818608E-02  0.1296235E+00
         -1   -1    0    0    0  501 -0.00000000000E+00  0.00000000000E+00  0.41275854255E+01  0.41275885026E+01  0.50400000000E-02 0.  1.
          1   -1    0    0  501    0  0.00000000000E+00 -0.00000000000E+00 -0.52147664774E+03  0.52147664776E+03  0.50400000000E-02 0. -1.
         23    2    1    2    0    0 -0.35527136788E-14 -0.35527136788E-14 -0.51734906231E+03  0.52560423627E+03  0.92788797299E+02 0.  0.
    9000005    2    3    3    0    0 -0.24096222219E+02 -0.26317862619E+02 -0.42184930081E+03  0.42365590492E+03  0.15944759557E+02 0.  0.
         22    1    3    3    0    0  0.24096222219E+02  0.26317862619E+02 -0.95499761504E+02  0.10194833135E+03  0.00000000000E+00 0.  1.
         22    1    4    4    0    0 -0.68392846999E+01  0.83950482293E+00 -0.69884486377E+02  0.70223372319E+02  0.00000000000E+00 0. -1.
         22    1    4    4    0    0 -0.17256937519E+02 -0.27157367442E+02 -0.35196481443E+03  0.35343253260E+03  0.00000000000E+00 0. -1.
<mgrwt>
<rscale>  0 0.92788797E+02</rscale>
<asrwt>0</asrwt>
<pdfrwt beam="2">  1        1 0.80227125E-01 0.92788797E+02</pdfrwt>
<pdfrwt beam="1">  1       -1 0.63501379E-03 0.92788797E+02</pdfrwt>
<totfact> 0.13356954E+05</totfact>
</mgrwt>
</event>
<event>
 7    1  0.3345055E-009  0.9224110E+02  0.7818608E-02  0.1297514E+00
         -1   -1    0    0    0  501 -0.00000000000E+00  0.00000000000E+00  0.77431678895E+01  0.77431695298E+01  0.50400000000E-02 0.  1.
          1   -1    0    0  501    0  0.00000000000E+00 -0.00000000000E+00 -0.27470733641E+03  0.27470733646E+03  0.50400000000E-02 0. -1.
         23    2    1    2    0    0 -0.35527136788E-14  0.00000000000E+00 -0.26696416852E+03  0.28245050598E+03  0.92241102866E+02 0.  0.
    9000005    2    3    3    0    0  0.20080897214E+02  0.41123365629E+02 -0.12110066734E+03  0.12957626155E+03  0.55011175987E+01 0.  0.
         22    1    3    3    0    0 -0.20080897214E+02 -0.41123365629E+02 -0.14586350118E+03  0.15287424443E+03  0.00000000000E+00 0. -1.
         22    1    4    4    0    0  0.88169555931E+01  0.15203242328E+02 -0.53236750402E+02  0.56062722700E+02  0.00000000000E+00 0. -1.
         22    1    4    4    0    0  0.11263941621E+02  0.25920123301E+02 -0.67863916936E+02  0.73513538853E+02  0.00000000000E+00 0. -1.
<mgrwt>
<rscale>  0 0.92241103E+02</rscale>
<asrwt>0</asrwt>
<pdfrwt beam="2">  1        1 0.42262660E-01 0.92241103E+02</pdfrwt>
<pdfrwt beam="1">  1       -1 0.11912569E-02 0.92241103E+02</pdfrwt>
<totfact> 0.12212072E+05</totfact>
</mgrwt>
</event>
<event>
 7    1  0.3345055E-009  0.9188735E+02  0.7818608E-02  0.1298345E+00
          1   -1    0    0  501    0  0.00000000000E+00  0.00000000000E+00  0.30862807044E+03  0.30862807048E+03  0.50400000000E-02 0. -1.
         -1   -1    0    0    0  501 -0.00000000000E+00 -0.00000000000E+00 -0.68393680322E+01  0.68393698893E+01  0.50400000000E-02 0.  1.
         23    2    1    2    0    0  0.00000000000E+00  0.00000000000E+00  0.30178870240E+03  0.31546744037E+03  0.91887349688E+02 0.  0.
    9000005    2    3    3    0    0  0.43488417614E+02 -0.66869137074E+01  0.19143415431E+03  0.19666473178E+03  0.96965978501E+01 0.  0.
         22    1    3    3    0    0 -0.43488417614E+02  0.66869137074E+01  0.11035454809E+03  0.11880270858E+03  0.00000000000E+00 0.  1.
         22    1    4    4    0    0  0.13594000323E+02 -0.60253597684E+01  0.53590179689E+02  0.55614828636E+02  0.00000000000E+00 0. -1.
         22    1    4    4    0    0  0.29894417291E+02 -0.66155393901E+00  0.13784397462E+03  0.14104990315E+03  0.00000000000E+00 0. -1.
<mgrwt>
<rscale>  0 0.91887350E+02</rscale>
<asrwt>0</asrwt>
<pdfrwt beam="1">  1        1 0.47481237E-01 0.91887350E+02</pdfrwt>
<pdfrwt beam="2">  1       -1 0.10522107E-02 0.91887350E+02</pdfrwt>
<totfact> 0.12617469E+05</totfact>
</mgrwt>
</event>
<event>
 7    1  0.3345055E-009  0.8811074E+02  0.7818608E-02  0.1307492E+00
          1   -1    0    0  501    0  0.00000000000E+00  0.00000000000E+00  0.49924567844E+02  0.49924568099E+02  0.50400000000E-02 0. -1.
         -1   -1    0    0    0  501 -0.00000000000E+00 -0.00000000000E+00 -0.38876164353E+02  0.38876164679E+02  0.50400000000E-02 0.  1.
         23    2    1    2    0    0  0.00000000000E+00  0.00000000000E+00  0.11048403492E+02  0.88800732778E+02  0.88110742377E+02 0.  0.
    9000005    2    3    3    0    0 -0.39036352029E+02  0.19017360807E+02  0.53355318286E+01  0.45004229556E+02  0.10555377126E+02 0.  0.
         22    1    3    3    0    0  0.39036352029E+02 -0.19017360807E+02  0.57128716630E+01  0.43796503221E+02  0.00000000000E+00 0.  1.
         22    1    4    4    0    0 -0.25383097465E+02  0.13043664176E+02 -0.15650256277E+01  0.28581254648E+02  0.00000000000E+00 0. -1.
         22    1    4    4    0    0 -0.13653254565E+02  0.59736966306E+01  0.69005574562E+01  0.16422974909E+02  0.00000000000E+00 0. -1.
<mgrwt>
<rscale>  0 0.88110742E+02</rscale>
<asrwt>0</asrwt>
<pdfrwt beam="1">  1        1 0.76807028E-02 0.88110742E+02</pdfrwt>
<pdfrwt beam="2">  1       -1 0.59809484E-02 0.88110742E+02</pdfrwt>
<totfact> 0.10311334E+05</totfact>
</mgrwt>
</event>
<event>
 7    1  0.3345055E-009  0.9108449E+02  0.7818608E-02  0.1300246E+00
          1   -1    0    0  501    0  0.00000000000E+00  0.00000000000E+00  0.94226052355E+01  0.94226065834E+01  0.50400000000E-02 0. -1.
         -1   -1    0    0    0  501 -0.00000000000E+00 -0.00000000000E+00 -0.22011916102E+03  0.22011916108E+03  0.50400000000E-02 0.  1.
         23    2    1    2    0    0  0.35527136788E-14  0.00000000000E+00 -0.21069655579E+03  0.22954176766E+03  0.91084490895E+02 0.  0.
    9000005    2    3    3    0    0  0.22069913383E+02  0.36592517585E+02 -0.69350275625E+02  0.81877065262E+02  0.82643612320E+01 0.  0.
         22    1    3    3    0    0 -0.22069913383E+02 -0.36592517585E+02 -0.14134628016E+03  0.14766470240E+03  0.00000000000E+00 0.  1.
         22    1    4    4    0    0  0.16227159494E+02  0.19014455953E+02 -0.40350005355E+02  0.47465705226E+02  0.00000000000E+00 0. -1.
         22    1    4    4    0    0  0.58427538888E+01  0.17578061633E+02 -0.29000270271E+02  0.34411360036E+02  0.00000000000E+00 0. -1.
<mgrwt>
<rscale>  0 0.91084491E+02</rscale>
<asrwt>0</asrwt>
<pdfrwt beam="1">  1        1 0.14496318E-02 0.91084491E+02</pdfrwt>
<pdfrwt beam="2">  1       -1 0.33864483E-01 0.91084491E+02</pdfrwt>
<totfact> 0.67658728E+04</totfact>
</mgrwt>
</event>
<event>
 7    1  0.3345055E-009  0.9061654E+02  0.7818608E-02  0.1301365E+00
         -1   -1    0    0    0  501 -0.00000000000E+00  0.00000000000E+00  0.41416263941E+02  0.41416264248E+02  0.50400000000E-02 0.  1.
          1   -1    0    0  501    0  0.00000000000E+00 -0.00000000000E+00 -0.49566020086E+02  0.49566020342E+02  0.50400000000E-02 0. -1.
         23    2    1    2    0    0  0.00000000000E+00  0.00000000000E+00 -0.81497561447E+01  0.90982284590E+02  0.90616541448E+02 0.  0.
    9000005    2    3    3    0    0 -0.77380490414E+01  0.43745066207E+02 -0.23403369418E+01  0.46179856398E+02  0.12393294133E+02 0.  0.
         22    1    3    3    0    0  0.77380490414E+01 -0.43745066207E+02 -0.58094192029E+01  0.44802428192E+02  0.00000000000E+00 0. -1.
         22    1    4    4    0    0 -0.78973069153E+00  0.11793217025E+02 -0.60384569557E+01  0.13272776830E+02  0.00000000000E+00 0.  1.
         22    1    4    4    0    0 -0.69483183499E+01  0.31951849182E+02  0.36981200139E+01  0.32907079568E+02  0.00000000000E+00 0.  1.
<mgrwt>
<rscale>  0 0.90616541E+02</rscale>
<asrwt>0</asrwt>
<pdfrwt beam="2">  1        1 0.76255415E-02 0.90616541E+02</pdfrwt>
<pdfrwt beam="1">  1       -1 0.63717330E-02 0.90616541E+02</pdfrwt>
<totfact> 0.95267736E+04</totfact>
</mgrwt>
</event>
<event>
 7    1  0.3345055E-009  0.9130936E+02  0.7818608E-02  0.1299712E+00
          1   -1    0    0  501    0  0.00000000000E+00  0.00000000000E+00  0.28111381628E+02  0.28111382080E+02  0.50400000000E-02 0.  1.
         -1   -1    0    0    0  501 -0.00000000000E+00 -0.00000000000E+00 -0.74146123595E+02  0.74146123766E+02  0.50400000000E-02 0. -1.
         23    2    1    2    0    0 -0.17763568394E-14  0.00000000000E+00 -0.46034741967E+02  0.10225750585E+03  0.91309364437E+02 0.  0.
    9000005    2    3    3    0    0 -0.14699250764E+02 -0.23692927317E+02 -0.62905205306E+02  0.69668622601E+02  0.10919218958E+02 0.  0.
         22    1    3    3    0    0  0.14699250764E+02  0.23692927317E+02  0.16870463339E+02  0.32588883245E+02  0.00000000000E+00 0.  1.
         22    1    4    4    0    0 -0.81617074800E+01 -0.18658100443E+02 -0.34232406292E+02  0.39832095371E+02  0.00000000000E+00 0. -1.
         22    1    4    4    0    0 -0.65375432837E+01 -0.50348268745E+01 -0.28672799014E+02  0.29836527230E+02  0.00000000000E+00 0. -1.
<mgrwt>
<rscale>  0 0.91309364E+02</rscale>
<asrwt>0</asrwt>
<pdfrwt beam="1">  1        1 0.43248280E-02 0.91309364E+02</pdfrwt>
<pdfrwt beam="2">  1       -1 0.11407096E-01 0.91309364E+02</pdfrwt>
<totfact> 0.85412799E+04</totfact>
</mgrwt>
</event>
<event>
 7    1  0.3345055E-009  0.9277050E+02  0.7818608E-02  0.1296278E+00
          1   -1    0    0  501    0  0.00000000000E+00  0.00000000000E+00  0.91377599483E+01  0.91377613383E+01  0.50400000000E-02 0. -1.
         -1   -1    0    0    0  501 -0.00000000000E+00 -0.00000000000E+00 -0.23546154582E+03  0.23546154588E+03  0.50400000000E-02 0.  1.
         23    2    1    2    0    0  0.00000000000E+00  0.00000000000E+00 -0.22632378588E+03  0.24459930722E+03  0.92770496590E+02 0.  0.
    9000005    2    3    3    0    0 -0.17474033186E+02 -0.25855069875E+02 -0.20292460849E+03  0.20559484624E+03  0.10817467068E+02 0.  0.
         22    1    3    3    0    0  0.17474033186E+02  0.25855069875E+02 -0.23399177384E+02  0.39004460979E+02  0.00000000000E+00 0. -1.
         22    1    4    4    0    0 -0.18548646920E+02 -0.23847899466E+02 -0.19574718041E+03  0.19806497230E+03  0.00000000000E+00 0. -1.
         22    1    4    4    0    0  0.10746137339E+01 -0.20071704082E+01 -0.71774280794E+01  0.75298739405E+01  0.00000000000E+00 0. -1.
<mgrwt>
<rscale>  0 0.92770497E+02</rscale>
<asrwt>0</asrwt>
<pdfrwt beam="1">  1        1 0.14058095E-02 0.92770497E+02</pdfrwt>
<pdfrwt beam="2">  1       -1 0.36224849E-01 0.92770497E+02</pdfrwt>
<totfact> 0.63137678E+04</totfact>
</mgrwt>
</event>
<event>
 7    1  0.3345055E-009  0.9127820E+02  0.7818608E-02  0.1299786E+00
          1   -1    0    0  501    0  0.00000000000E+00  0.00000000000E+00  0.13497325831E+04  0.13497325831E+04  0.50400000000E-02 0. -1.
         -1   -1    0    0    0  501 -0.00000000000E+00 -0.00000000000E+00 -0.15432106572E+01  0.15432188873E+01  0.50400000000E-02 0.  1.
         23    2    1    2    0    0  0.22204460493E-15  0.00000000000E+00  0.13481893724E+04  0.13512758020E+04  0.91278196160E+02 0.  0.
    9000005    2    3    3    0    0 -0.41866260331E+00 -0.19971175533E+02  0.12801394537E+04  0.12803546164E+04  0.12324755432E+02 0.  0.
         22    1    3    3    0    0  0.41866260331E+00  0.19971175533E+02  0.68049918738E+02  0.70921185627E+02  0.00000000000E+00 0.  1.
         22    1    4    4    0    0  0.25733442270E+01 -0.38213677201E+01  0.59687486961E+03  0.59689264941E+03  0.00000000000E+00 0. -1.
         22    1    4    4    0    0 -0.29920068304E+01 -0.16149807813E+02  0.68326458408E+03  0.68346196694E+03  0.00000000000E+00 0. -1.
<mgrwt>
<rscale>  0 0.91278196E+02</rscale>
<asrwt>0</asrwt>
<pdfrwt beam="1">  1        1 0.20765141E+00 0.91278196E+02</pdfrwt>
<pdfrwt beam="2">  1       -1 0.23741738E-03 0.91278196E+02</pdfrwt>
<totfact> 0.11895764E+05</totfact>
</mgrwt>
</event>
<event>
 7    1  0.3345055E-009  0.9075011E+02  0.7818608E-02  0.1301045E+00
          1   -1    0    0  501    0  0.00000000000E+00  0.00000000000E+00  0.62828066431E+02  0.62828066633E+02  0.50400000000E-02 0. -1.
         -1   -1    0    0    0  501 -0.00000000000E+00 -0.00000000000E+00 -0.32770313216E+02  0.32770313603E+02  0.50400000000E-02 0.  1.
         23    2    1    2    0    0  0.00000000000E+00  0.00000000000E+00  0.30057753215E+02  0.95598380237E+02  0.90750106201E+02 0.  0.
    9000005    2    3    3    0    0  0.38588091721E+02 -0.78980221834E+01  0.38348657271E+02  0.55347185631E+02  0.64243183070E+01 0.  0.
         22    1    3    3    0    0 -0.38588091721E+02  0.78980221834E+01 -0.82909040554E+01  0.40251194605E+02  0.00000000000E+00 0.  1.
         22    1    4    4    0    0  0.17847928069E+02 -0.27773201088E+01  0.21884983770E+02  0.28376302754E+02  0.00000000000E+00 0. -1.
         22    1    4    4    0    0  0.20740163652E+02 -0.51207020747E+01  0.16463673501E+02  0.26970882878E+02  0.00000000000E+00 0. -1.
<mgrwt>
<rscale>  0 0.90750106E+02</rscale>
<asrwt>0</asrwt>
<pdfrwt beam="1">  1        1 0.96658564E-02 0.90750106E+02</pdfrwt>
<pdfrwt beam="2">  1       -1 0.50415867E-02 0.90750106E+02</pdfrwt>
<totfact> 0.98314926E+04</totfact>
</mgrwt>
</event>
<event>
 7    1  0.3723087E-009  0.8979161E+02  0.7818608E-02  0.1303357E+00
         -1   -1    0    0    0  501 -0.00000000000E+00  0.00000000000E+00  0.28510045110E+01  0.28510089658E+01  0.50400000000E-02 0.  1.
          1   -1    0    0  501    0  0.00000000000E+00 -0.00000000000E+00 -0.70699006648E+03  0.70699006650E+03  0.50400000000E-02 0. -1.
         23    2    1    2    0    0  0.00000000000E+00  0.00000000000E+00 -0.70413906197E+03  0.70984107547E+03  0.89791613333E+02 0.  0.
    9000005    2    3    3    0    0 -0.15128610433E+02 -0.15253584780E+02 -0.66211240892E+03  0.66264164465E+03  0.15477741482E+02 0.  0.
         22    1    3    3    0    0  0.15128610433E+02  0.15253584780E+02 -0.42026653051E+02  0.47199430812E+02  0.00000000000E+00 0.  1.
         22    1    4    4    0    0 -0.11699207960E+02 -0.51479472208E+01 -0.50771816090E+03  0.50787902471E+03  0.00000000000E+00 0.  1.
         22    1    4    4    0    0 -0.34294024738E+01 -0.10105637560E+02 -0.15439424802E+03  0.15476261995E+03  0.00000000000E+00 0.  1.
<mgrwt>
<rscale>  0 0.89791613E+02</rscale>
<asrwt>0</asrwt>
<pdfrwt beam="2">  1        1 0.10876756E+00 0.89791613E+02</pdfrwt>
<pdfrwt beam="1">  1       -1 0.43861699E-03 0.89791613E+02</pdfrwt>
<totfact> 0.14802745E+05</totfact>
</mgrwt>
</event>
<event>
 7    1  0.3345055E-009  0.8819306E+02  0.7818608E-02  0.1307287E+00
         -1   -1    0    0    0  501 -0.00000000000E+00  0.00000000000E+00  0.98396308811E+03  0.98396308812E+03  0.50400000000E-02 0.  1.
          1   -1    0    0  501    0  0.00000000000E+00 -0.00000000000E+00 -0.19761929391E+01  0.19761993660E+01  0.50400000000E-02 0. -1.
         23    2    1    2    0    0  0.00000000000E+00  0.88817841970E-15  0.98198689517E+03  0.98593928749E+03  0.88193062805E+02 0.  0.
    9000005    2    3    3    0    0  0.31943350422E+02 -0.69262010256E+01  0.81770420907E+03  0.81843659841E+03  0.11399218658E+02 0.  0.
         22    1    3    3    0    0 -0.31943350422E+02  0.69262010256E+01  0.16428268610E+03  0.16750268908E+03  0.00000000000E+00 0. -1.
         22    1    4    4    0    0  0.29738963588E+02 -0.68441873704E+01  0.64810286769E+03  0.64882091209E+03  0.00000000000E+00 0. -1.
         22    1    4    4    0    0  0.22043868342E+01 -0.82013655267E-01  0.16960134138E+03  0.16961568632E+03  0.00000000000E+00 0. -1.
<mgrwt>
<rscale>  0 0.88193063E+02</rscale>
<asrwt>0</asrwt>
<pdfrwt beam="2">  1        1 0.30403042E-03 0.88193063E+02</pdfrwt>
<pdfrwt beam="1">  1       -1 0.15137882E+00 0.88193063E+02</pdfrwt>
<totfact> 0.28536615E+04</totfact>
</mgrwt>
</event>
<event>
 7    1  0.3345055E-009  0.9247670E+02  0.7818608E-02  0.1296962E+00
          1   -1    0    0  501    0  0.00000000000E+00  0.00000000000E+00  0.34739822765E+03  0.34739822769E+03  0.50400000000E-02 0. -1.
         -1   -1    0    0    0  501 -0.00000000000E+00 -0.00000000000E+00 -0.61542762882E+01  0.61542783520E+01  0.50400000000E-02 0.  1.
         23    2    1    2    0    0 -0.35527136788E-14  0.00000000000E+00  0.34124395137E+03  0.35355250604E+03  0.92476700770E+02 0.  0.
    9000005    2    3    3    0    0  0.18469066088E+02  0.18265100353E+02  0.31676146799E+03  0.31785779656E+03  0.45859498539E+01 0.  0.
         22    1    3    3    0    0 -0.18469066088E+02 -0.18265100353E+02  0.24482483378E+02  0.35694709487E+02  0.00000000000E+00 0.  1.
         22    1    4    4    0    0  0.15849490184E+02  0.17577105728E+02  0.28504945756E+03  0.28603033797E+03  0.00000000000E+00 0.  1.
         22    1    4    4    0    0  0.26195759035E+01  0.68799462485E+00  0.31712010427E+02  0.31827458583E+02  0.00000000000E+00 0.  1.
<mgrwt>
<rscale>  0 0.92476701E+02</rscale>
<asrwt>0</asrwt>
<pdfrwt beam="1">  1        1 0.53445899E-01 0.92476701E+02</pdfrwt>
<pdfrwt beam="2">  1       -1 0.94681159E-03 0.92476701E+02</pdfrwt>
<totfact> 0.12678633E+05</totfact>
</mgrwt>
</event>
<event>
 7    1  0.3345055E-009  0.9337155E+02  0.7818608E-02  0.1294886E+00
          1   -1    0    0  501    0  0.00000000000E+00  0.00000000000E+00  0.18925949604E+03  0.18925949611E+03  0.50400000000E-02 0. -1.
         -1   -1    0    0    0  501 -0.00000000000E+00 -0.00000000000E+00 -0.11516259956E+02  0.11516261059E+02  0.50400000000E-02 0.  1.
         23    2    1    2    0    0  0.00000000000E+00  0.00000000000E+00  0.17774323608E+03  0.20077575717E+03  0.93371551833E+02 0.  0.
    9000005    2    3    3    0    0 -0.12454544799E+02  0.21610121012E+02  0.17320456572E+03  0.17542398119E+03  0.12314161562E+02 0.  0.
         22    1    3    3    0    0  0.12454544799E+02 -0.21610121012E+02  0.45386703649E+01  0.25351775974E+02  0.00000000000E+00 0.  1.
         22    1    4    4    0    0 -0.91553623750E+01  0.20468032147E+02  0.16486984882E+03  0.16638758382E+03  0.00000000000E+00 0.  1.
         22    1    4    4    0    0 -0.32991824245E+01  0.11420888659E+01  0.83347169044E+01  0.90363973753E+01  0.00000000000E+00 0.  1.
<mgrwt>
<rscale>  0 0.93371552E+02</rscale>
<asrwt>0</asrwt>
<pdfrwt beam="1">  1        1 0.29116845E-01 0.93371552E+02</pdfrwt>
<pdfrwt beam="2">  1       -1 0.17717324E-02 0.93371552E+02</pdfrwt>
<totfact> 0.10988774E+05</totfact>
</mgrwt>
</event>
<event>
 7    1  0.3345055E-009  0.9191767E+02  0.7818608E-02  0.1298273E+00
          1   -1    0    0  501    0  0.00000000000E+00  0.00000000000E+00  0.25831242085E+03  0.25831242090E+03  0.50400000000E-02 0. -1.
         -1   -1    0    0    0  501 -0.00000000000E+00 -0.00000000000E+00 -0.81769759881E+01  0.81769775414E+01  0.50400000000E-02 0.  1.
         23    2    1    2    0    0  0.00000000000E+00  0.71054273576E-14  0.25013544486E+03  0.26648939844E+03  0.91917673517E+02 0.  0.
    9000005    2    3    3    0    0  0.20728140083E+02 -0.36524541693E+02  0.82923117717E+02  0.94083887257E+02  0.14554602443E+02 0.  0.
         22    1    3    3    0    0 -0.20728140083E+02  0.36524541693E+02  0.16721232714E+03  0.17240551118E+03  0.00000000000E+00 0. -1.
         22    1    4    4    0    0  0.21819193945E+02 -0.26355595967E+02  0.64384518664E+02  0.72911322213E+02  0.00000000000E+00 0.  1.
         22    1    4    4    0    0 -0.10910538618E+01 -0.10168945727E+02  0.18538599053E+02  0.21172565044E+02  0.00000000000E+00 0.  1.
<mgrwt>
<rscale>  0 0.91917674E+02</rscale>
<asrwt>0</asrwt>
<pdfrwt beam="1">  1        1 0.39740378E-01 0.91917674E+02</pdfrwt>
<pdfrwt beam="2">  1       -1 0.12579962E-02 0.91917674E+02</pdfrwt>
<totfact> 0.12179742E+05</totfact>
</mgrwt>
</event>
<event>
 7    1  0.3345055E-009  0.9151080E+02  0.7818608E-02  0.1299234E+00
         -1   -1    0    0    0  501 -0.00000000000E+00  0.00000000000E+00  0.29816805595E+01  0.29816848191E+01  0.50400000000E-02 0.  1.
          1   -1    0    0  501    0  0.00000000000E+00 -0.00000000000E+00 -0.70213933777E+03  0.70213933778E+03  0.50400000000E-02 0. -1.
         23    2    1    2    0    0  0.00000000000E+00  0.00000000000E+00 -0.69915765721E+03  0.70512102260E+03  0.91510802021E+02 0.  0.
    9000005    2    3    3    0    0 -0.35865558393E+02  0.19277762528E+02 -0.50482025863E+03  0.50656373895E+03  0.10264389279E+02 0.  0.
         22    1    3    3    0    0  0.35865558393E+02 -0.19277762528E+02 -0.19433739858E+03  0.19855728366E+03  0.00000000000E+00 0.  1.
         22    1    4    4    0    0 -0.34966405298E+02  0.16237497132E+02 -0.44831456745E+03  0.44996917361E+03  0.00000000000E+00 0. -1.
         22    1    4    4    0    0 -0.89915309421E+00  0.30402653958E+01 -0.56505691181E+02  0.56594565338E+02  0.00000000000E+00 0. -1.
<mgrwt>
<rscale>  0 0.91510802E+02</rscale>
<asrwt>0</asrwt>
<pdfrwt beam="2">  1        1 0.10802131E+00 0.91510802E+02</pdfrwt>
<pdfrwt beam="1">  1       -1 0.45872097E-03 0.91510802E+02</pdfrwt>
<totfact> 0.14080229E+05</totfact>
</mgrwt>
</event>
<event>
 7    1  0.3345055E-009  0.8996397E+02  0.7818608E-02  0.1302939E+00
          1   -1    0    0  501    0  0.00000000000E+00  0.00000000000E+00  0.28265201256E+02  0.28265201705E+02  0.50400000000E-02 0. -1.
         -1   -1    0    0    0  501 -0.00000000000E+00 -0.00000000000E+00 -0.71585505605E+02  0.71585505783E+02  0.50400000000E-02 0.  1.
         23    2    1    2    0    0  0.00000000000E+00  0.00000000000E+00 -0.43320304349E+02  0.99850707488E+02  0.89963965102E+02 0.  0.
    9000005    2    3    3    0    0  0.22083908484E+02  0.60601984379E+01  0.19320450153E+02  0.33155211811E+02  0.14197297528E+02 0.  0.
         22    1    3    3    0    0 -0.22083908484E+02 -0.60601984379E+01 -0.62640754502E+02  0.66695495677E+02  0.00000000000E+00 0.  1.
         22    1    4    4    0    0  0.47473427591E+01  0.61428484264E+01  0.82891085452E+00  0.78076208455E+01  0.00000000000E+00 0.  1.
         22    1    4    4    0    0  0.17336565724E+02 -0.82649988489E-01  0.18491539298E+02  0.25347590965E+02  0.00000000000E+00 0.  1.
<mgrwt>
<rscale>  0 0.89963965E+02</rscale>
<asrwt>0</asrwt>
<pdfrwt beam="1">  1        1 0.43484926E-02 0.89963965E+02</pdfrwt>
<pdfrwt beam="2">  1       -1 0.11013155E-01 0.89963965E+02</pdfrwt>
<totfact> 0.89219252E+04</totfact>
</mgrwt>
</event>
<event>
 7    1  0.3345055E-009  0.9107968E+02  0.7818608E-02  0.1300258E+00
          1   -1    0    0  501    0  0.00000000000E+00  0.00000000000E+00  0.15832239781E+03  0.15832239789E+03  0.50400000000E-02 0. -1.
         -1   -1    0    0    0  501 -0.00000000000E+00 -0.00000000000E+00 -0.13099075979E+02  0.13099076948E+02  0.50400000000E-02 0.  1.
         23    2    1    2    0    0 -0.44408920985E-15  0.00000000000E+00  0.14522332183E+03  0.17142147484E+03  0.91079683972E+02 0.  0.
    9000005    2    3    3    0    0 -0.30763698545E+01  0.44170652272E+02  0.83726935482E+02  0.95643403423E+02  0.13302267458E+02 0.  0.
         22    1    3    3    0    0  0.30763698545E+01 -0.44170652272E+02  0.61496386353E+02  0.75778071419E+02  0.00000000000E+00 0. -1.
         22    1    4    4    0    0  0.10375339808E+01 -0.22559511668E+00  0.55064227512E+01  0.56078571160E+01  0.00000000000E+00 0.  1.
         22    1    4    4    0    0 -0.41139038353E+01  0.44396247388E+02  0.78220512731E+02  0.90035546307E+02  0.00000000000E+00 0.  1.
<mgrwt>
<rscale>  0 0.91079684E+02</rscale>
<asrwt>0</asrwt>
<pdfrwt beam="1">  1        1 0.24357291E-01 0.91079684E+02</pdfrwt>
<pdfrwt beam="2">  1       -1 0.20152426E-02 0.91079684E+02</pdfrwt>
<totfact> 0.11358394E+05</totfact>
</mgrwt>
</event>
<event>
 7    1  0.3345055E-009  0.9089828E+02  0.7818608E-02  0.1300691E+00
         -1   -1    0    0    0  501 -0.00000000000E+00  0.00000000000E+00  0.40658798561E+02  0.40658798873E+02  0.50400000000E-02 0.  1.
          1   -1    0    0  501    0  0.00000000000E+00 -0.00000000000E+00 -0.50803871138E+02  0.50803871388E+02  0.50400000000E-02 0. -1.
         23    2    1    2    0    0  0.00000000000E+00 -0.35527136788E-14 -0.10145072577E+02  0.91462670261E+02  0.90898281358E+02 0.  0.
    9000005    2    3    3    0    0 -0.29071642642E+02 -0.26168022154E+02  0.17404140156E+02  0.43620378181E+02  0.83610710280E+01 0.  0.
         22    1    3    3    0    0  0.29071642642E+02  0.26168022154E+02 -0.27549212733E+02  0.47842292081E+02  0.00000000000E+00 0. -1.
         22    1    4    4    0    0 -0.11842660648E+02 -0.15786594895E+02  0.67447785917E+01  0.20855628205E+02  0.00000000000E+00 0.  1.
         22    1    4    4    0    0 -0.17228981994E+02 -0.10381427259E+02  0.10659361564E+02  0.22764749975E+02  0.00000000000E+00 0.  1.
<mgrwt>
<rscale>  0 0.90898281E+02</rscale>
<asrwt>0</asrwt>
<pdfrwt beam="2">  1        1 0.78159801E-02 0.90898281E+02</pdfrwt>
<pdfrwt beam="1">  1       -1 0.62551999E-02 0.90898281E+02</pdfrwt>
<totfact> 0.94795227E+04</totfact>
</mgrwt>
</event>
<event>
 7    1  0.3345055E-009  0.7879919E+02  0.7818608E-02  0.1332494E+00
          1   -1    0    0  501    0  0.00000000000E+00  0.00000000000E+00  0.67933041034E+02  0.67933041221E+02  0.50400000000E-02 0. -1.
         -1   -1    0    0    0  501 -0.00000000000E+00 -0.00000000000E+00 -0.22850855673E+02  0.22850856229E+02  0.50400000000E-02 0.  1.
         23    2    1    2    0    0 -0.55511151231E-16  0.35527136788E-14  0.45082185361E+02  0.90783897450E+02  0.78799191615E+02 0.  0.
    9000005    2    3    3    0    0  0.40566274601E+00 -0.27460357062E+02  0.54229900597E+02  0.61837110646E+02  0.11345058923E+02 0.  0.
         22    1    3    3    0    0 -0.40566274601E+00  0.27460357062E+02 -0.91477152361E+01  0.28946786804E+02  0.00000000000E+00 0.  1.
         22    1    4    4    0    0  0.55454156938E+01 -0.91906734060E+01  0.19885485709E+02  0.22597624980E+02  0.00000000000E+00 0. -1.
         22    1    4    4    0    0 -0.51397529478E+01 -0.18269683656E+02  0.34344414889E+02  0.39239485666E+02  0.00000000000E+00 0. -1.
<mgrwt>
<rscale>  0 0.78799192E+02</rscale>
<asrwt>0</asrwt>
<pdfrwt beam="1">  1        1 0.10451237E-01 0.78799192E+02</pdfrwt>
<pdfrwt beam="2">  1       -1 0.35155163E-02 0.78799192E+02</pdfrwt>
<totfact> 0.14628212E+05</totfact>
</mgrwt>
</event>
<event>
 7    1  0.3345055E-009  0.9153728E+02  0.7818608E-02  0.1299171E+00
         -1   -1    0    0    0  501 -0.00000000000E+00  0.00000000000E+00  0.31125008506E+02  0.31125008914E+02  0.50400000000E-02 0.  1.
          1   -1    0    0  501    0  0.00000000000E+00 -0.00000000000E+00 -0.67301769867E+02  0.67301770056E+02  0.50400000000E-02 0. -1.
         23    2    1    2    0    0 -0.71054273576E-14 -0.35527136788E-14 -0.36176761361E+02  0.98426778970E+02  0.91537275226E+02 0.  0.
    9000005    2    3    3    0    0 -0.33129267160E+02 -0.26751913313E+02 -0.35824952666E+02  0.55843484384E+02  0.46748589490E+01 0.  0.
         22    1    3    3    0    0  0.33129267160E+02  0.26751913313E+02 -0.35180869475E+00  0.42583294586E+02  0.00000000000E+00 0.  1.
         22    1    4    4    0    0 -0.15810527134E+00 -0.84678940411E+00 -0.11244572266E+01  0.14164934261E+01  0.00000000000E+00 0. -1.
         22    1    4    4    0    0 -0.32971161888E+02 -0.25905123909E+02 -0.34700495439E+02  0.54426990958E+02  0.00000000000E+00 0. -1.
<mgrwt>
<rscale>  0 0.91537275E+02</rscale>
<asrwt>0</asrwt>
<pdfrwt beam="2">  1        1 0.10354118E-01 0.91537275E+02</pdfrwt>
<pdfrwt beam="1">  1       -1 0.47884629E-02 0.91537275E+02</pdfrwt>
<totfact> 0.97007749E+04</totfact>
</mgrwt>
</event>
<event>
 7    1  0.3345055E-009  0.9195239E+02  0.7818608E-02  0.1298191E+00
         -1   -1    0    0    0  501 -0.00000000000E+00  0.00000000000E+00  0.94381607172E+02  0.94381607306E+02  0.50400000000E-02 0.  1.
          1   -1    0    0  501    0  0.00000000000E+00 -0.00000000000E+00 -0.22396422214E+02  0.22396422781E+02  0.50400000000E-02 0. -1.
         23    2    1    2    0    0  0.00000000000E+00 -0.71054273576E-14  0.71985184958E+02  0.11677803009E+03  0.91952386905E+02 0.  0.
    9000005    2    3    3    0    0 -0.27084867632E+02 -0.32431782107E+02  0.16003406038E+02  0.46639808579E+02  0.11565128367E+02 0.  0.
         22    1    3    3    0    0  0.27084867632E+02  0.32431782107E+02  0.55981778920E+02  0.70138221508E+02  0.00000000000E+00 0.  1.
         22    1    4    4    0    0 -0.72199106177E+01 -0.91865824150E+01 -0.86915340623E+00  0.11716477006E+02  0.00000000000E+00 0. -1.
         22    1    4    4    0    0 -0.19864957015E+02 -0.23245199692E+02  0.16872559444E+02  0.34923331572E+02  0.00000000000E+00 0. -1.
<mgrwt>
<rscale>  0 0.91952387E+02</rscale>
<asrwt>0</asrwt>
<pdfrwt beam="2">  1        1 0.34456035E-02 0.91952387E+02</pdfrwt>
<pdfrwt beam="1">  1       -1 0.14520247E-01 0.91952387E+02</pdfrwt>
<totfact> 0.80464679E+04</totfact>
</mgrwt>
</event>
<event>
 7    1  0.3345055E-009  0.9231283E+02  0.7818608E-02  0.1297346E+00
         -1   -1    0    0    0  501 -0.00000000000E+00  0.00000000000E+00  0.42979922782E+02  0.42979923077E+02  0.50400000000E-02 0.  1.
          1   -1    0    0  501    0  0.00000000000E+00 -0.00000000000E+00 -0.49567673135E+02  0.49567673392E+02  0.50400000000E-02 0. -1.
         23    2    1    2    0    0  0.00000000000E+00  0.00000000000E+00 -0.65877503537E+01  0.92547596469E+02  0.92312833113E+02 0.  0.
    9000005    2    3    3    0    0 -0.15894485522E+02 -0.13007543531E+02  0.38041211229E+02  0.43419446995E+02  0.40353149663E+01 0.  0.
         22    1    3    3    0    0  0.15894485522E+02  0.13007543531E+02 -0.44628961583E+02  0.49128149473E+02  0.00000000000E+00 0. -1.
         22    1    4    4    0    0 -0.79337082916E+01 -0.90658691399E+01  0.21700096210E+02  0.24819909066E+02  0.00000000000E+00 0.  1.
         22    1    4    4    0    0 -0.79607772304E+01 -0.39416743913E+01  0.16341115019E+02  0.18599537930E+02  0.00000000000E+00 0.  1.
<mgrwt>
<rscale>  0 0.92312833E+02</rscale>
<asrwt>0</asrwt>
<pdfrwt beam="2">  1        1 0.76257959E-02 0.92312833E+02</pdfrwt>
<pdfrwt beam="1">  1       -1 0.66122959E-02 0.92312833E+02</pdfrwt>
<totfact> 0.90448796E+04</totfact>
</mgrwt>
</event>
<event>
 7    1  0.3345055E-009  0.8908956E+02  0.7818608E-02  0.1305072E+00
          1   -1    0    0  501    0  0.00000000000E+00  0.00000000000E+00  0.23233304264E+03  0.23233304270E+03  0.50400000000E-02 0. -1.
         -1   -1    0    0    0  501 -0.00000000000E+00 -0.00000000000E+00 -0.85404871669E+01  0.85404886540E+01  0.50400000000E-02 0.  1.
         23    2    1    2    0    0 -0.31918911958E-15  0.00000000000E+00  0.22379255548E+03  0.24087353135E+03  0.89089562909E+02 0.  0.
    9000005    2    3    3    0    0 -0.87258107464E-01 -0.32037512344E+02  0.36273523558E+02  0.50637369850E+02  0.14898486599E+02 0.  0.
         22    1    3    3    0    0  0.87258107464E-01  0.32037512344E+02  0.18751903192E+03  0.19023616150E+03  0.00000000000E+00 0. -1.
         22    1    4    4    0    0 -0.46341975293E+01 -0.70121614903E+01  0.33854517787E+01  0.90613177437E+01  0.00000000000E+00 0. -1.
         22    1    4    4    0    0  0.45469394218E+01 -0.25025350853E+02  0.32888071779E+02  0.41576052107E+02  0.00000000000E+00 0. -1.
<mgrwt>
<rscale>  0 0.89089563E+02</rscale>
<asrwt>0</asrwt>
<pdfrwt beam="1">  1        1 0.35743541E-01 0.89089563E+02</pdfrwt>
<pdfrwt beam="2">  1       -1 0.13139214E-02 0.89089563E+02</pdfrwt>
<totfact> 0.12969034E+05</totfact>
</mgrwt>
</event>
<event>
 7    1  0.3345055E-009  0.9111772E+02  0.7818608E-02  0.1300167E+00
         -1   -1    0    0    0  501 -0.00000000000E+00  0.00000000000E+00  0.23820892802E+03  0.23820892807E+03  0.50400000000E-02 0.  1.
          1   -1    0    0  501    0  0.00000000000E+00 -0.00000000000E+00 -0.87133985410E+01  0.87133999987E+01  0.50400000000E-02 0. -1.
         23    2    1    2    0    0  0.00000000000E+00  0.35527136788E-14  0.22949552947E+03  0.24692232807E+03  0.91117715344E+02 0.  0.
    9000005    2    3    3    0    0  0.71775611337E+01 -0.29796535048E+02  0.20541430176E+03  0.20794468816E+03  0.10325070502E+02 0.  0.
         22    1    3    3    0    0 -0.71775611337E+01  0.29796535048E+02  0.24081227714E+02  0.38977639909E+02  0.00000000000E+00 0. -1.
         22    1    4    4    0    0  0.77199445944E+01 -0.11881550929E+02  0.10366212046E+03  0.10462601978E+03  0.00000000000E+00 0. -1.
         22    1    4    4    0    0 -0.54238346074E+00 -0.17914984119E+02  0.10175218130E+03  0.10331866837E+03  0.00000000000E+00 0. -1.
<mgrwt>
<rscale>  0 0.91117715E+02</rscale>
<asrwt>0</asrwt>
<pdfrwt beam="2">  1        1 0.13405228E-02 0.91117715E+02</pdfrwt>
<pdfrwt beam="1">  1       -1 0.36647532E-01 0.91117715E+02</pdfrwt>
<totfact> 0.65925453E+04</totfact>
</mgrwt>
</event>
<event>
 7    1  0.3345055E-009  0.9074963E+02  0.7818608E-02  0.1301046E+00
         -1   -1    0    0    0  501 -0.00000000000E+00  0.00000000000E+00  0.41913762787E+03  0.41913762790E+03  0.50400000000E-02 0.  1.
          1   -1    0    0  501    0  0.00000000000E+00 -0.00000000000E+00 -0.49121649410E+01  0.49121675265E+01  0.50400000000E-02 0. -1.
         23    2    1    2    0    0  0.00000000000E+00  0.00000000000E+00  0.41422546293E+03  0.42404979542E+03  0.90749627342E+02 0.  0.
    9000005    2    3    3    0    0 -0.16521980511E+02  0.40776602204E+02  0.17393854321E+03  0.17976817328E+03  0.11237089724E+02 0.  0.
         22    1    3    3    0    0  0.16521980511E+02 -0.40776602204E+02  0.24028691972E+03  0.24428162214E+03  0.00000000000E+00 0.  1.
         22    1    4    4    0    0 -0.94450391267E+01  0.11438636919E+02  0.46695025298E+02  0.48994658549E+02  0.00000000000E+00 0. -1.
         22    1    4    4    0    0 -0.70769413839E+01  0.29337965285E+02  0.12724351791E+03  0.13077351474E+03  0.00000000000E+00 0. -1.
<mgrwt>
<rscale>  0 0.90749627E+02</rscale>
<asrwt>0</asrwt>
<pdfrwt beam="2">  1        1 0.75571777E-03 0.90749627E+02</pdfrwt>
<pdfrwt beam="1">  1       -1 0.64482722E-01 0.90749627E+02</pdfrwt>
<totfact> 0.52664803E+04</totfact>
</mgrwt>
</event>
<event>
 7    1  0.3345055E-009  0.9562396E+02  0.7818608E-02  0.1289777E+00
         -1   -1    0    0    0  501 -0.00000000000E+00  0.00000000000E+00  0.36533691948E+03  0.36533691951E+03  0.50400000000E-02 0.  1.
          1   -1    0    0  501    0  0.00000000000E+00 -0.00000000000E+00 -0.62571971971E+01  0.62571992269E+01  0.50400000000E-02 0. -1.
         23    2    1    2    0    0  0.00000000000E+00  0.71054273576E-14  0.35907972228E+03  0.37159411874E+03  0.95623962104E+02 0.  0.
    9000005    2    3    3    0    0  0.33283781713E+02  0.32531671185E+02  0.18395378553E+03  0.19038922510E+03  0.15586599022E+02 0.  0.
         22    1    3    3    0    0 -0.33283781713E+02 -0.32531671185E+02  0.17512593675E+03  0.18120489363E+03  0.00000000000E+00 0.  1.
         22    1    4    4    0    0 -0.14139692449E+01  0.23591384402E+00  0.96088151677E+01  0.97151579141E+01  0.00000000000E+00 0.  1.
         22    1    4    4    0    0  0.34697750958E+02  0.32295757340E+02  0.17434497036E+03  0.18067406719E+03  0.00000000000E+00 0.  1.
<mgrwt>
<rscale>  0 0.95623962E+02</rscale>
<asrwt>0</asrwt>
<pdfrwt beam="2">  1        1 0.96264554E-03 0.95623962E+02</pdfrwt>
<pdfrwt beam="1">  1       -1 0.56205700E-01 0.95623962E+02</pdfrwt>
<totfact> 0.49144095E+04</totfact>
</mgrwt>
</event>
<event>
 7    1  0.3345055E-009  0.9145051E+02  0.7818608E-02  0.1299377E+00
         -1   -1    0    0    0  501 -0.00000000000E+00  0.00000000000E+00  0.12355361267E+02  0.12355362295E+02  0.50400000000E-02 0.  1.
          1   -1    0    0  501    0  0.00000000000E+00 -0.00000000000E+00 -0.16922198172E+03  0.16922198180E+03  0.50400000000E-02 0. -1.
         23    2    1    2    0    0  0.00000000000E+00  0.00000000000E+00 -0.15686662046E+03  0.18157734409E+03  0.91450507239E+02 0.  0.
    9000005    2    3    3    0    0  0.22898977816E+02 -0.37562214977E+02 -0.65249067067E+02  0.79945364539E+02  0.14090329278E+02 0.  0.
         22    1    3    3    0    0 -0.22898977816E+02  0.37562214977E+02 -0.91617553388E+02  0.10163197955E+03  0.00000000000E+00 0. -1.
         22    1    4    4    0    0  0.10724699522E+02 -0.29634731784E+02 -0.47574657290E+02  0.57066492130E+02  0.00000000000E+00 0. -1.
         22    1    4    4    0    0  0.12174278293E+02 -0.79274831925E+01 -0.17674409777E+02  0.22878872409E+02  0.00000000000E+00 0. -1.
<mgrwt>
<rscale>  0 0.91450507E+02</rscale>
<asrwt>0</asrwt>
<pdfrwt beam="2">  1        1 0.26034149E-01 0.91450507E+02</pdfrwt>
<pdfrwt beam="1">  1       -1 0.19008250E-02 0.91450507E+02</pdfrwt>
<totfact> 0.11375457E+05</totfact>
</mgrwt>
</event>
<event>
 7    1  0.3345055E-009  0.9150246E+02  0.7818608E-02  0.1299254E+00
         -1   -1    0    0    0  501 -0.00000000000E+00  0.00000000000E+00  0.54176235523E+03  0.54176235525E+03  0.50400000000E-02 0.  1.
          1   -1    0    0  501    0  0.00000000000E+00 -0.00000000000E+00 -0.38636386628E+01  0.38636419500E+01  0.50400000000E-02 0. -1.
         23    2    1    2    0    0  0.00000000000E+00 -0.35527136788E-14  0.53789871656E+03  0.54562599720E+03  0.91502456467E+02 0.  0.
    9000005    2    3    3    0    0 -0.23166979720E+02  0.25273158706E+02  0.44695541117E+03  0.44843481295E+03  0.12214761118E+02 0.  0.
         22    1    3    3    0    0  0.23166979720E+02 -0.25273158706E+02  0.90943305391E+02  0.97191184250E+02  0.00000000000E+00 0. -1.
         22    1    4    4    0    0 -0.99055290256E+01  0.65260628078E+01  0.96211659797E+02  0.96940148968E+02  0.00000000000E+00 0.  1.
         22    1    4    4    0    0 -0.13261450694E+02  0.18747095899E+02  0.35074375137E+03  0.35149466398E+03  0.00000000000E+00 0.  1.
<mgrwt>
<rscale>  0 0.91502456E+02</rscale>
<asrwt>0</asrwt>
<pdfrwt beam="2">  1        1 0.59440627E-03 0.91502456E+02</pdfrwt>
<pdfrwt beam="1">  1       -1 0.83348046E-01 0.91502456E+02</pdfrwt>
<totfact> 0.44271134E+04</totfact>
</mgrwt>
</event>
<event>
 7    1  0.3345055E-009  0.9793651E+02  0.7818608E-02  0.1284696E+00
         -1   -1    0    0    0  501 -0.00000000000E+00  0.00000000000E+00  0.47182005163E+02  0.47182005432E+02  0.50400000000E-02 0.  1.
          1   -1    0    0  501    0  0.00000000000E+00 -0.00000000000E+00 -0.50822129455E+02  0.50822129705E+02  0.50400000000E-02 0. -1.
         23    2    1    2    0    0  0.35527136788E-14  0.00000000000E+00 -0.36401242916E+01  0.98004135137E+02  0.97936510041E+02 0.  0.
    9000005    2    3    3    0    0  0.31412742040E+02  0.16439096332E+02  0.31938113911E+02  0.47776500470E+02  0.23551276478E+01 0.  0.
         22    1    3    3    0    0 -0.31412742040E+02 -0.16439096332E+02 -0.35578238202E+02  0.50227634667E+02  0.00000000000E+00 0. -1.
         22    1    4    4    0    0  0.30884207600E+02  0.16147838374E+02  0.30905286556E+02  0.46580293047E+02  0.00000000000E+00 0. -1.
         22    1    4    4    0    0  0.52853443995E+00  0.29125795762E+00  0.10328273551E+01  0.11962074224E+01  0.00000000000E+00 0. -1.
<mgrwt>
<rscale>  0 0.97936510E+02</rscale>
<asrwt>0</asrwt>
<pdfrwt beam="2">  1        1 0.78187892E-02 0.97936510E+02</pdfrwt>
<pdfrwt beam="1">  1       -1 0.72587700E-02 0.97936510E+02</pdfrwt>
<totfact> 0.76873242E+04</totfact>
</mgrwt>
</event>
<event>
 7    1  0.3345055E-009  0.9047574E+02  0.7818608E-02  0.1301704E+00
         -1   -1    0    0    0  501 -0.00000000000E+00  0.00000000000E+00  0.20900263223E+02  0.20900263831E+02  0.50400000000E-02 0.  1.
          1   -1    0    0  501    0  0.00000000000E+00 -0.00000000000E+00 -0.97915751313E+02  0.97915751443E+02  0.50400000000E-02 0. -1.
         23    2    1    2    0    0  0.00000000000E+00  0.00000000000E+00 -0.77015488090E+02  0.11881601527E+03  0.90475743046E+02 0.  0.
    9000005    2    3    3    0    0  0.92852858246E+01 -0.18804033263E+02 -0.90500351717E+02  0.93883110372E+02  0.13561583701E+02 0.  0.
         22    1    3    3    0    0 -0.92852858246E+01  0.18804033263E+02  0.13484863627E+02  0.24932904901E+02  0.00000000000E+00 0.  1.
         22    1    4    4    0    0  0.87025217368E+01 -0.12681459329E+02 -0.37564703686E+02  0.40591381577E+02  0.00000000000E+00 0. -1.
         22    1    4    4    0    0  0.58276408776E+00 -0.61225739333E+01 -0.52935648030E+02  0.53291728795E+02  0.00000000000E+00 0. -1.
<mgrwt>
<rscale>  0 0.90475743E+02</rscale>
<asrwt>0</asrwt>
<pdfrwt beam="2">  1        1 0.15063961E-01 0.90475743E+02</pdfrwt>
<pdfrwt beam="1">  1       -1 0.32154252E-02 0.90475743E+02</pdfrwt>
<totfact> 0.10629998E+05</totfact>
</mgrwt>
</event>
<event>
 7    1  0.3345055E-009  0.9012200E+02  0.7818608E-02  0.1302557E+00
          1   -1    0    0  501    0  0.00000000000E+00  0.00000000000E+00  0.65718818878E+01  0.65718838204E+01  0.50400000000E-02 0. -1.
         -1   -1    0    0    0  501 -0.00000000000E+00 -0.00000000000E+00 -0.30896683240E+03  0.30896683244E+03  0.50400000000E-02 0.  1.
         23    2    1    2    0    0  0.00000000000E+00  0.17763568394E-14 -0.30239495051E+03  0.31553871626E+03  0.90122002667E+02 0.  0.
    9000005    2    3    3    0    0 -0.41697514236E+02  0.13268853508E+02 -0.11426231806E+03  0.12238428954E+03  0.27003392439E+01 0.  0.
         22    1    3    3    0    0  0.41697514236E+02 -0.13268853508E+02 -0.18813263246E+03  0.19315442672E+03  0.00000000000E+00 0. -1.
         22    1    4    4    0    0 -0.88873134049E+00  0.77523424665E-01 -0.15539581182E+01  0.17918256361E+01  0.00000000000E+00 0.  1.
         22    1    4    4    0    0 -0.40808782896E+02  0.13191330083E+02 -0.11270835994E+03  0.12059246391E+03  0.00000000000E+00 0.  1.
<mgrwt>
<rscale>  0 0.90122003E+02</rscale>
<asrwt>0</asrwt>
<pdfrwt beam="1">  1        1 0.10110591E-02 0.90122003E+02</pdfrwt>
<pdfrwt beam="2">  1       -1 0.47533348E-01 0.90122003E+02</pdfrwt>
<totfact> 0.61728447E+04</totfact>
</mgrwt>
</event>
<event>
 7    1  0.3345055E-009  0.8831311E+02  0.7818608E-02  0.1306989E+00
         -1   -1    0    0    0  501 -0.00000000000E+00  0.00000000000E+00  0.13142961617E+02  0.13142962583E+02  0.50400000000E-02 0.  1.
          1   -1    0    0  501    0  0.00000000000E+00 -0.00000000000E+00 -0.14835327014E+03  0.14835327023E+03  0.50400000000E-02 0. -1.
         23    2    1    2    0    0  0.17763568394E-14  0.35527136788E-14 -0.13521030852E+03  0.16149623281E+03  0.88313111600E+02 0.  0.
    9000005    2    3    3    0    0  0.12877763669E+02  0.29624741249E+02 -0.14974024482E+02  0.36996328828E+02  0.10052106565E+02 0.  0.
         22    1    3    3    0    0 -0.12877763669E+02 -0.29624741249E+02 -0.12023628404E+03  0.12449990398E+03  0.00000000000E+00 0. -1.
         22    1    4    4    0    0  0.11786572536E+02  0.30324253888E+02 -0.14413883535E+02  0.35584318240E+02  0.00000000000E+00 0.  1.
         22    1    4    4    0    0  0.10911911326E+01 -0.69951263943E+00 -0.56014094714E+00  0.14120105882E+01  0.00000000000E+00 0.  1.
<mgrwt>
<rscale>  0 0.88313112E+02</rscale>
<asrwt>0</asrwt>
<pdfrwt beam="2">  1        1 0.22823579E-01 0.88313112E+02</pdfrwt>
<pdfrwt beam="1">  1       -1 0.20219943E-02 0.88313112E+02</pdfrwt>
<totfact> 0.12194201E+05</totfact>
</mgrwt>
</event>
<event>
 7    1  0.3345055E-009  0.9002701E+02  0.7818608E-02  0.1302786E+00
         -1   -1    0    0    0  501 -0.00000000000E+00  0.00000000000E+00  0.10176797072E+02  0.10176798320E+02  0.50400000000E-02 0.  1.
          1   -1    0    0  501    0  0.00000000000E+00 -0.00000000000E+00 -0.19910151508E+03  0.19910151515E+03  0.50400000000E-02 0. -1.
         23    2    1    2    0    0  0.00000000000E+00  0.00000000000E+00 -0.18892471801E+03  0.20927831347E+03  0.90027014902E+02 0.  0.
    9000005    2    3    3    0    0 -0.16384054878E+02 -0.40742193578E+02 -0.11418484058E+03  0.12259260028E+03  0.78996350658E+01 0.  0.
         22    1    3    3    0    0  0.16384054878E+02  0.40742193578E+02 -0.74739877432E+02  0.86685713185E+02  0.00000000000E+00 0.  1.
         22    1    4    4    0    0 -0.62616978386E+01 -0.79175181316E+01 -0.30711215660E+02  0.32327615447E+02  0.00000000000E+00 0. -1.
         22    1    4    4    0    0 -0.10122357039E+02 -0.32824675446E+02 -0.83473624917E+02  0.90264984833E+02  0.00000000000E+00 0. -1.
<mgrwt>
<rscale>  0 0.90027015E+02</rscale>
<asrwt>0</asrwt>
<pdfrwt beam="2">  1        1 0.30631000E-01 0.90027015E+02</pdfrwt>
<pdfrwt beam="1">  1       -1 0.15656613E-02 0.90027015E+02</pdfrwt>
<totfact> 0.12239349E+05</totfact>
</mgrwt>
</event>
<event>
 7    1  0.3345055E-009  0.8847401E+02  0.7818608E-02  0.1306590E+00
          1   -1    0    0  501    0  0.00000000000E+00  0.00000000000E+00  0.48037081607E+02  0.48037081871E+02  0.50400000000E-02 0. -1.
         -1   -1    0    0    0  501 -0.00000000000E+00 -0.00000000000E+00 -0.40737540302E+02  0.40737540614E+02  0.50400000000E-02 0.  1.
         23    2    1    2    0    0  0.00000000000E+00  0.00000000000E+00  0.72995413047E+01  0.88774622485E+02  0.88474009144E+02 0.  0.
    9000005    2    3    3    0    0  0.28801438708E+02  0.59288714233E+01 -0.29411911221E+02  0.41738411598E+02  0.35156924080E+01 0.  0.
         22    1    3    3    0    0 -0.28801438708E+02 -0.59288714233E+01  0.36711452525E+02  0.47036210886E+02  0.00000000000E+00 0. -1.
         22    1    4    4    0    0  0.28148948877E+02  0.55733511399E+01 -0.27752617215E+02  0.39920337275E+02  0.00000000000E+00 0.  1.
         22    1    4    4    0    0  0.65248983095E+00  0.35552028348E+00 -0.16592940052E+01  0.18180743238E+01  0.00000000000E+00 0.  1.
<mgrwt>
<rscale>  0 0.88474009E+02</rscale>
<asrwt>0</asrwt>
<pdfrwt beam="1">  1        1 0.73903202E-02 0.88474009E+02</pdfrwt>
<pdfrwt beam="2">  1       -1 0.62673140E-02 0.88474009E+02</pdfrwt>
<totfact> 0.10136799E+05</totfact>
</mgrwt>
</event>
<event>
 7    1  0.3345055E-009  0.9049624E+02  0.7818608E-02  0.1301654E+00
          1   -1    0    0  501    0  0.00000000000E+00  0.00000000000E+00  0.11962014406E+03  0.11962014416E+03  0.50400000000E-02 0. -1.
         -1   -1    0    0    0  501 -0.00000000000E+00 -0.00000000000E+00 -0.17115780322E+02  0.17115781064E+02  0.50400000000E-02 0.  1.
         23    2    1    2    0    0  0.00000000000E+00  0.35527136788E-14  0.10250436374E+03  0.13673592523E+03  0.90496235629E+02 0.  0.
    9000005    2    3    3    0    0  0.96581403365E+00 -0.31193472958E+02  0.99678057402E+02  0.10539978699E+03  0.14122125156E+02 0.  0.
         22    1    3    3    0    0 -0.96581403365E+00  0.31193472958E+02  0.28263063342E+01  0.31336138234E+02  0.00000000000E+00 0.  1.
         22    1    4    4    0    0 -0.99673055875E+00 -0.32047609585E+02  0.91903947345E+02  0.97336418105E+02  0.00000000000E+00 0. -1.
         22    1    4    4    0    0  0.19625445924E+01  0.85413662709E+00  0.77741100571E+01  0.80633688887E+01  0.00000000000E+00 0. -1.
<mgrwt>
<rscale>  0 0.90496236E+02</rscale>
<asrwt>0</asrwt>
<pdfrwt beam="1">  1        1 0.18403099E-01 0.90496236E+02</pdfrwt>
<pdfrwt beam="2">  1       -1 0.26331971E-02 0.90496236E+02</pdfrwt>
<totfact> 0.10988793E+05</totfact>
</mgrwt>
</event>
<event>
 7    1  0.3345055E-009  0.9253859E+02  0.7818608E-02  0.1296818E+00
         -1   -1    0    0    0  501 -0.00000000000E+00  0.00000000000E+00  0.16243379169E+02  0.16243379951E+02  0.50400000000E-02 0.  1.
          1   -1    0    0  501    0  0.00000000000E+00 -0.00000000000E+00 -0.13179818034E+03  0.13179818043E+03  0.50400000000E-02 0. -1.
         23    2    1    2    0    0  0.00000000000E+00  0.00000000000E+00 -0.11555480117E+03  0.14804156038E+03  0.92538594801E+02 0.  0.
    9000005    2    3    3    0    0 -0.25367260637E+02 -0.37318984582E+02 -0.73041171690E+02  0.86044679705E+02  0.56982121051E+01 0.  0.
         22    1    3    3    0    0  0.25367260637E+02  0.37318984582E+02 -0.42513629477E+02  0.61996880678E+02  0.00000000000E+00 0. -1.
         22    1    4    4    0    0 -0.18634322786E+02 -0.31071598134E+02 -0.56331092855E+02  0.66976669210E+02  0.00000000000E+00 0. -1.
         22    1    4    4    0    0 -0.67329378514E+01 -0.62473864478E+01 -0.16710078836E+02  0.19068010495E+02  0.00000000000E+00 0. -1.
<mgrwt>
<rscale>  0 0.92538595E+02</rscale>
<asrwt>0</asrwt>
<pdfrwt beam="2">  1        1 0.20276643E-01 0.92538595E+02</pdfrwt>
<pdfrwt beam="1">  1       -1 0.24989816E-02 0.92538595E+02</pdfrwt>
<totfact> 0.10522055E+05</totfact>
</mgrwt>
</event>
<event>
 7    1  0.3345055E-009  0.9295983E+02  0.7818608E-02  0.1295838E+00
         -1   -1    0    0    0  501 -0.00000000000E+00  0.00000000000E+00  0.56222338882E+02  0.56222339108E+02  0.50400000000E-02 0.  1.
          1   -1    0    0  501    0  0.00000000000E+00 -0.00000000000E+00 -0.38425694124E+02  0.38425694455E+02  0.50400000000E-02 0. -1.
         23    2    1    2    0    0  0.00000000000E+00  0.35527136788E-14  0.17796644758E+02  0.94648033563E+02  0.92959828382E+02 0.  0.
    9000005    2    3    3    0    0 -0.36381893810E+02 -0.26138094490E+02 -0.14624925515E+01  0.45885788428E+02  0.98246890230E+01 0.  0.
         22    1    3    3    0    0  0.36381893810E+02  0.26138094490E+02  0.19259137309E+02  0.48762245136E+02  0.00000000000E+00 0. -1.
         22    1    4    4    0    0  0.10826785902E+00  0.25447379505E+00  0.74765438220E+00  0.79716116118E+00  0.00000000000E+00 0. -1.
         22    1    4    4    0    0 -0.36490161669E+02 -0.26392568285E+02 -0.22101469337E+01  0.45088627266E+02  0.00000000000E+00 0. -1.
<mgrwt>
<rscale>  0 0.92959828E+02</rscale>
<asrwt>0</asrwt>
<pdfrwt beam="2">  1        1 0.59116453E-02 0.92959828E+02</pdfrwt>
<pdfrwt beam="1">  1       -1 0.86495906E-02 0.92959828E+02</pdfrwt>
<totfact> 0.85291448E+04</totfact>
</mgrwt>
</event>
<event>
 7    1  0.3345055E-009  0.8699200E+02  0.7818608E-02  0.1310304E+00
         -1   -1    0    0    0  501 -0.00000000000E+00  0.00000000000E+00  0.26532317571E+02  0.26532318050E+02  0.50400000000E-02 0.  1.
          1   -1    0    0  501    0  0.00000000000E+00 -0.00000000000E+00 -0.71305560356E+02  0.71305560534E+02  0.50400000000E-02 0. -1.
         23    2    1    2    0    0 -0.35527136788E-14  0.00000000000E+00 -0.44773242785E+02  0.97837878584E+02  0.86991995128E+02 0.  0.
    9000005    2    3    3    0    0 -0.17080020971E+02 -0.14850890239E+02  0.19034901711E+02  0.30134441734E+02  0.57862801735E+01 0.  0.
         22    1    3    3    0    0  0.17080020971E+02  0.14850890239E+02 -0.63808144496E+02  0.67703436850E+02  0.00000000000E+00 0. -1.
         22    1    4    4    0    0 -0.29005125844E+00 -0.21815243989E+01  0.28151141860E+01  0.35732403104E+01  0.00000000000E+00 0.  1.
         22    1    4    4    0    0 -0.16789969713E+02 -0.12669365840E+02  0.16219787525E+02  0.26561201424E+02  0.00000000000E+00 0.  1.
<mgrwt>
<rscale>  0 0.86991995E+02</rscale>
<asrwt>0</asrwt>
<pdfrwt beam="2">  1        1 0.10970086E-01 0.86991995E+02</pdfrwt>
<pdfrwt beam="1">  1       -1 0.40818951E-02 0.86991995E+02</pdfrwt>
<totfact> 0.11256764E+05</totfact>
</mgrwt>
</event>
<event>
 7    1  0.3345055E-009  0.9118946E+02  0.7818608E-02  0.1299997E+00
          1   -1    0    0  501    0  0.00000000000E+00  0.00000000000E+00  0.68967735166E+01  0.68967753581E+01  0.50400000000E-02 0. -1.
         -1   -1    0    0    0  501 -0.00000000000E+00 -0.00000000000E+00 -0.30142775625E+03  0.30142775630E+03  0.50400000000E-02 0.  1.
         23    2    1    2    0    0 -0.17763568394E-14  0.00000000000E+00 -0.29453098274E+03  0.30832453165E+03  0.91189456778E+02 0.  0.
    9000005    2    3    3    0    0  0.14006072908E+02 -0.40636434329E+02 -0.19195939714E+03  0.19711113297E+03  0.12525921929E+02 0.  0.
         22    1    3    3    0    0 -0.14006072908E+02  0.40636434329E+02 -0.10257158560E+03  0.11121339868E+03  0.00000000000E+00 0. -1.
         22    1    4    4    0    0  0.11609353469E+02 -0.38499714378E+02 -0.15940537256E+03  0.16439914202E+03  0.00000000000E+00 0.  1.
         22    1    4    4    0    0  0.23967194394E+01 -0.21367199505E+01 -0.32554024578E+02  0.32711990958E+02  0.00000000000E+00 0.  1.
<mgrwt>
<rscale>  0 0.91189457E+02</rscale>
<asrwt>0</asrwt>
<pdfrwt beam="1">  1        1 0.10610425E-02 0.91189457E+02</pdfrwt>
<pdfrwt beam="2">  1       -1 0.46373491E-01 0.91189457E+02</pdfrwt>
<totfact> 0.60451104E+04</totfact>
</mgrwt>
</event>
<event>
 7    1  0.3345055E-009  0.8683168E+02  0.7818608E-02  0.1310711E+00
          1   -1    0    0  501    0  0.00000000000E+00  0.00000000000E+00  0.48794694219E+03  0.48794694222E+03  0.50400000000E-02 0. -1.
         -1   -1    0    0    0  501 -0.00000000000E+00 -0.00000000000E+00 -0.38629907616E+01  0.38629940494E+01  0.50400000000E-02 0.  1.
         23    2    1    2    0    0  0.00000000000E+00  0.00000000000E+00  0.48408395143E+03  0.49180993627E+03  0.86831684188E+02 0.  0.
    9000005    2    3    3    0    0 -0.19560756256E+02  0.16243290751E+02  0.44075550217E+03  0.44157227913E+03  0.86137866095E+01 0.  0.
         22    1    3    3    0    0  0.19560756256E+02 -0.16243290751E+02  0.43328449259E+02  0.50237657140E+02  0.00000000000E+00 0.  1.
         22    1    4    4    0    0 -0.16941231406E+01  0.31363602919E+01  0.28558869142E+02  0.28780476295E+02  0.00000000000E+00 0.  1.
         22    1    4    4    0    0 -0.17866633115E+02  0.13106930459E+02  0.41219663303E+03  0.41279180283E+03  0.00000000000E+00 0.  1.
<mgrwt>
<rscale>  0 0.86831684E+02</rscale>
<asrwt>0</asrwt>
<pdfrwt beam="1">  1        1 0.75068722E-01 0.86831684E+02</pdfrwt>
<pdfrwt beam="2">  1       -1 0.59430683E-03 0.86831684E+02</pdfrwt>
<totfact> 0.15798312E+05</totfact>
</mgrwt>
</event>
<event>
 7    1  0.3345055E-009  0.9325464E+02  0.7818608E-02  0.1295156E+00
         -1   -1    0    0    0  501 -0.00000000000E+00  0.00000000000E+00  0.23034701842E+02  0.23034702393E+02  0.50400000000E-02 0.  1.
          1   -1    0    0  501    0  0.00000000000E+00 -0.00000000000E+00 -0.94383986776E+02  0.94383986911E+02  0.50400000000E-02 0. -1.
         23    2    1    2    0    0  0.35527136788E-14  0.00000000000E+00 -0.71349284934E+02  0.11741868930E+03  0.93254641371E+02 0.  0.
    9000005    2    3    3    0    0  0.22861246812E+02  0.25629067584E+02  0.13265991980E+01  0.37036664912E+02  0.13801049644E+02 0.  0.
         22    1    3    3    0    0 -0.22861246812E+02 -0.25629067584E+02 -0.72675884132E+02  0.80382024392E+02  0.00000000000E+00 0. -1.
         22    1    4    4    0    0  0.18226272424E+02  0.12685022004E+02  0.50902793615E+01  0.22781960708E+02  0.00000000000E+00 0. -1.
         22    1    4    4    0    0  0.46349743883E+01  0.12944045580E+02 -0.37636801636E+01  0.14254704203E+02  0.00000000000E+00 0. -1.
<mgrwt>
<rscale>  0 0.93254641E+02</rscale>
<asrwt>0</asrwt>
<pdfrwt beam="2">  1        1 0.14520613E-01 0.93254641E+02</pdfrwt>
<pdfrwt beam="1">  1       -1 0.35438004E-02 0.93254641E+02</pdfrwt>
<totfact> 0.97271428E+04</totfact>
</mgrwt>
</event>
<event>
 7    1  0.3345055E-009  0.8728168E+02  0.7818608E-02  0.1309571E+00
         -1   -1    0    0    0  501 -0.00000000000E+00  0.00000000000E+00  0.29120648683E+01  0.29120692298E+01  0.50400000000E-02 0.  1.
          1   -1    0    0  501    0  0.00000000000E+00 -0.00000000000E+00 -0.65401062107E+03  0.65401062109E+03  0.50400000000E-02 0. -1.
         23    2    1    2    0    0  0.22204460493E-15  0.00000000000E+00 -0.65109855621E+03  0.65692269032E+03  0.87281677163E+02 0.  0.
    9000005    2    3    3    0    0  0.19263441411E+01  0.30057246110E+02 -0.56072248193E+03  0.56165998174E+03  0.12045102696E+02 0.  0.
         22    1    3    3    0    0 -0.19263441411E+01 -0.30057246110E+02 -0.90376074277E+02  0.95262708587E+02  0.00000000000E+00 0.  1.
         22    1    4    4    0    0  0.59400160604E+01  0.23088587791E+02 -0.36935750024E+03  0.37012609967E+03  0.00000000000E+00 0. -1.
         22    1    4    4    0    0 -0.40136719193E+01  0.69686583193E+01 -0.19136498169E+03  0.19153388207E+03  0.00000000000E+00 0. -1.
<mgrwt>
<rscale>  0 0.87281677E+02</rscale>
<asrwt>0</asrwt>
<pdfrwt beam="2">  1        1 0.10061690E+00 0.87281677E+02</pdfrwt>
<pdfrwt beam="1">  1       -1 0.44801084E-03 0.87281677E+02</pdfrwt>
<totfact> 0.15946140E+05</totfact>
</mgrwt>
</event>
<event>
 7    1  0.3345055E-009  0.8536789E+02  0.7818608E-02  0.1314473E+00
         -1   -1    0    0    0  501 -0.00000000000E+00  0.00000000000E+00  0.48772863677E+01  0.48772889718E+01  0.50400000000E-02 0.  1.
          1   -1    0    0  501    0  0.00000000000E+00 -0.00000000000E+00 -0.37355170380E+03  0.37355170383E+03  0.50400000000E-02 0. -1.
         23    2    1    2    0    0  0.00000000000E+00  0.00000000000E+00 -0.36867441743E+03  0.37842899280E+03  0.85367889320E+02 0.  0.
    9000005    2    3    3    0    0 -0.21280524102E+02  0.27327315130E+02 -0.29132263100E+03  0.29367675553E+03  0.13323608745E+02 0.  0.
         22    1    3    3    0    0  0.21280524102E+02 -0.27327315130E+02 -0.77351786430E+02  0.84752237270E+02  0.00000000000E+00 0.  1.
         22    1    4    4    0    0 -0.63427179689E+01  0.80220908065E+00 -0.65550873815E+02  0.65861906050E+02  0.00000000000E+00 0.  1.
         22    1    4    4    0    0 -0.14937806133E+02  0.26525106050E+02 -0.22577175719E+03  0.22781484948E+03  0.00000000000E+00 0.  1.
<mgrwt>
<rscale>  0 0.85367889E+02</rscale>
<asrwt>0</asrwt>
<pdfrwt beam="2">  1        1 0.57469471E-01 0.85367889E+02</pdfrwt>
<pdfrwt beam="1">  1       -1 0.75035225E-03 0.85367889E+02</pdfrwt>
<totfact> 0.15873215E+05</totfact>
</mgrwt>
</event>
<event>
 7    1  0.3345055E-009  0.8882062E+02  0.7818608E-02  0.1305733E+00
         -1   -1    0    0    0  501 -0.00000000000E+00  0.00000000000E+00  0.48909342785E+02  0.48909343045E+02  0.50400000000E-02 0.  1.
          1   -1    0    0  501    0  0.00000000000E+00 -0.00000000000E+00 -0.40325128371E+02  0.40325128686E+02  0.50400000000E-02 0. -1.
         23    2    1    2    0    0  0.00000000000E+00  0.00000000000E+00  0.85842144144E+01  0.89234471730E+02  0.88820618146E+02 0.  0.
    9000005    2    3    3    0    0  0.16065358806E+02  0.39945191390E+02 -0.63670820129E+01  0.43657555055E+02  0.34246622096E+01 0.  0.
         22    1    3    3    0    0 -0.16065358806E+02 -0.39945191390E+02  0.14951296427E+02  0.45576916675E+02  0.00000000000E+00 0.  1.
         22    1    4    4    0    0  0.25447790353E+01  0.76404280585E+01 -0.24588943548E+01  0.84201070482E+01  0.00000000000E+00 0.  1.
         22    1    4    4    0    0  0.13520579771E+02  0.32304763332E+02 -0.39081876581E+01  0.35237448007E+02  0.00000000000E+00 0.  1.
<mgrwt>
<rscale>  0 0.88820618E+02</rscale>
<asrwt>0</asrwt>
<pdfrwt beam="2">  1        1 0.62038659E-02 0.88820618E+02</pdfrwt>
<pdfrwt beam="1">  1       -1 0.75245143E-02 0.88820618E+02</pdfrwt>
<totfact> 0.97718157E+04</totfact>
</mgrwt>
</event>
<event>
 7    1  0.3345055E-009  0.9280543E+02  0.7818608E-02  0.1296197E+00
          1   -1    0    0  501    0  0.00000000000E+00  0.00000000000E+00  0.66900065282E+02  0.66900065472E+02  0.50400000000E-02 0. -1.
         -1   -1    0    0    0  501 -0.00000000000E+00 -0.00000000000E+00 -0.32185495309E+02  0.32185495703E+02  0.50400000000E-02 0.  1.
         23    2    1    2    0    0 -0.35527136788E-14  0.71054273576E-14  0.34714569974E+02  0.99085561176E+02  0.92805425838E+02 0.  0.
    9000005    2    3    3    0    0 -0.22759687650E+02  0.38854786817E+02  0.29086189699E+02  0.53705207441E+02  0.32473118897E+01 0.  0.
         22    1    3    3    0    0  0.22759687650E+02 -0.38854786817E+02  0.56283802752E+01  0.45380353735E+02  0.00000000000E+00 0.  1.
         22    1    4    4    0    0 -0.96184236535E+01  0.13632959674E+02  0.11575403045E+02  0.20306689013E+02  0.00000000000E+00 0. -1.
         22    1    4    4    0    0 -0.13141263997E+02  0.25221827144E+02  0.17510786654E+02  0.33398518427E+02  0.00000000000E+00 0. -1.
<mgrwt>
<rscale>  0 0.92805426E+02</rscale>
<asrwt>0</asrwt>
<pdfrwt beam="1">  1        1 0.10292318E-01 0.92805426E+02</pdfrwt>
<pdfrwt beam="2">  1       -1 0.49516148E-02 0.92805426E+02</pdfrwt>
<totfact> 0.93295078E+04</totfact>
</mgrwt>
</event>
<event>
 7    1  0.3345055E-009  0.8925699E+02  0.7818608E-02  0.1304661E+00
         -1   -1    0    0    0  501 -0.00000000000E+00  0.00000000000E+00  0.11462382228E+03  0.11462382239E+03  0.50400000000E-02 0.  1.
          1   -1    0    0  501    0  0.00000000000E+00 -0.00000000000E+00 -0.17375992234E+02  0.17375992965E+02  0.50400000000E-02 0. -1.
         23    2    1    2    0    0  0.00000000000E+00  0.00000000000E+00  0.97247830047E+02  0.13199981536E+03  0.89256993035E+02 0.  0.
    9000005    2    3    3    0    0  0.36943017606E+02  0.22573009501E+02  0.63589685610E+02  0.77161890573E+02  0.59984942350E+01 0.  0.
         22    1    3    3    0    0 -0.36943017606E+02 -0.22573009501E+02  0.33658144437E+02  0.54837924785E+02  0.00000000000E+00 0. -1.
         22    1    4    4    0    0  0.11691739690E+02  0.42668540471E+01  0.20186354333E+02  0.23714799634E+02  0.00000000000E+00 0.  1.
         22    1    4    4    0    0  0.25251277915E+02  0.18306155454E+02  0.43403331277E+02  0.53447090939E+02  0.00000000000E+00 0.  1.
<mgrwt>
<rscale>  0 0.89256993E+02</rscale>
<asrwt>0</asrwt>
<pdfrwt beam="2">  1        1 0.26732297E-02 0.89256993E+02</pdfrwt>
<pdfrwt beam="1">  1       -1 0.17634434E-01 0.89256993E+02</pdfrwt>
<totfact> 0.83733600E+04</totfact>
</mgrwt>
</event>
<event>
 7    1  0.3345055E-009  0.9152915E+02  0.7818608E-02  0.1299190E+00
          1   -1    0    0  501    0  0.00000000000E+00  0.00000000000E+00  0.61361979398E+02  0.61361979605E+02  0.50400000000E-02 0. -1.
         -1   -1    0    0    0  501 -0.00000000000E+00 -0.00000000000E+00 -0.34131827851E+02  0.34131828223E+02  0.50400000000E-02 0.  1.
         23    2    1    2    0    0  0.00000000000E+00  0.00000000000E+00  0.27230151546E+02  0.95493807828E+02  0.91529154810E+02 0.  0.
    9000005    2    3    3    0    0  0.11164611297E+02 -0.36850660342E+02 -0.10637005261E+02  0.41488796230E+02  0.11205115733E+02 0.  0.
         22    1    3    3    0    0 -0.11164611297E+02  0.36850660342E+02  0.37867156807E+02  0.54005011598E+02  0.00000000000E+00 0. -1.
         22    1    4    4    0    0  0.30267586463E+01 -0.58349889128E+01  0.22253044950E+01  0.69397653859E+01  0.00000000000E+00 0. -1.
         22    1    4    4    0    0  0.81378526504E+01 -0.31015671429E+02 -0.12862309756E+02  0.34549030844E+02  0.00000000000E+00 0. -1.
<mgrwt>
<rscale>  0 0.91529155E+02</rscale>
<asrwt>0</asrwt>
<pdfrwt beam="1">  1        1 0.94403044E-02 0.91529155E+02</pdfrwt>
<pdfrwt beam="2">  1       -1 0.52510506E-02 0.91529155E+02</pdfrwt>
<totfact> 0.95670202E+04</totfact>
</mgrwt>
</event>
<event>
 7    1  0.3345055E-009  0.9119479E+02  0.7818608E-02  0.1299984E+00
         -1   -1    0    0    0  501 -0.00000000000E+00  0.00000000000E+00  0.81213028860E+02  0.81213029017E+02  0.50400000000E-02 0.  1.
          1   -1    0    0  501    0  0.00000000000E+00 -0.00000000000E+00 -0.25600850575E+02  0.25600851071E+02  0.50400000000E-02 0. -1.
         23    2    1    2    0    0 -0.44408920985E-15  0.35527136788E-14  0.55612178285E+02  0.10681388009E+03  0.91194794839E+02 0.  0.
    9000005    2    3    3    0    0  0.25972565165E+01 -0.30156632525E+02 -0.11141943311E+02  0.33518034525E+02  0.91185257018E+01 0.  0.
         22    1    3    3    0    0 -0.25972565165E+01  0.30156632525E+02  0.66754121597E+02  0.73295845563E+02  0.00000000000E+00 0.  1.
         22    1    4    4    0    0 -0.33756658254E+01 -0.10590514598E+02 -0.47214909218E+01  0.12076696391E+02  0.00000000000E+00 0.  1.
         22    1    4    4    0    0  0.59729223419E+01 -0.19566117928E+02 -0.64204523895E+01  0.21441338133E+02  0.00000000000E+00 0.  1.
<mgrwt>
<rscale>  0 0.91194795E+02</rscale>
<asrwt>0</asrwt>
<pdfrwt beam="2">  1        1 0.39385925E-02 0.91194795E+02</pdfrwt>
<pdfrwt beam="1">  1       -1 0.12494312E-01 0.91194795E+02</pdfrwt>
<totfact> 0.84392288E+04</totfact>
</mgrwt>
</event>
<event>
 7    1  0.3423245E-009  0.9209583E+02  0.7818608E-02  0.1297854E+00
         -1   -1    0    0    0  501 -0.00000000000E+00  0.00000000000E+00  0.10084220561E+02  0.10084221820E+02  0.50400000000E-02 0.  1.
          1   -1    0    0  501    0  0.00000000000E+00 -0.00000000000E+00 -0.21027014386E+03  0.21027014392E+03  0.50400000000E-02 0. -1.
         23    2    1    2    0    0  0.00000000000E+00 -0.17763568394E-14 -0.20018592330E+03  0.22035436574E+03  0.92095833857E+02 0.  0.
    9000005    2    3    3    0    0 -0.41139373984E+02  0.12249424431E+02 -0.72469789831E+02  0.85617929544E+02  0.15364339579E+02 0.  0.
         22    1    3    3    0    0  0.41139373984E+02 -0.12249424431E+02 -0.12771613347E+03  0.13473643620E+03  0.00000000000E+00 0. -1.
         22    1    4    4    0    0 -0.38647286535E+01  0.69148650640E+01 -0.11773845527E+02  0.14190663300E+02  0.00000000000E+00 0. -1.
         22    1    4    4    0    0 -0.37274645330E+02  0.53345593666E+01 -0.60695944304E+02  0.71427266244E+02  0.00000000000E+00 0. -1.
<mgrwt>
<rscale>  0 0.92095834E+02</rscale>
<asrwt>0</asrwt>
<pdfrwt beam="2">  1        1 0.32349250E-01 0.92095834E+02</pdfrwt>
<pdfrwt beam="1">  1       -1 0.15514188E-02 0.92095834E+02</pdfrwt>
<totfact> 0.11638988E+05</totfact>
</mgrwt>
</event>
<event>
 7    1  0.3345055E-009  0.9079229E+02  0.7818608E-02  0.1300944E+00
         -1   -1    0    0    0  501 -0.00000000000E+00  0.00000000000E+00  0.28628389948E+01  0.28628434312E+01  0.50400000000E-02 0.  1.
          1   -1    0    0  501    0  0.00000000000E+00 -0.00000000000E+00 -0.71984778364E+03  0.71984778366E+03  0.50400000000E-02 0. -1.
         23    2    1    2    0    0  0.35527136788E-14  0.00000000000E+00 -0.71698494464E+03  0.72271062709E+03  0.90792288546E+02 0.  0.
    9000005    2    3    3    0    0  0.17426757030E+02  0.24103056250E+02 -0.62909276860E+03  0.62992224532E+03  0.12636236154E+02 0.  0.
         22    1    3    3    0    0 -0.17426757030E+02 -0.24103056250E+02 -0.87892176045E+02  0.92788381768E+02  0.00000000000E+00 0.  1.
         22    1    4    4    0    0  0.42471981697E+01  0.42533724947E+01 -0.53512740929E+02  0.53849264727E+02  0.00000000000E+00 0. -1.
         22    1    4    4    0    0  0.13179558860E+02  0.19849683755E+02 -0.57558002767E+03  0.57607298059E+03  0.00000000000E+00 0. -1.
<mgrwt>
<rscale>  0 0.90792289E+02</rscale>
<asrwt>0</asrwt>
<pdfrwt beam="2">  1        1 0.11074567E+00 0.90792289E+02</pdfrwt>
<pdfrwt beam="1">  1       -1 0.44043768E-03 0.90792289E+02</pdfrwt>
<totfact> 0.14370720E+05</totfact>
</mgrwt>
</event>
<event>
 7    1  0.3345055E-009  0.9121575E+02  0.7818608E-02  0.1299934E+00
         -1   -1    0    0    0  501 -0.00000000000E+00  0.00000000000E+00  0.11732678503E+02  0.11732679585E+02  0.50400000000E-02 0.  1.
          1   -1    0    0  501    0  0.00000000000E+00 -0.00000000000E+00 -0.17728930031E+03  0.17728930039E+03  0.50400000000E-02 0. -1.
         23    2    1    2    0    0  0.00000000000E+00  0.00000000000E+00 -0.16555662181E+03  0.18902197997E+03  0.91215754597E+02 0.  0.
    9000005    2    3    3    0    0  0.36179051125E+02  0.20056226647E+02 -0.43496051167E+02  0.60142350574E+02  0.37443154020E+01 0.  0.
         22    1    3    3    0    0 -0.36179051125E+02 -0.20056226647E+02 -0.12206057065E+03  0.12887962940E+03  0.00000000000E+00 0. -1.
         22    1    4    4    0    0  0.17000440816E+02  0.98025697795E+01 -0.17975973616E+02  0.26612797479E+02  0.00000000000E+00 0.  1.
         22    1    4    4    0    0  0.19178610309E+02  0.10253656867E+02 -0.25520077550E+02  0.33529553094E+02  0.00000000000E+00 0.  1.
<mgrwt>
<rscale>  0 0.91215755E+02</rscale>
<asrwt>0</asrwt>
<pdfrwt beam="2">  1        1 0.27275275E-01 0.91215755E+02</pdfrwt>
<pdfrwt beam="1">  1       -1 0.18050277E-02 0.91215755E+02</pdfrwt>
<totfact> 0.11555757E+05</totfact>
</mgrwt>
</event>
<event>
 7    1  0.3345055E-009  0.9163350E+02  0.7818608E-02  0.1298943E+00
          1   -1    0    0  501    0  0.00000000000E+00  0.00000000000E+00  0.10950149689E+04  0.10950149689E+04  0.50400000000E-02 0. -1.
         -1   -1    0    0    0  501 -0.00000000000E+00 -0.00000000000E+00 -0.19170247613E+01  0.19170313866E+01  0.50400000000E-02 0.  1.
         23    2    1    2    0    0  0.00000000000E+00  0.00000000000E+00  0.10930979441E+04  0.10969320003E+04  0.91633497137E+02 0.  0.
    9000005    2    3    3    0    0 -0.96091326670E+01  0.23230996626E+02  0.10025540760E+04  0.10029628209E+04  0.13701459642E+02 0.  0.
         22    1    3    3    0    0  0.96091326670E+01 -0.23230996626E+02  0.90543868058E+02  0.93969179403E+02  0.00000000000E+00 0.  1.
         22    1    4    4    0    0 -0.43410678283E+01  0.16247457506E+02  0.41080177612E+03  0.41114586707E+03  0.00000000000E+00 0. -1.
         22    1    4    4    0    0 -0.52680648387E+01  0.69835391193E+01  0.59175229992E+03  0.59181695378E+03  0.00000000000E+00 0. -1.
<mgrwt>
<rscale>  0 0.91633497E+02</rscale>
<asrwt>0</asrwt>
<pdfrwt beam="1">  1        1 0.16846439E+00 0.91633497E+02</pdfrwt>
<pdfrwt beam="2">  1       -1 0.29492644E-03 0.91633497E+02</pdfrwt>
<totfact> 0.13048325E+05</totfact>
</mgrwt>
</event>
<event>
 7    1  0.3345055E-009  0.6882308E+02  0.7818608E-02  0.1364142E+00
         -1   -1    0    0    0  501 -0.00000000000E+00  0.00000000000E+00  0.59736669464E+01  0.59736690725E+01  0.50400000000E-02 0. -1.
          1   -1    0    0  501    0  0.00000000000E+00 -0.00000000000E+00 -0.19822895297E+03  0.19822895303E+03  0.50400000000E-02 0.  1.
         23    2    1    2    0    0  0.00000000000E+00  0.00000000000E+00 -0.19225528602E+03  0.20420262211E+03  0.68823076589E+02 0.  0.
    9000005    2    3    3    0    0  0.11657591187E+02 -0.19893160799E+02 -0.17084842109E+03  0.17274008653E+03  0.10877372161E+02 0.  0.
         22    1    3    3    0    0 -0.11657591187E+02  0.19893160799E+02 -0.21406864932E+02  0.31462535579E+02  0.00000000000E+00 0. -1.
         22    1    4    4    0    0 -0.10241105449E+01 -0.22535892297E+01 -0.42007054735E+02  0.42079925313E+02  0.00000000000E+00 0.  1.
         22    1    4    4    0    0  0.12681701731E+02 -0.17639571569E+02 -0.12884136636E+03  0.13066016122E+03  0.00000000000E+00 0.  1.
<mgrwt>
<rscale>  0 0.68823077E+02</rscale>
<asrwt>0</asrwt>
<pdfrwt beam="2">  1        1 0.30496757E-01 0.68823077E+02</pdfrwt>
<pdfrwt beam="1">  1       -1 0.91902601E-03 0.68823077E+02</pdfrwt>
<totfact> 0.24835000E+05</totfact>
</mgrwt>
</event>
<event>
 7    1  0.3345055E-009  0.9134524E+02  0.7818608E-02  0.1299626E+00
         -1   -1    0    0    0  501 -0.00000000000E+00  0.00000000000E+00  0.68527701590E+02  0.68527701776E+02  0.50400000000E-02 0.  1.
          1   -1    0    0  501    0  0.00000000000E+00 -0.00000000000E+00 -0.30440070842E+02  0.30440071259E+02  0.50400000000E-02 0. -1.
         23    2    1    2    0    0  0.00000000000E+00  0.17763568394E-14  0.38087630749E+02  0.98967773035E+02  0.91345237881E+02 0.  0.
    9000005    2    3    3    0    0  0.36161812369E+02  0.15957507486E+02  0.43164636434E+02  0.59116867076E+02  0.83246270441E+01 0.  0.
         22    1    3    3    0    0 -0.36161812369E+02 -0.15957507486E+02 -0.50770056852E+01  0.39850905959E+02  0.00000000000E+00 0. -1.
         22    1    4    4    0    0  0.29199503189E+02  0.96987778217E+01  0.30088041386E+02  0.43034492122E+02  0.00000000000E+00 0.  1.
         22    1    4    4    0    0  0.69623091807E+01  0.62587296644E+01  0.13076595048E+02  0.16082374955E+02  0.00000000000E+00 0.  1.
<mgrwt>
<rscale>  0 0.91345238E+02</rscale>
<asrwt>0</asrwt>
<pdfrwt beam="2">  1        1 0.46830879E-02 0.91345238E+02</pdfrwt>
<pdfrwt beam="1">  1       -1 0.10542723E-01 0.91345238E+02</pdfrwt>
<totfact> 0.86428770E+04</totfact>
</mgrwt>
</event>
<event>
 7    1  0.3345055E-009  0.9049752E+02  0.7818608E-02  0.1301651E+00
         -1   -1    0    0    0  501 -0.00000000000E+00  0.00000000000E+00  0.71775574061E+01  0.71775591757E+01  0.50400000000E-02 0.  1.
          1   -1    0    0  501    0  0.00000000000E+00 -0.00000000000E+00 -0.28525718321E+03  0.28525718326E+03  0.50400000000E-02 0. -1.
         23    2    1    2    0    0  0.71054273576E-14  0.00000000000E+00 -0.27807962580E+03  0.29243474243E+03  0.90497515397E+02 0.  0.
    9000005    2    3    3    0    0 -0.40792256552E+02 -0.50193356635E+01 -0.80214831620E+02  0.90346448107E+02  0.62337427481E+01 0.  0.
         22    1    3    3    0    0  0.40792256552E+02  0.50193356635E+01 -0.19786479418E+03  0.20208829432E+03  0.00000000000E+00 0. -1.
         22    1    4    4    0    0 -0.35709854184E+02 -0.25932360508E+01 -0.71619801958E+02  0.80070684970E+02  0.00000000000E+00 0.  1.
         22    1    4    4    0    0 -0.50824023678E+01 -0.24260996127E+01 -0.85950296619E+01  0.10275763137E+02  0.00000000000E+00 0.  1.
<mgrwt>
<rscale>  0 0.90497515E+02</rscale>
<asrwt>0</asrwt>
<pdfrwt beam="2">  1        1 0.43885712E-01 0.90497515E+02</pdfrwt>
<pdfrwt beam="1">  1       -1 0.11042400E-02 0.90497515E+02</pdfrwt>
<totfact> 0.12944248E+05</totfact>
</mgrwt>
</event>
<event>
 7    1  0.3345055E-009  0.8821407E+02  0.7818608E-02  0.1307235E+00
          1   -1    0    0  501    0  0.00000000000E+00  0.00000000000E+00  0.11066901106E+02  0.11066902253E+02  0.50400000000E-02 0. -1.
         -1   -1    0    0    0  501 -0.00000000000E+00 -0.00000000000E+00 -0.17578818175E+03  0.17578818183E+03  0.50400000000E-02 0.  1.
         23    2    1    2    0    0  0.55511151231E-16  0.35527136788E-14 -0.16472128065E+03  0.18685508408E+03  0.88214070011E+02 0.  0.
    9000005    2    3    3    0    0  0.33539299478E+00 -0.26514781835E+02 -0.15604772364E+03  0.15895568022E+03  0.14590067815E+02 0.  0.
         22    1    3    3    0    0 -0.33539299478E+00  0.26514781835E+02 -0.86735570103E+01  0.27899403855E+02  0.00000000000E+00 0. -1.
         22    1    4    4    0    0 -0.69339285385E+00 -0.25662063503E+02 -0.11267760023E+03  0.11556497692E+03  0.00000000000E+00 0.  1.
         22    1    4    4    0    0  0.10287858486E+01 -0.85271833246E+00 -0.43370123406E+02  0.43390703303E+02  0.00000000000E+00 0.  1.
<mgrwt>
<rscale>  0 0.88214070E+02</rscale>
<asrwt>0</asrwt>
<pdfrwt beam="1">  1        1 0.17026004E-02 0.88214070E+02</pdfrwt>
<pdfrwt beam="2">  1       -1 0.27044334E-01 0.88214070E+02</pdfrwt>
<totfact> 0.78357632E+04</totfact>
</mgrwt>
</event>
<event>
 7    1  0.3345055E-009  0.1144907E+03  0.7818608E-02  0.1252473E+00
          1   -1    0    0  501    0  0.00000000000E+00  0.00000000000E+00  0.85065604418E+03  0.85065604420E+03  0.50400000000E-02 0. -1.
         -1   -1    0    0    0  501 -0.00000000000E+00 -0.00000000000E+00 -0.38523534453E+01  0.38523567421E+01  0.50400000000E-02 0.  1.
         23    2    1    2    0    0  0.35527136788E-14  0.00000000000E+00  0.84680369074E+03  0.85450840094E+03  0.11449068360E+03 0.  0.
    9000005    2    3    3    0    0  0.31359607734E+02 -0.22523707551E+02  0.73880405381E+03  0.73981461743E+03  0.18697164797E+01 0.  0.
         22    1    3    3    0    0 -0.31359607734E+02  0.22523707551E+02  0.10799963693E+03  0.11469378351E+03  0.00000000000E+00 0.  1.
         22    1    4    4    0    0  0.18859770865E+02 -0.13587328427E+02  0.46211056228E+03  0.46269480030E+03  0.00000000000E+00 0. -1.
         22    1    4    4    0    0  0.12499836869E+02 -0.89363791232E+01  0.27669349153E+03  0.27711981713E+03  0.00000000000E+00 0. -1.
<mgrwt>
<rscale>  0 0.11449068E+03</rscale>
<asrwt>0</asrwt>
<pdfrwt beam="1">  1        1 0.13087021E+00 0.11449068E+03</pdfrwt>
<pdfrwt beam="2">  1       -1 0.59266977E-03 0.11449068E+03</pdfrwt>
<totfact> 0.76385543E+04</totfact>
</mgrwt>
</event>
<event>
 7    1  0.3345055E-009  0.9069176E+02  0.7818608E-02  0.1301185E+00
         -1   -1    0    0    0  501 -0.00000000000E+00  0.00000000000E+00  0.38698780702E+01  0.38698813522E+01  0.50400000000E-02 0.  1.
          1   -1    0    0  501    0  0.00000000000E+00 -0.00000000000E+00 -0.53134697476E+03  0.53134697479E+03  0.50400000000E-02 0. -1.
         23    2    1    2    0    0  0.71054273576E-14  0.35527136788E-14 -0.52747709669E+03  0.53521685614E+03  0.90691761257E+02 0.  0.
    9000005    2    3    3    0    0  0.35002510085E+02  0.20087838885E+02 -0.37612473118E+03  0.37857639033E+03  0.14885325831E+02 0.  0.
         22    1    3    3    0    0 -0.35002510085E+02 -0.20087838885E+02 -0.15135236552E+03  0.15664046582E+03  0.00000000000E+00 0.  1.
         22    1    4    4    0    0  0.46567667870E+01 -0.19391899430E+01 -0.66109867756E+02  0.66302040310E+02  0.00000000000E+00 0. -1.
         22    1    4    4    0    0  0.30345743298E+02  0.22027028828E+02 -0.31001486342E+03  0.31227435002E+03  0.00000000000E+00 0. -1.
<mgrwt>
<rscale>  0 0.90691761E+02</rscale>
<asrwt>0</asrwt>
<pdfrwt beam="2">  1        1 0.81745631E-01 0.90691761E+02</pdfrwt>
<pdfrwt beam="1">  1       -1 0.59536653E-03 0.90691761E+02</pdfrwt>
<totfact> 0.14219101E+05</totfact>
</mgrwt>
</event>
<event>
 7    1  0.3345055E-009  0.8781112E+02  0.7818608E-02  0.1308241E+00
         -1   -1    0    0    0  501 -0.00000000000E+00  0.00000000000E+00  0.32123762604E+02  0.32123762999E+02  0.50400000000E-02 0.  1.
          1   -1    0    0  501    0  0.00000000000E+00 -0.00000000000E+00 -0.60008475648E+02  0.60008475860E+02  0.50400000000E-02 0. -1.
         23    2    1    2    0    0  0.00000000000E+00  0.00000000000E+00 -0.27884713044E+02  0.92132238859E+02  0.87811116698E+02 0.  0.
    9000005    2    3    3    0    0  0.83582180314E+01  0.35318354023E+02  0.10372035209E+02  0.39398713219E+02  0.11288646925E+02 0.  0.
         22    1    3    3    0    0 -0.83582180314E+01 -0.35318354023E+02 -0.38256748253E+02  0.52733525640E+02  0.00000000000E+00 0. -1.
         22    1    4    4    0    0 -0.65740638931E+00  0.68358454299E+01 -0.18622425152E+01  0.71153997138E+01  0.00000000000E+00 0.  1.
         22    1    4    4    0    0  0.90156244207E+01  0.28482508593E+02  0.12234277724E+02  0.32283313505E+02  0.00000000000E+00 0.  1.
<mgrwt>
<rscale>  0 0.87811117E+02</rscale>
<asrwt>0</asrwt>
<pdfrwt beam="2">  1        1 0.92320732E-02 0.87811117E+02</pdfrwt>
<pdfrwt beam="1">  1       -1 0.49421174E-02 0.87811117E+02</pdfrwt>
<totfact> 0.10693047E+05</totfact>
</mgrwt>
</event>
<event>
 7    1  0.3345055E-009  0.9111521E+02  0.7818608E-02  0.1300173E+00
          1   -1    0    0  501    0  0.00000000000E+00  0.00000000000E+00  0.10083087873E+02  0.10083089133E+02  0.50400000000E-02 0. -1.
         -1   -1    0    0    0  501 -0.00000000000E+00 -0.00000000000E+00 -0.20583924613E+03  0.20583924619E+03  0.50400000000E-02 0.  1.
         23    2    1    2    0    0 -0.17763568394E-14  0.00000000000E+00 -0.19575615826E+03  0.21592233532E+03  0.91115209467E+02 0.  0.
    9000005    2    3    3    0    0  0.12903010001E+02  0.42340759424E+02 -0.72803093770E+02  0.85244549751E+02  0.26674377329E+01 0.  0.
         22    1    3    3    0    0 -0.12903010001E+02 -0.42340759424E+02 -0.12295306449E+03  0.13067778557E+03  0.00000000000E+00 0.  1.
         22    1    4    4    0    0  0.60445024940E+01  0.16872168883E+02 -0.27577464419E+02  0.32889552095E+02  0.00000000000E+00 0.  1.
         22    1    4    4    0    0  0.68585075066E+01  0.25468590540E+02 -0.45225629351E+02  0.52354997656E+02  0.00000000000E+00 0.  1.
<mgrwt>
<rscale>  0 0.91115209E+02</rscale>
<asrwt>0</asrwt>
<pdfrwt beam="1">  1        1 0.15512446E-02 0.91115209E+02</pdfrwt>
<pdfrwt beam="2">  1       -1 0.31667573E-01 0.91115209E+02</pdfrwt>
<totfact> 0.68970947E+04</totfact>
</mgrwt>
</event>
<event>
 7    1  0.3345055E-009  0.9428672E+02  0.7818608E-02  0.1292791E+00
         -1   -1    0    0    0  501 -0.00000000000E+00  0.00000000000E+00  0.25655576744E+02  0.25655577240E+02  0.50400000000E-02 0.  1.
          1   -1    0    0  501    0  0.00000000000E+00 -0.00000000000E+00 -0.86628192449E+02  0.86628192595E+02  0.50400000000E-02 0. -1.
         23    2    1    2    0    0  0.00000000000E+00  0.00000000000E+00 -0.60972615704E+02  0.11228376983E+03  0.94286717530E+02 0.  0.
    9000005    2    3    3    0    0  0.27895796854E+02 -0.11273211926E+02 -0.73276154594E+02  0.79777803329E+02  0.94785168982E+01 0.  0.
         22    1    3    3    0    0 -0.27895796854E+02  0.11273211926E+02  0.12303538890E+02  0.32505966506E+02  0.00000000000E+00 0.  1.
         22    1    4    4    0    0  0.13472971365E+02 -0.18647337781E+01 -0.40969878021E+02  0.43168612377E+02  0.00000000000E+00 0. -1.
         22    1    4    4    0    0  0.14422825489E+02 -0.94084781477E+01 -0.32306276573E+02  0.36609190952E+02  0.00000000000E+00 0. -1.
<mgrwt>
<rscale>  0 0.94286718E+02</rscale>
<asrwt>0</asrwt>
<pdfrwt beam="2">  1        1 0.13327414E-01 0.94286718E+02</pdfrwt>
<pdfrwt beam="1">  1       -1 0.39470119E-02 0.94286718E+02</pdfrwt>
<totfact> 0.93051065E+04</totfact>
</mgrwt>
</event>
<event>
 7    1  0.3345055E-009  0.9195910E+02  0.7818608E-02  0.1298176E+00
          1   -1    0    0  501    0  0.00000000000E+00  0.00000000000E+00  0.43608930065E+02  0.43608930356E+02  0.50400000000E-02 0. -1.
         -1   -1    0    0    0  501 -0.00000000000E+00 -0.00000000000E+00 -0.48479043376E+02  0.48479043638E+02  0.50400000000E-02 0.  1.
         23    2    1    2    0    0  0.17763568394E-14  0.35527136788E-14 -0.48701133106E+01  0.92087973994E+02  0.91959104773E+02 0.  0.
    9000005    2    3    3    0    0 -0.13764628370E+02 -0.24208301781E+02 -0.38422741916E+02  0.48484238425E+02  0.99452204655E+01 0.  0.
         22    1    3    3    0    0  0.13764628370E+02  0.24208301781E+02  0.33552628605E+02  0.43603735569E+02  0.00000000000E+00 0. -1.
         22    1    4    4    0    0 -0.14348034854E+02 -0.24471539298E+02 -0.38518369517E+02  0.47837089482E+02  0.00000000000E+00 0.  1.
         22    1    4    4    0    0  0.58340648467E+00  0.26323751737E+00  0.95627601886E-01  0.64714894356E+00  0.00000000000E+00 0.  1.
<mgrwt>
<rscale>  0 0.91959105E+02</rscale>
<asrwt>0</asrwt>
<pdfrwt beam="1">  1        1 0.67090662E-02 0.91959105E+02</pdfrwt>
<pdfrwt beam="2">  1       -1 0.74583144E-02 0.91959105E+02</pdfrwt>
<totfact> 0.89671741E+04</totfact>
</mgrwt>
</event>
<event>
 7    1  0.3345055E-009  0.9192399E+02  0.7818608E-02  0.1298258E+00
         -1   -1    0    0    0  501 -0.00000000000E+00  0.00000000000E+00  0.31641235022E+01  0.31641275162E+01  0.50400000000E-02 0.  1.
          1   -1    0    0  501    0  0.00000000000E+00 -0.00000000000E+00 -0.66764265881E+03  0.66764265883E+03  0.50400000000E-02 0. -1.
         23    2    1    2    0    0  0.00000000000E+00  0.00000000000E+00 -0.66447853531E+03  0.67080678634E+03  0.91923994268E+02 0.  0.
    9000005    2    3    3    0    0  0.13996137324E+02  0.10050311872E+02 -0.64253421605E+03  0.64290600184E+03  0.13453912748E+02 0.  0.
         22    1    3    3    0    0 -0.13996137324E+02 -0.10050311872E+02 -0.21944319255E+02  0.27900784510E+02  0.00000000000E+00 0.  1.
         22    1    4    4    0    0  0.48702896696E+01  0.26538847499E+01 -0.60613010265E+02  0.60866245482E+02  0.00000000000E+00 0. -1.
         22    1    4    4    0    0  0.91258476546E+01  0.73964271219E+01 -0.58192120579E+03  0.58203975635E+03  0.00000000000E+00 0. -1.
<mgrwt>
<rscale>  0 0.91923994E+02</rscale>
<asrwt>0</asrwt>
<pdfrwt beam="2">  1        1 0.10271414E+00 0.91923994E+02</pdfrwt>
<pdfrwt beam="1">  1       -1 0.48678907E-03 0.91923994E+02</pdfrwt>
<totfact> 0.13912022E+05</totfact>
</mgrwt>
</event>
<event>
 7    1  0.3345055E-009  0.9320826E+02  0.7818608E-02  0.1295263E+00
         -1   -1    0    0    0  501 -0.00000000000E+00  0.00000000000E+00  0.43168923086E+02  0.43168923380E+02  0.50400000000E-02 0.  1.
          1   -1    0    0  501    0  0.00000000000E+00 -0.00000000000E+00 -0.50312700062E+02  0.50312700314E+02  0.50400000000E-02 0. -1.
         23    2    1    2    0    0  0.00000000000E+00  0.00000000000E+00 -0.71437769762E+01  0.93481623694E+02  0.93208263684E+02 0.  0.
    9000005    2    3    3    0    0 -0.20563239624E+02 -0.49371261155E+01  0.37561751852E+02  0.44026529457E+02  0.89570115412E+01 0.  0.
         22    1    3    3    0    0  0.20563239624E+02  0.49371261155E+01 -0.44705528828E+02  0.49455094236E+02  0.00000000000E+00 0. -1.
         22    1    4    4    0    0 -0.13773003188E+02  0.90834817446E+00  0.25565374227E+02  0.29053555248E+02  0.00000000000E+00 0. -1.
         22    1    4    4    0    0 -0.67902364358E+01 -0.58454742899E+01  0.11996377626E+02  0.14972974209E+02  0.00000000000E+00 0. -1.
<mgrwt>
<rscale>  0 0.93208264E+02</rscale>
<asrwt>0</asrwt>
<pdfrwt beam="2">  1        1 0.77404154E-02 0.93208264E+02</pdfrwt>
<pdfrwt beam="1">  1       -1 0.66413728E-02 0.93208264E+02</pdfrwt>
<totfact> 0.88232198E+04</totfact>
</mgrwt>
</event>
<event>
 7    1  0.3345055E-009  0.9200483E+02  0.7818608E-02  0.1298068E+00
          1   -1    0    0  501    0  0.00000000000E+00  0.00000000000E+00  0.47404515248E+02  0.47404515516E+02  0.50400000000E-02 0. -1.
         -1   -1    0    0    0  501 -0.00000000000E+00 -0.00000000000E+00 -0.44641785951E+02  0.44641786236E+02  0.50400000000E-02 0.  1.
         23    2    1    2    0    0  0.00000000000E+00  0.00000000000E+00  0.27627292973E+01  0.92046301752E+02  0.92004831357E+02 0.  0.
    9000005    2    3    3    0    0 -0.40587265847E+02 -0.48285105388E+01  0.22249632777E+02  0.46765179083E+02  0.46146671630E+01 0.  0.
         22    1    3    3    0    0  0.40587265847E+02  0.48285105388E+01 -0.19486903479E+02  0.45281122669E+02  0.00000000000E+00 0.  1.
         22    1    4    4    0    0 -0.33137629504E+02 -0.49916181134E+01  0.16499505232E+02  0.37353077697E+02  0.00000000000E+00 0.  1.
         22    1    4    4    0    0 -0.74496363425E+01  0.16310757465E+00  0.57501275444E+01  0.94121013857E+01  0.00000000000E+00 0.  1.
<mgrwt>
<rscale>  0 0.92004831E+02</rscale>
<asrwt>0</asrwt>
<pdfrwt beam="1">  1        1 0.72930024E-02 0.92004831E+02</pdfrwt>
<pdfrwt beam="2">  1       -1 0.68679671E-02 0.92004831E+02</pdfrwt>
<totfact> 0.90686197E+04</totfact>
</mgrwt>
</event>
<event>
 7    1  0.3345055E-009  0.1093500E+03  0.7818608E-02  0.1261778E+00
          1   -1    0    0  501    0  0.00000000000E+00  0.00000000000E+00  0.46238685029E+03  0.46238685032E+03  0.50400000000E-02 0. -1.
         -1   -1    0    0    0  501 -0.00000000000E+00 -0.00000000000E+00 -0.64650513520E+01  0.64650533166E+01  0.50400000000E-02 0.  1.
         23    2    1    2    0    0  0.71054273576E-14  0.00000000000E+00  0.45592179894E+03  0.46885190363E+03  0.10934999220E+03 0.  0.
    9000005    2    3    3    0    0  0.40444549596E+02 -0.25752832735E+02  0.33735241650E+03  0.34095480266E+03  0.12023084144E+02 0.  0.
         22    1    3    3    0    0 -0.40444549596E+02  0.25752832735E+02  0.11856938243E+03  0.12789710097E+03  0.00000000000E+00 0.  1.
         22    1    4    4    0    0  0.32083050239E+02 -0.15214525401E+02  0.22219064412E+03  0.22500996918E+03  0.00000000000E+00 0.  1.
         22    1    4    4    0    0  0.83614993572E+01 -0.10538307333E+02  0.11516177238E+03  0.11594483348E+03  0.00000000000E+00 0.  1.
<mgrwt>
<rscale>  0 0.10934999E+03</rscale>
<asrwt>0</asrwt>
<pdfrwt beam="1">  1        1 0.71136446E-01 0.10934999E+03</pdfrwt>
<pdfrwt beam="2">  1       -1 0.99462334E-03 0.10934999E+03</pdfrwt>
<totfact> 0.84778343E+04</totfact>
</mgrwt>
</event>
<event>
 7    1  0.3345055E-009  0.8687031E+02  0.7818608E-02  0.1310613E+00
         -1   -1    0    0    0  501 -0.00000000000E+00  0.00000000000E+00  0.30754200286E+02  0.30754200699E+02  0.50400000000E-02 0.  1.
          1   -1    0    0  501    0  0.00000000000E+00 -0.00000000000E+00 -0.61344878499E+02  0.61344878707E+02  0.50400000000E-02 0. -1.
         23    2    1    2    0    0  0.00000000000E+00  0.00000000000E+00 -0.30590678214E+02  0.92099079405E+02  0.86870310427E+02 0.  0.
    9000005    2    3    3    0    0 -0.12051902994E+02  0.27541632234E+02 -0.47888113761E+02  0.57414916616E+02  0.99705234846E+01 0.  0.
         22    1    3    3    0    0  0.12051902994E+02 -0.27541632234E+02  0.17297435547E+02  0.34684162790E+02  0.00000000000E+00 0.  1.
         22    1    4    4    0    0 -0.82283349585E+01  0.13223288622E+02 -0.16418328740E+02  0.22630121007E+02  0.00000000000E+00 0.  1.
         22    1    4    4    0    0 -0.38235680355E+01  0.14318343613E+02 -0.31469785021E+02  0.34784795609E+02  0.00000000000E+00 0.  1.
<mgrwt>
<rscale>  0 0.86870310E+02</rscale>
<asrwt>0</asrwt>
<pdfrwt beam="2">  1        1 0.94376737E-02 0.86870310E+02</pdfrwt>
<pdfrwt beam="1">  1       -1 0.47314155E-02 0.86870310E+02</pdfrwt>
<totfact> 0.11050609E+05</totfact>
</mgrwt>
</event>
<event>
 7    1  0.3345055E-009  0.1059089E+03  0.7818608E-02  0.1268339E+00
          1   -1    0    0  501    0  0.00000000000E+00  0.00000000000E+00  0.23348423476E+02  0.23348424020E+02  0.50400000000E-02 0. -1.
         -1   -1    0    0    0  501 -0.00000000000E+00 -0.00000000000E+00 -0.12010110519E+03  0.12010110530E+03  0.50400000000E-02 0.  1.
         23    2    1    2    0    0  0.00000000000E+00  0.00000000000E+00 -0.96752681718E+02  0.14344952932E+03  0.10590885724E+03 0.  0.
    9000005    2    3    3    0    0 -0.12440784489E+02  0.42734328334E+02 -0.12955943277E+02  0.48565972735E+02  0.14484519483E+02 0.  0.
         22    1    3    3    0    0  0.12440784489E+02 -0.42734328334E+02 -0.83796738441E+02  0.94883556585E+02  0.00000000000E+00 0.  1.
         22    1    4    4    0    0 -0.61204999012E+01  0.39335897631E+01 -0.37725079639E+01  0.81954538497E+01  0.00000000000E+00 0.  1.
         22    1    4    4    0    0 -0.63202845876E+01  0.38800738571E+02 -0.91834353132E+01  0.40370518886E+02  0.00000000000E+00 0.  1.
<mgrwt>
<rscale>  0 0.10590886E+03</rscale>
<asrwt>0</asrwt>
<pdfrwt beam="1">  1        1 0.35920653E-02 0.10590886E+03</pdfrwt>
<pdfrwt beam="2">  1       -1 0.18477093E-01 0.10590886E+03</pdfrwt>
<totfact> 0.53244625E+04</totfact>
</mgrwt>
</event>
<event>
 7    1  0.3345055E-009  0.9231183E+02  0.7818608E-02  0.1297348E+00
         -1   -1    0    0    0  501 -0.00000000000E+00  0.00000000000E+00  0.25066858202E+02  0.25066858709E+02  0.50400000000E-02 0.  1.
          1   -1    0    0  501    0  0.00000000000E+00 -0.00000000000E+00 -0.84987452317E+02  0.84987452467E+02  0.50400000000E-02 0. -1.
         23    2    1    2    0    0  0.00000000000E+00  0.35527136788E-14 -0.59920594115E+02  0.11005431118E+03  0.92311829195E+02 0.  0.
    9000005    2    3    3    0    0  0.35220414195E+02 -0.26564124483E+02 -0.41746557606E+02  0.62342406071E+02  0.14059524784E+02 0.  0.
         22    1    3    3    0    0 -0.35220414195E+02  0.26564124483E+02 -0.18174036509E+02  0.47711905104E+02  0.00000000000E+00 0.  1.
         22    1    4    4    0    0  0.32299022168E+02 -0.21940534595E+02 -0.29523418247E+02  0.48951466948E+02  0.00000000000E+00 0. -1.
         22    1    4    4    0    0  0.29213920275E+01 -0.46235898878E+01 -0.12223139359E+02  0.13390939124E+02  0.00000000000E+00 0. -1.
<mgrwt>
<rscale>  0 0.92311829E+02</rscale>
<asrwt>0</asrwt>
<pdfrwt beam="2">  1        1 0.13074993E-01 0.92311829E+02</pdfrwt>
<pdfrwt beam="1">  1       -1 0.38564398E-02 0.92311829E+02</pdfrwt>
<totfact> 0.98321418E+04</totfact>
</mgrwt>
</event>
<event>
 7    1  0.3345055E-009  0.9041805E+02  0.7818608E-02  0.1301842E+00
          1   -1    0    0  501    0  0.00000000000E+00  0.00000000000E+00  0.50352196604E+03  0.50352196607E+03  0.50400000000E-02 0. -1.
         -1   -1    0    0    0  501 -0.00000000000E+00 -0.00000000000E+00 -0.40591178691E+01  0.40591209981E+01  0.50400000000E-02 0.  1.
         23    2    1    2    0    0  0.00000000000E+00  0.00000000000E+00  0.49946284817E+03  0.50758108706E+03  0.90418047100E+02 0.  0.
    9000005    2    3    3    0    0  0.21707228000E+01  0.39733395873E+02  0.36856022004E+03  0.37076386287E+03  0.67639801382E+01 0.  0.
         22    1    3    3    0    0 -0.21707228000E+01 -0.39733395873E+02  0.13090262813E+03  0.13681722419E+03  0.00000000000E+00 0.  1.
         22    1    4    4    0    0  0.30476499178E+01  0.19213445265E+02  0.20444297453E+03  0.20536643952E+03  0.00000000000E+00 0.  1.
         22    1    4    4    0    0 -0.87692711777E+00  0.20519950608E+02  0.16411724552E+03  0.16539742335E+03  0.00000000000E+00 0.  1.
<mgrwt>
<rscale>  0 0.90418047E+02</rscale>
<asrwt>0</asrwt>
<pdfrwt beam="1">  1        1 0.77464907E-01 0.90418047E+02</pdfrwt>
<pdfrwt beam="2">  1       -1 0.62448000E-03 0.90418047E+02</pdfrwt>
<totfact> 0.14249839E+05</totfact>
</mgrwt>
</event>
<event>
 7    1  0.3345055E-009  0.9196184E+02  0.7818608E-02  0.1298169E+00
         -1   -1    0    0    0  501 -0.00000000000E+00  0.00000000000E+00  0.56766928881E+03  0.56766928883E+03  0.50400000000E-02 0.  1.
          1   -1    0    0  501    0  0.00000000000E+00 -0.00000000000E+00 -0.37244290396E+01  0.37244324497E+01  0.50400000000E-02 0. -1.
         23    2    1    2    0    0  0.00000000000E+00  0.35527136788E-14  0.56394485977E+03  0.57139372128E+03  0.91961839146E+02 0.  0.
    9000005    2    3    3    0    0 -0.41189120285E+02  0.18997639483E+02  0.31335286001E+03  0.31672962040E+03  0.83775667387E+01 0.  0.
         22    1    3    3    0    0  0.41189120285E+02 -0.18997639483E+02  0.25059199976E+03  0.25466410088E+03  0.00000000000E+00 0. -1.
         22    1    4    4    0    0 -0.29942557850E+02  0.16787051394E+02  0.21717312289E+03  0.21986934113E+03  0.00000000000E+00 0.  1.
         22    1    4    4    0    0 -0.11246562435E+02  0.22105880891E+01  0.96179737122E+02  0.96860279264E+02  0.00000000000E+00 0.  1.
<mgrwt>
<rscale>  0 0.91961839E+02</rscale>
<asrwt>0</asrwt>
<pdfrwt beam="2">  1        1 0.57298952E-03 0.91961839E+02</pdfrwt>
<pdfrwt beam="1">  1       -1 0.87333711E-01 0.91961839E+02</pdfrwt>
<totfact> 0.42327566E+04</totfact>
</mgrwt>
</event>
<event>
 7    1  0.3345055E-009  0.9074459E+02  0.7818608E-02  0.1301059E+00
          1   -1    0    0  501    0  0.00000000000E+00  0.00000000000E+00  0.36031298316E+01  0.36031333566E+01  0.50400000000E-02 0. -1.
         -1   -1    0    0    0  501 -0.00000000000E+00 -0.00000000000E+00 -0.57134889697E+03  0.57134889700E+03  0.50400000000E-02 0.  1.
         23    2    1    2    0    0  0.00000000000E+00  0.00000000000E+00 -0.56774576714E+03  0.57495203035E+03  0.90744592669E+02 0.  0.
    9000005    2    3    3    0    0 -0.23286388704E+02 -0.24467216543E+02 -0.47492330421E+03  0.47617495706E+03  0.70387684358E+01 0.  0.
         22    1    3    3    0    0  0.23286388704E+02  0.24467216543E+02 -0.92822462926E+02  0.98777073291E+02  0.00000000000E+00 0. -1.
         22    1    4    4    0    0 -0.10623466440E+02 -0.15791967619E+02 -0.28249169974E+03  0.28313213294E+03  0.00000000000E+00 0. -1.
         22    1    4    4    0    0 -0.12662922264E+02 -0.86752489241E+01 -0.19243160448E+03  0.19304282412E+03  0.00000000000E+00 0. -1.
<mgrwt>
<rscale>  0 0.90744593E+02</rscale>
<asrwt>0</asrwt>
<pdfrwt beam="1">  1        1 0.55432839E-03 0.90744593E+02</pdfrwt>
<pdfrwt beam="2">  1       -1 0.87899759E-01 0.90744593E+02</pdfrwt>
<totfact> 0.43637712E+04</totfact>
</mgrwt>
</event>
<event>
 7    1  0.4532661E-009  0.9939518E+02  0.7818608E-02  0.1281573E+00
         -1   -1    0    0    0  501 -0.00000000000E+00  0.00000000000E+00  0.60980838219E+01  0.60980859047E+01  0.50400000000E-02 0.  1.
          1   -1    0    0  501    0  0.00000000000E+00 -0.00000000000E+00 -0.40502065553E+03  0.40502065557E+03  0.50400000000E-02 0. -1.
         23    2    1    2    0    0  0.17763568394E-14  0.00000000000E+00 -0.39892257171E+03  0.41111874147E+03  0.99395177783E+02 0.  0.
    9000005    2    3    3    0    0 -0.14921450010E+02 -0.24937284855E+02 -0.36482142697E+03  0.36631465774E+03  0.15723773408E+02 0.  0.
         22    1    3    3    0    0  0.14921450010E+02  0.24937284855E+02 -0.34101144739E+02  0.44804083730E+02  0.00000000000E+00 0.  1.
         22    1    4    4    0    0 -0.25794202610E+01 -0.42163548631E+01 -0.18326078436E+02  0.18980943287E+02  0.00000000000E+00 0. -1.
         22    1    4    4    0    0 -0.12342029749E+02 -0.20720929992E+02 -0.34649534854E+03  0.34733371445E+03  0.00000000000E+00 0. -1.
<mgrwt>
<rscale>  0 0.99395178E+02</rscale>
<asrwt>0</asrwt>
<pdfrwt beam="2">  1        1 0.62310849E-01 0.99395178E+02</pdfrwt>
<pdfrwt beam="1">  1       -1 0.93816722E-03 0.99395178E+02</pdfrwt>
<totfact> 0.10737237E+05</totfact>
</mgrwt>
</event>
<event>
 7    1  0.3345055E-009  0.9400483E+02  0.7818608E-02  0.1293433E+00
          1   -1    0    0  501    0  0.00000000000E+00  0.00000000000E+00  0.44043826006E+02  0.44043826295E+02  0.50400000000E-02 0. -1.
         -1   -1    0    0    0  501 -0.00000000000E+00 -0.00000000000E+00 -0.50159740686E+02  0.50159740939E+02  0.50400000000E-02 0.  1.
         23    2    1    2    0    0  0.00000000000E+00 -0.17763568394E-14 -0.61159146794E+01  0.94203567234E+02  0.94004827893E+02 0.  0.
    9000005    2    3    3    0    0  0.33801294625E+02  0.11952559615E+02  0.25449774407E+02  0.46435545219E+02  0.14939131259E+02 0.  0.
         22    1    3    3    0    0 -0.33801294625E+02 -0.11952559615E+02 -0.31565689086E+02  0.47768022014E+02  0.00000000000E+00 0.  1.
         22    1    4    4    0    0  0.78797262505E+01 -0.26182242459E+01  0.19360705429E+01  0.85260514385E+01  0.00000000000E+00 0. -1.
         22    1    4    4    0    0  0.25921568374E+02  0.14570783861E+02  0.23513703864E+02  0.37909493781E+02  0.00000000000E+00 0. -1.
<mgrwt>
<rscale>  0 0.94004828E+02</rscale>
<asrwt>0</asrwt>
<pdfrwt beam="1">  1        1 0.67759732E-02 0.94004828E+02</pdfrwt>
<pdfrwt beam="2">  1       -1 0.77168833E-02 0.94004828E+02</pdfrwt>
<totfact> 0.84398296E+04</totfact>
</mgrwt>
</event>
<event>
 7    1  0.3345055E-009  0.9512972E+02  0.7818608E-02  0.1290884E+00
          1   -1    0    0  501    0  0.00000000000E+00  0.00000000000E+00  0.60729295856E+01  0.60729316770E+01  0.50400000000E-02 0. -1.
         -1   -1    0    0    0  501 -0.00000000000E+00 -0.00000000000E+00 -0.37254107629E+03  0.37254107633E+03  0.50400000000E-02 0.  1.
         23    2    1    2    0    0 -0.44408920985E-15  0.71054273576E-14 -0.36646814671E+03  0.37861400800E+03  0.95129724617E+02 0.  0.
    9000005    2    3    3    0    0  0.22078564011E+01  0.46300445940E+02 -0.20915157345E+03  0.21461062345E+03  0.12834839163E+02 0.  0.
         22    1    3    3    0    0 -0.22078564011E+01 -0.46300445940E+02 -0.15731657326E+03  0.16400338456E+03  0.00000000000E+00 0.  1.
         22    1    4    4    0    0 -0.36922029790E+01  0.36290050860E+02 -0.15851104888E+03  0.16265408931E+03  0.00000000000E+00 0.  1.
         22    1    4    4    0    0  0.59000593801E+01  0.10010395080E+02 -0.50640524569E+02  0.51956534131E+02  0.00000000000E+00 0.  1.
<mgrwt>
<rscale>  0 0.95129725E+02</rscale>
<asrwt>0</asrwt>
<pdfrwt beam="1">  1        1 0.93429732E-03 0.95129725E+02</pdfrwt>
<pdfrwt beam="2">  1       -1 0.57313994E-01 0.95129725E+02</pdfrwt>
<totfact> 0.49363122E+04</totfact>
</mgrwt>
</event>
<event>
 7    1  0.3345055E-009  0.9127697E+02  0.7818608E-02  0.1299788E+00
          1   -1    0    0  501    0  0.00000000000E+00  0.00000000000E+00  0.85924956786E+01  0.85924971567E+01  0.50400000000E-02 0. -1.
         -1   -1    0    0    0  501 -0.00000000000E+00 -0.00000000000E+00 -0.24240584293E+03  0.24240584298E+03  0.50400000000E-02 0.  1.
         23    2    1    2    0    0  0.00000000000E+00  0.88817841970E-15 -0.23381334725E+03  0.25099834014E+03  0.91276970806E+02 0.  0.
    9000005    2    3    3    0    0 -0.11901518865E+02 -0.60056685429E+01 -0.23672939537E+03  0.23735218527E+03  0.10841541121E+02 0.  0.
         22    1    3    3    0    0  0.11901518865E+02  0.60056685429E+01  0.29160481236E+01  0.13646154865E+02  0.00000000000E+00 0. -1.
         22    1    4    4    0    0 -0.60235953993E+01 -0.72779217707E+01 -0.19037782915E+03  0.19061209216E+03  0.00000000000E+00 0.  1.
         22    1    4    4    0    0 -0.58779234656E+01  0.12722532278E+01 -0.46351566221E+02  0.46740093108E+02  0.00000000000E+00 0.  1.
<mgrwt>
<rscale>  0 0.91276971E+02</rscale>
<asrwt>0</asrwt>
<pdfrwt beam="1">  1        1 0.13219227E-02 0.91276971E+02</pdfrwt>
<pdfrwt beam="2">  1       -1 0.37293202E-01 0.91276971E+02</pdfrwt>
<totfact> 0.65249919E+04</totfact>
</mgrwt>
</event>
<event>
 7    1  0.3345055E-009  0.9105955E+02  0.7818608E-02  0.1300306E+00
         -1   -1    0    0    0  501 -0.00000000000E+00  0.00000000000E+00  0.30797296419E+01  0.30797337659E+01  0.50400000000E-02 0.  1.
          1   -1    0    0  501    0  0.00000000000E+00 -0.00000000000E+00 -0.67309767251E+03  0.67309767253E+03  0.50400000000E-02 0. -1.
         23    2    1    2    0    0 -0.88817841970E-15  0.00000000000E+00 -0.67001794287E+03  0.67617740629E+03  0.91059546552E+02 0.  0.
    9000005    2    3    3    0    0 -0.47592036318E+01 -0.21067041133E+02 -0.63227642323E+03  0.63269301202E+03  0.77782927476E+01 0.  0.
         22    1    3    3    0    0  0.47592036318E+01  0.21067041133E+02 -0.37741519636E+02  0.43484394278E+02  0.00000000000E+00 0.  1.
         22    1    4    4    0    0  0.75975860283E+00 -0.11067097329E+02 -0.25000132689E+03  0.25024732032E+03  0.00000000000E+00 0. -1.
         22    1    4    4    0    0 -0.55189622346E+01 -0.99999438040E+01 -0.38227509634E+03  0.38244569170E+03  0.00000000000E+00 0. -1.
<mgrwt>
<rscale>  0 0.91059547E+02</rscale>
<asrwt>0</asrwt>
<pdfrwt beam="2">  1        1 0.10355337E+00 0.91059547E+02</pdfrwt>
<pdfrwt beam="1">  1       -1 0.47380541E-03 0.91059547E+02</pdfrwt>
<totfact> 0.14265707E+05</totfact>
</mgrwt>
</event>
<event>
 7    1  0.3345055E-009  0.9265998E+02  0.7818608E-02  0.1296535E+00
          1   -1    0    0  501    0  0.00000000000E+00  0.00000000000E+00  0.54724262912E+02  0.54724263144E+02  0.50400000000E-02 0. -1.
         -1   -1    0    0    0  501 -0.00000000000E+00 -0.00000000000E+00 -0.39223335908E+02  0.39223336232E+02  0.50400000000E-02 0.  1.
         23    2    1    2    0    0 -0.22204460493E-15  0.00000000000E+00  0.15500927004E+02  0.93947599376E+02  0.92659984300E+02 0.  0.
    9000005    2    3    3    0    0 -0.17244454048E+01  0.23140793347E+02  0.47281655252E+02  0.54596808828E+02  0.14380075875E+02 0.  0.
         22    1    3    3    0    0  0.17244454048E+01 -0.23140793347E+02 -0.31780728249E+02  0.39350790547E+02  0.00000000000E+00 0.  1.
         22    1    4    4    0    0  0.19125355041E+01 -0.11511119744E+01  0.16554286113E+01  0.27790816323E+01  0.00000000000E+00 0. -1.
         22    1    4    4    0    0 -0.36369809089E+01  0.24291905321E+02  0.45626226641E+02  0.51817727196E+02  0.00000000000E+00 0. -1.
<mgrwt>
<rscale>  0 0.92659984E+02</rscale>
<asrwt>0</asrwt>
<pdfrwt beam="1">  1        1 0.84191175E-02 0.92659984E+02</pdfrwt>
<pdfrwt beam="2">  1       -1 0.60343594E-02 0.92659984E+02</pdfrwt>
<totfact> 0.90859136E+04</totfact>
</mgrwt>
</event>
<event>
 7    1  0.3345055E-009  0.8679994E+02  0.7818608E-02  0.1310791E+00
          1   -1    0    0  501    0  0.00000000000E+00  0.00000000000E+00  0.17677403857E+03  0.17677403864E+03  0.50400000000E-02 0. -1.
         -1   -1    0    0    0  501 -0.00000000000E+00 -0.00000000000E+00 -0.10655169814E+02  0.10655171006E+02  0.50400000000E-02 0.  1.
         23    2    1    2    0    0  0.00000000000E+00 -0.35527136788E-14  0.16611886875E+03  0.18742920964E+03  0.86799942814E+02 0.  0.
    9000005    2    3    3    0    0  0.41591450816E+01  0.26905410019E+02  0.15502505480E+03  0.15803070145E+03  0.14132777846E+02 0.  0.
         22    1    3    3    0    0 -0.41591450816E+01 -0.26905410019E+02  0.11093813956E+02  0.29398508197E+02  0.00000000000E+00 0.  1.
         22    1    4    4    0    0 -0.33918610010E+01  0.10840751912E+02  0.37816532738E+02  0.39485652728E+02  0.00000000000E+00 0.  1.
         22    1    4    4    0    0  0.75510060825E+01  0.16064658106E+02  0.11720852206E+03  0.11854504872E+03  0.00000000000E+00 0.  1.
<mgrwt>
<rscale>  0 0.86799943E+02</rscale>
<asrwt>0</asrwt>
<pdfrwt beam="1">  1        1 0.27196005E-01 0.86799943E+02</pdfrwt>
<pdfrwt beam="2">  1       -1 0.16392571E-02 0.86799943E+02</pdfrwt>
<totfact> 0.13191396E+05</totfact>
</mgrwt>
</event>
<event>
 7    1  0.3345055E-009  0.1039935E+03  0.7818608E-02  0.1272115E+00
          1   -1    0    0  501    0  0.00000000000E+00  0.00000000000E+00  0.34959572968E+01  0.34959609297E+01  0.50400000000E-02 0. -1.
         -1   -1    0    0    0  501 -0.00000000000E+00 -0.00000000000E+00 -0.77336828838E+03  0.77336828840E+03  0.50400000000E-02 0.  1.
         23    2    1    2    0    0  0.35527136788E-14  0.00000000000E+00 -0.76987233108E+03  0.77686424932E+03  0.10399353688E+03 0.  0.
    9000005    2    3    3    0    0  0.26200592236E+02 -0.21129286886E+02 -0.67892816440E+03  0.67989126726E+03  0.13257642233E+02 0.  0.
         22    1    3    3    0    0 -0.26200592236E+02  0.21129286886E+02 -0.90944166681E+02  0.96972982068E+02  0.00000000000E+00 0. -1.
         22    1    4    4    0    0  0.24384051377E+02 -0.19853597720E+02 -0.52130711874E+03  0.52225459247E+03  0.00000000000E+00 0.  1.
         22    1    4    4    0    0  0.18165408587E+01 -0.12756891663E+01 -0.15762104566E+03  0.15763667479E+03  0.00000000000E+00 0.  1.
<mgrwt>
<rscale>  0 0.10399354E+03</rscale>
<asrwt>0</asrwt>
<pdfrwt beam="1">  1        1 0.53784048E-03 0.10399354E+03</pdfrwt>
<pdfrwt beam="2">  1       -1 0.11897960E+00 0.10399354E+03</pdfrwt>
<totfact> 0.23823828E+04</totfact>
</mgrwt>
</event>
<event>
 6    1  0.3345055E-009  0.1576323E+03  0.7818608E-02  0.1191396E+00
         -1   -1    0    0    0  501 -0.00000000000E+00  0.00000000000E+00  0.35897285440E+02  0.35897285794E+02  0.50400000000E-02 0.  1.
          1   -1    0    0  501    0  0.00000000000E+00 -0.00000000000E+00 -0.17304897457E+03  0.17304897464E+03  0.50400000000E-02 0. -1.
    9000005    2    1    2    0    0 -0.65808034432E+02 -0.43228105297E+02 -0.72925936003E+02  0.10733762966E+03  0.19514394385E+01 0.  0.
         22    1    1    2    0    0  0.65808034432E+02  0.43228105297E+02 -0.64225753125E+02  0.10160863077E+03  0.00000000000E+00 0.  1.
         22    1    3    3    0    0 -0.35581330953E+02 -0.24361118658E+02 -0.40626556679E+02  0.59245356968E+02  0.00000000000E+00 0. -1.
         22    1    3    3    0    0 -0.30226703479E+02 -0.18866986640E+02 -0.32299379324E+02  0.48092272693E+02  0.00000000000E+00 0. -1.
<mgrwt>
<rscale>  0 0.15763234E+03</rscale>
<asrwt>0</asrwt>
<pdfrwt beam="2">  1        1 0.26622919E-01 0.15763234E+03</pdfrwt>
<pdfrwt beam="1">  1       -1 0.55226594E-02 0.15763234E+03</pdfrwt>
<totfact> 0.25107723E+04</totfact>
</mgrwt>
</event>
<event>
 7    1  0.3345055E-009  0.8808205E+02  0.7818608E-02  0.1307564E+00
          1   -1    0    0  501    0  0.00000000000E+00  0.00000000000E+00  0.29193603054E+02  0.29193603489E+02  0.50400000000E-02 0. -1.
         -1   -1    0    0    0  501 -0.00000000000E+00 -0.00000000000E+00 -0.66439618643E+02  0.66439618835E+02  0.50400000000E-02 0.  1.
         23    2    1    2    0    0  0.00000000000E+00  0.00000000000E+00 -0.37246015590E+02  0.95633222323E+02  0.88082050014E+02 0.  0.
    9000005    2    3    3    0    0 -0.21981221414E+02 -0.36849377403E+02 -0.12121809808E+02  0.45911230951E+02  0.10947700427E+02 0.  0.
         22    1    3    3    0    0  0.21981221414E+02  0.36849377403E+02 -0.25124205782E+02  0.49721991372E+02  0.00000000000E+00 0.  1.
         22    1    4    4    0    0 -0.14677701837E+02 -0.26795504162E+02 -0.13512675214E+02  0.33406980797E+02  0.00000000000E+00 0. -1.
         22    1    4    4    0    0 -0.73035195764E+01 -0.10053873241E+02  0.13908654062E+01  0.12504250154E+02  0.00000000000E+00 0. -1.
<mgrwt>
<rscale>  0 0.88082050E+02</rscale>
<asrwt>0</asrwt>
<pdfrwt beam="1">  1        1 0.44913236E-02 0.88082050E+02</pdfrwt>
<pdfrwt beam="2">  1       -1 0.10221480E-01 0.88082050E+02</pdfrwt>
<totfact> 0.95274248E+04</totfact>
</mgrwt>
</event>
<event>
 7    1  0.3345055E-009  0.9039480E+02  0.7818608E-02  0.1301898E+00
          1   -1    0    0  501    0  0.00000000000E+00  0.00000000000E+00  0.16897536770E+02  0.16897537521E+02  0.50400000000E-02 0. -1.
         -1   -1    0    0    0  501 -0.00000000000E+00 -0.00000000000E+00 -0.12089366382E+03  0.12089366393E+03  0.50400000000E-02 0.  1.
         23    2    1    2    0    0  0.00000000000E+00  0.00000000000E+00 -0.10399612705E+03  0.13779120145E+03  0.90394804910E+02 0.  0.
    9000005    2    3    3    0    0  0.22247880422E+02 -0.23427542667E+01  0.75211108950E+01  0.24052241368E+02  0.46353559626E+01 0.  0.
         22    1    3    3    0    0 -0.22247880422E+02  0.23427542667E+01 -0.11151723795E+03  0.11373896008E+03  0.00000000000E+00 0.  1.
         22    1    4    4    0    0  0.38904241098E+01 -0.32354294418E+00  0.32906598513E+01  0.51057342320E+01  0.00000000000E+00 0.  1.
         22    1    4    4    0    0  0.18357456312E+02 -0.20192113225E+01  0.42304510438E+01  0.18946507136E+02  0.00000000000E+00 0.  1.
<mgrwt>
<rscale>  0 0.90394805E+02</rscale>
<asrwt>0</asrwt>
<pdfrwt beam="1">  1        1 0.25996212E-02 0.90394805E+02</pdfrwt>
<pdfrwt beam="2">  1       -1 0.18599025E-01 0.90394805E+02</pdfrwt>
<totfact> 0.80175916E+04</totfact>
</mgrwt>
</event>
<event>
 7    1  0.3345055E-009  0.9254259E+02  0.7818608E-02  0.1296809E+00
         -1   -1    0    0    0  501 -0.00000000000E+00  0.00000000000E+00  0.12305366810E+03  0.12305366821E+03  0.50400000000E-02 0.  1.
          1   -1    0    0  501    0  0.00000000000E+00 -0.00000000000E+00 -0.17399179045E+02  0.17399179775E+02  0.50400000000E-02 0. -1.
         23    2    1    2    0    0  0.00000000000E+00  0.24980018054E-15  0.10565448906E+03  0.14045284798E+03  0.92542592616E+02 0.  0.
    9000005    2    3    3    0    0  0.26979653615E+02 -0.24938019789E+00  0.10941931246E+03  0.11321064185E+03  0.10774951959E+02 0.  0.
         22    1    3    3    0    0 -0.26979653615E+02  0.24938019789E+00 -0.37648233994E+01  0.27242206132E+02  0.00000000000E+00 0. -1.
         22    1    4    4    0    0  0.15144510428E+02 -0.33726829027E+01  0.43984695980E+02  0.46641019141E+02  0.00000000000E+00 0. -1.
         22    1    4    4    0    0  0.11835143188E+02  0.31233027048E+01  0.65434616478E+02  0.66569622710E+02  0.00000000000E+00 0. -1.
<mgrwt>
<rscale>  0 0.92542593E+02</rscale>
<asrwt>0</asrwt>
<pdfrwt beam="2">  1        1 0.26767969E-02 0.92542593E+02</pdfrwt>
<pdfrwt beam="1">  1       -1 0.18931333E-01 0.92542593E+02</pdfrwt>
<totfact> 0.75174123E+04</totfact>
</mgrwt>
</event>
<event>
 7    1  0.3345055E-009  0.8716372E+02  0.7818608E-02  0.1309869E+00
          1   -1    0    0  501    0  0.00000000000E+00  0.00000000000E+00  0.26006552960E+03  0.26006552965E+03  0.50400000000E-02 0. -1.
         -1   -1    0    0    0  501 -0.00000000000E+00 -0.00000000000E+00 -0.73034604157E+01  0.73034621547E+01  0.50400000000E-02 0.  1.
         23    2    1    2    0    0  0.35527136788E-14  0.35527136788E-14  0.25276206919E+03  0.26736899181E+03  0.87163720433E+02 0.  0.
    9000005    2    3    3    0    0  0.26312494191E+02  0.28844881918E+02  0.70351146489E+02  0.80826451664E+02  0.76978511782E+01 0.  0.
         22    1    3    3    0    0 -0.26312494191E+02 -0.28844881918E+02  0.18241092270E+03  0.18654254014E+03  0.00000000000E+00 0. -1.
         22    1    4    4    0    0  0.86247995926E+01  0.14936611098E+02  0.32463040310E+02  0.36760556378E+02  0.00000000000E+00 0. -1.
         22    1    4    4    0    0  0.17687694599E+02  0.13908270820E+02  0.37888106180E+02  0.44065895285E+02  0.00000000000E+00 0. -1.
<mgrwt>
<rscale>  0 0.87163720E+02</rscale>
<asrwt>0</asrwt>
<pdfrwt beam="1">  1        1 0.40010079E-01 0.87163720E+02</pdfrwt>
<pdfrwt beam="2">  1       -1 0.11236095E-02 0.87163720E+02</pdfrwt>
<totfact> 0.14049106E+05</totfact>
</mgrwt>
</event>
<event>
 7    1  0.3345055E-009  0.8748597E+02  0.7818608E-02  0.1309057E+00
         -1   -1    0    0    0  501 -0.00000000000E+00  0.00000000000E+00  0.16249142336E+02  0.16249143118E+02  0.50400000000E-02 0.  1.
          1   -1    0    0  501    0  0.00000000000E+00 -0.00000000000E+00 -0.11775690120E+03  0.11775690131E+03  0.50400000000E-02 0. -1.
         23    2    1    2    0    0  0.00000000000E+00  0.00000000000E+00 -0.10150775886E+03  0.13400604442E+03  0.87485969349E+02 0.  0.
    9000005    2    3    3    0    0 -0.81259231109E+01  0.41980060536E+02 -0.54660180819E+02  0.70578513513E+02  0.12854380323E+02 0.  0.
         22    1    3    3    0    0  0.81259231109E+01 -0.41980060536E+02 -0.46847578042E+02  0.63427530911E+02  0.00000000000E+00 0. -1.
         22    1    4    4    0    0 -0.11335524789E+02  0.30794803055E+02 -0.37312072452E+02  0.49689080975E+02  0.00000000000E+00 0. -1.
         22    1    4    4    0    0  0.32096016783E+01  0.11185257481E+02 -0.17348108367E+02  0.20889432538E+02  0.00000000000E+00 0. -1.
<mgrwt>
<rscale>  0 0.87485969E+02</rscale>
<asrwt>0</asrwt>
<pdfrwt beam="2">  1        1 0.18116446E-01 0.87485969E+02</pdfrwt>
<pdfrwt beam="1">  1       -1 0.24998682E-02 0.87485969E+02</pdfrwt>
<totfact> 0.12008414E+05</totfact>
</mgrwt>
</event>
<event>
 7    1  0.3345055E-009  0.9127513E+02  0.7818608E-02  0.1299793E+00
         -1   -1    0    0    0  501 -0.00000000000E+00  0.00000000000E+00  0.10774969992E+03  0.10774970003E+03  0.50400000000E-02 0.  1.
          1   -1    0    0  501    0  0.00000000000E+00 -0.00000000000E+00 -0.19329867922E+02  0.19329868579E+02  0.50400000000E-02 0. -1.
         23    2    1    2    0    0  0.00000000000E+00  0.00000000000E+00  0.88419831994E+02  0.12707956861E+03  0.91275133904E+02 0.  0.
    9000005    2    3    3    0    0 -0.36100855630E+02 -0.26640602353E+02  0.35845955456E+02  0.57963680678E+02  0.78652580532E+01 0.  0.
         22    1    3    3    0    0  0.36100855630E+02  0.26640602353E+02  0.52573876538E+02  0.69115887936E+02  0.00000000000E+00 0.  1.
         22    1    4    4    0    0 -0.51303204861E+01 -0.60435238821E+01  0.95559684568E+01  0.12416154894E+02  0.00000000000E+00 0.  1.
         22    1    4    4    0    0 -0.30970535143E+02 -0.20597078471E+02  0.26289986999E+02  0.45547525784E+02  0.00000000000E+00 0.  1.
<mgrwt>
<rscale>  0 0.91275134E+02</rscale>
<asrwt>0</asrwt>
<pdfrwt beam="2">  1        1 0.29738258E-02 0.91275134E+02</pdfrwt>
<pdfrwt beam="1">  1       -1 0.16576877E-01 0.91275134E+02</pdfrwt>
<totfact> 0.80005491E+04</totfact>
</mgrwt>
</event>
<event>
 7    1  0.3345055E-009  0.9376334E+02  0.7818608E-02  0.1293986E+00
          1   -1    0    0  501    0  0.00000000000E+00  0.00000000000E+00  0.11641062720E+02  0.11641063811E+02  0.50400000000E-02 0. -1.
         -1   -1    0    0    0  501 -0.00000000000E+00 -0.00000000000E+00 -0.18880502008E+03  0.18880502014E+03  0.50400000000E-02 0.  1.
         23    2    1    2    0    0  0.00000000000E+00 -0.35527136788E-14 -0.17716395736E+03  0.20044608396E+03  0.93763344581E+02 0.  0.
    9000005    2    3    3    0    0 -0.88964963227E+01 -0.23763693335E+02 -0.17214470881E+03  0.17458001306E+03  0.14160488001E+02 0.  0.
         22    1    3    3    0    0  0.88964963227E+01  0.23763693335E+02 -0.50192485477E+01  0.25866070898E+02  0.00000000000E+00 0. -1.
         22    1    4    4    0    0 -0.23239866063E+01 -0.42932735212E+01 -0.98914829164E+01  0.11030618548E+02  0.00000000000E+00 0.  1.
         22    1    4    4    0    0 -0.65725097163E+01 -0.19470419814E+02 -0.16225322589E+03  0.16354939451E+03  0.00000000000E+00 0.  1.
<mgrwt>
<rscale>  0 0.93763345E+02</rscale>
<asrwt>0</asrwt>
<pdfrwt beam="1">  1        1 0.17909330E-02 0.93763345E+02</pdfrwt>
<pdfrwt beam="2">  1       -1 0.29046924E-01 0.93763345E+02</pdfrwt>
<totfact> 0.65590760E+04</totfact>
</mgrwt>
</event>
<event>
 7    1  0.3345055E-009  0.9013719E+02  0.7818608E-02  0.1302520E+00
         -1   -1    0    0    0  501 -0.00000000000E+00  0.00000000000E+00  0.76208555148E+01  0.76208571814E+01  0.50400000000E-02 0.  1.
          1   -1    0    0  501    0  0.00000000000E+00 -0.00000000000E+00 -0.26652885283E+03  0.26652885288E+03  0.50400000000E-02 0. -1.
         23    2    1    2    0    0 -0.88817841970E-15  0.00000000000E+00 -0.25890799731E+03  0.27414971006E+03  0.90137186841E+02 0.  0.
    9000005    2    3    3    0    0 -0.66317682620E+01  0.40792253048E+02 -0.82929372543E+02  0.93383384003E+02  0.11627008148E+02 0.  0.
         22    1    3    3    0    0  0.66317682620E+01 -0.40792253048E+02 -0.17597862477E+03  0.18076632606E+03  0.00000000000E+00 0. -1.
         22    1    4    4    0    0 -0.50538454411E+01  0.36612892980E+02 -0.79755855814E+02  0.87903593912E+02  0.00000000000E+00 0. -1.
         22    1    4    4    0    0 -0.15779228209E+01  0.41793600683E+01 -0.31735167291E+01  0.54797900908E+01  0.00000000000E+00 0. -1.
<mgrwt>
<rscale>  0 0.90137187E+02</rscale>
<asrwt>0</asrwt>
<pdfrwt beam="2">  1        1 0.41004432E-01 0.90137187E+02</pdfrwt>
<pdfrwt beam="1">  1       -1 0.11724396E-02 0.90137187E+02</pdfrwt>
<totfact> 0.12911348E+05</totfact>
</mgrwt>
</event>
<event>
 7    1  0.3345055E-009  0.9197828E+02  0.7818608E-02  0.1298131E+00
          1   -1    0    0  501    0  0.00000000000E+00  0.00000000000E+00  0.23789786104E+02  0.23789786638E+02  0.50400000000E-02 0. -1.
         -1   -1    0    0    0  501 -0.00000000000E+00 -0.00000000000E+00 -0.88903736057E+02  0.88903736200E+02  0.50400000000E-02 0.  1.
         23    2    1    2    0    0  0.35527136788E-14  0.00000000000E+00 -0.65113949953E+02  0.11269352284E+03  0.91978277930E+02 0.  0.
    9000005    2    3    3    0    0 -0.29142728333E+02  0.14299976906E+02 -0.71119927024E+02  0.79680499425E+02  0.15399675794E+02 0.  0.
         22    1    3    3    0    0  0.29142728333E+02 -0.14299976906E+02  0.60059770711E+01  0.33013023412E+02  0.00000000000E+00 0.  1.
         22    1    4    4    0    0 -0.30334106524E+02  0.14541423962E+02 -0.62523815173E+02  0.70998862619E+02  0.00000000000E+00 0. -1.
         22    1    4    4    0    0  0.11913781914E+01 -0.24144705543E+00 -0.85961118512E+01  0.86816368061E+01  0.00000000000E+00 0. -1.
<mgrwt>
<rscale>  0 0.91978278E+02</rscale>
<asrwt>0</asrwt>
<pdfrwt beam="1">  1        1 0.36599672E-02 0.91978278E+02</pdfrwt>
<pdfrwt beam="2">  1       -1 0.13677498E-01 0.91978278E+02</pdfrwt>
<totfact> 0.81273143E+04</totfact>
</mgrwt>
</event>
<event>
 7    1  0.3345055E-009  0.9433518E+02  0.7818608E-02  0.1292680E+00
         -1   -1    0    0    0  501 -0.00000000000E+00  0.00000000000E+00  0.80387036424E+02  0.80387036582E+02  0.50400000000E-02 0.  1.
          1   -1    0    0  501    0  0.00000000000E+00 -0.00000000000E+00 -0.27675874382E+02  0.27675874841E+02  0.50400000000E-02 0. -1.
         23    2    1    2    0    0  0.00000000000E+00 -0.35527136788E-14  0.52711162042E+02  0.10806291142E+03  0.94335180190E+02 0.  0.
    9000005    2    3    3    0    0 -0.27812723017E+02  0.26755045690E+02  0.57137174739E+02  0.69217453260E+02  0.60843296391E+01 0.  0.
         22    1    3    3    0    0  0.27812723017E+02 -0.26755045690E+02 -0.44260126975E+01  0.38845458163E+02  0.00000000000E+00 0. -1.
         22    1    4    4    0    0 -0.25381951672E+02  0.23437529711E+02  0.47461398875E+02  0.58703881071E+02  0.00000000000E+00 0. -1.
         22    1    4    4    0    0 -0.24307713456E+01  0.33175159785E+01  0.96757758647E+01  0.10513572190E+02  0.00000000000E+00 0. -1.
<mgrwt>
<rscale>  0 0.94335180E+02</rscale>
<asrwt>0</asrwt>
<pdfrwt beam="2">  1        1 0.42578269E-02 0.94335180E+02</pdfrwt>
<pdfrwt beam="1">  1       -1 0.12367236E-01 0.94335180E+02</pdfrwt>
<totfact> 0.77511036E+04</totfact>
</mgrwt>
</event>
<event>
 7    1  0.3345055E-009  0.9228497E+02  0.7818608E-02  0.1297411E+00
         -1   -1    0    0    0  501 -0.00000000000E+00  0.00000000000E+00  0.30300669990E+02  0.30300670409E+02  0.50400000000E-02 0.  1.
          1   -1    0    0  501    0  0.00000000000E+00 -0.00000000000E+00 -0.70266726466E+02  0.70266726647E+02  0.50400000000E-02 0. -1.
         23    2    1    2    0    0  0.00000000000E+00  0.00000000000E+00 -0.39966056477E+02  0.10056739706E+03  0.92284969959E+02 0.  0.
    9000005    2    3    3    0    0  0.21681556268E+02 -0.11345579717E+02  0.20676213701E+02  0.35173995297E+02  0.14522123496E+02 0.  0.
         22    1    3    3    0    0 -0.21681556268E+02  0.11345579717E+02 -0.60642270177E+02  0.65393401759E+02  0.00000000000E+00 0. -1.
         22    1    4    4    0    0  0.13941215610E+02  0.44382009564E+00  0.73305714544E+01  0.15757275996E+02  0.00000000000E+00 0. -1.
         22    1    4    4    0    0  0.77403406583E+01 -0.11789399813E+02  0.13345642246E+02  0.19416719301E+02  0.00000000000E+00 0. -1.
<mgrwt>
<rscale>  0 0.92284970E+02</rscale>
<asrwt>0</asrwt>
<pdfrwt beam="2">  1        1 0.10810266E-01 0.92284970E+02</pdfrwt>
<pdfrwt beam="1">  1       -1 0.46616416E-02 0.92284970E+02</pdfrwt>
<totfact> 0.95484562E+04</totfact>
</mgrwt>
</event>
<event>
 7    1  0.5472267E-009  0.9111136E+02  0.7818608E-02  0.1300182E+00
          1   -1    0    0  501    0  0.00000000000E+00  0.00000000000E+00  0.25577107892E+03  0.25577107897E+03  0.50400000000E-02 0. -1.
         -1   -1    0    0    0  501 -0.00000000000E+00 -0.00000000000E+00 -0.81139729305E+01  0.81139744958E+01  0.50400000000E-02 0.  1.
         23    2    1    2    0    0  0.00000000000E+00  0.35527136788E-14  0.24765710599E+03  0.26388505346E+03  0.91111356566E+02 0.  0.
    9000005    2    3    3    0    0 -0.27212969347E+02  0.19156728100E+02  0.21204464951E+03  0.21514315169E+03  0.14700897952E+02 0.  0.
         22    1    3    3    0    0  0.27212969347E+02 -0.19156728100E+02  0.35612456475E+02  0.48741901772E+02  0.00000000000E+00 0.  1.
         22    1    4    4    0    0 -0.48964126442E+01 -0.22539357147E+01  0.27155287490E+02  0.27685099271E+02  0.00000000000E+00 0.  1.
         22    1    4    4    0    0 -0.22316556703E+02  0.21410663815E+02  0.18488936202E+03  0.18745805242E+03  0.00000000000E+00 0.  1.
<mgrwt>
<rscale>  0 0.91111357E+02</rscale>
<asrwt>0</asrwt>
<pdfrwt beam="1">  1        1 0.39349400E-01 0.91111357E+02</pdfrwt>
<pdfrwt beam="2">  1       -1 0.12483036E-02 0.91111357E+02</pdfrwt>
<totfact> 0.12445910E+05</totfact>
</mgrwt>
</event>
<event>
 7    1  0.3345055E-009  0.9030797E+02  0.7818608E-02  0.1302108E+00
         -1   -1    0    0    0  501 -0.00000000000E+00  0.00000000000E+00  0.28935784428E+03  0.28935784432E+03  0.50400000000E-02 0.  1.
          1   -1    0    0  501    0  0.00000000000E+00 -0.00000000000E+00 -0.70462304630E+01  0.70462322655E+01  0.50400000000E-02 0. -1.
         23    2    1    2    0    0  0.88817841970E-15  0.35527136788E-14  0.28231161381E+03  0.29640407659E+03  0.90307969320E+02 0.  0.
    9000005    2    3    3    0    0  0.78187563647E+01  0.28052119218E+02  0.25387021404E+03  0.25569821012E+03  0.91342617582E+01 0.  0.
         22    1    3    3    0    0 -0.78187563647E+01 -0.28052119218E+02  0.28441399773E+02  0.40705866466E+02  0.00000000000E+00 0. -1.
         22    1    4    4    0    0  0.19513228012E+01  0.19284010432E+02  0.13906279592E+03  0.14040705797E+03  0.00000000000E+00 0.  1.
         22    1    4    4    0    0  0.58674335636E+01  0.87681087857E+01  0.11480741812E+03  0.11529115215E+03  0.00000000000E+00 0.  1.
<mgrwt>
<rscale>  0 0.90307969E+02</rscale>
<asrwt>0</asrwt>
<pdfrwt beam="2">  1        1 0.10840358E-02 0.90307969E+02</pdfrwt>
<pdfrwt beam="1">  1       -1 0.44516585E-01 0.90307969E+02</pdfrwt>
<totfact> 0.62997525E+04</totfact>
</mgrwt>
</event>
<event>
 7    1  0.3345055E-009  0.9046541E+02  0.7818608E-02  0.1301729E+00
          1   -1    0    0  501    0  0.00000000000E+00  0.00000000000E+00  0.94604214724E+02  0.94604214858E+02  0.50400000000E-02 0. -1.
         -1   -1    0    0    0  501 -0.00000000000E+00 -0.00000000000E+00 -0.21626918251E+02  0.21626918838E+02  0.50400000000E-02 0.  1.
         23    2    1    2    0    0  0.00000000000E+00  0.00000000000E+00  0.72977296474E+02  0.11623113370E+03  0.90465411289E+02 0.  0.
    9000005    2    3    3    0    0 -0.44242605975E+02 -0.53058419215E+01  0.44707560192E+02  0.63460515627E+02  0.65506460315E+01 0.  0.
         22    1    3    3    0    0  0.44242605975E+02  0.53058419215E+01  0.28269736282E+02  0.52770618069E+02  0.00000000000E+00 0. -1.
         22    1    4    4    0    0 -0.93025819413E+01  0.10924890025E+01  0.11529673044E+02  0.14854794630E+02  0.00000000000E+00 0.  1.
         22    1    4    4    0    0 -0.34940024034E+02 -0.63983309240E+01  0.33177887148E+02  0.48605720997E+02  0.00000000000E+00 0.  1.
<mgrwt>
<rscale>  0 0.90465411E+02</rscale>
<asrwt>0</asrwt>
<pdfrwt beam="1">  1        1 0.14554495E-01 0.90465411E+02</pdfrwt>
<pdfrwt beam="2">  1       -1 0.33272183E-02 0.90465411E+02</pdfrwt>
<totfact> 0.10573431E+05</totfact>
</mgrwt>
</event>
<event>
 7    1  0.3345055E-009  0.8979067E+02  0.7818608E-02  0.1303359E+00
         -1   -1    0    0    0  501 -0.00000000000E+00  0.00000000000E+00  0.47991460257E+02  0.47991460522E+02  0.50400000000E-02 0.  1.
          1   -1    0    0  501    0  0.00000000000E+00 -0.00000000000E+00 -0.41998956052E+02  0.41998956355E+02  0.50400000000E-02 0. -1.
         23    2    1    2    0    0  0.00000000000E+00  0.00000000000E+00  0.59925042047E+01  0.89990416877E+02  0.89790673363E+02 0.  0.
    9000005    2    3    3    0    0  0.51699151020E+01  0.14282987163E+02  0.45142939369E+02  0.47996508771E+02  0.59201465252E+01 0.  0.
         22    1    3    3    0    0 -0.51699151020E+01 -0.14282987163E+02 -0.39150435164E+02  0.41993908106E+02  0.00000000000E+00 0. -1.
         22    1    4    4    0    0  0.89959350709E+00  0.63147710438E+00  0.99095873963E+01  0.99703537638E+01  0.00000000000E+00 0.  1.
         22    1    4    4    0    0  0.42703215949E+01  0.13651510058E+02  0.35233351973E+02  0.38026155007E+02  0.00000000000E+00 0.  1.
<mgrwt>
<rscale>  0 0.89790673E+02</rscale>
<asrwt>0</asrwt>
<pdfrwt beam="2">  1        1 0.64613779E-02 0.89790673E+02</pdfrwt>
<pdfrwt beam="1">  1       -1 0.73833016E-02 0.89790673E+02</pdfrwt>
<totfact> 0.95357029E+04</totfact>
</mgrwt>
</event>
<event>
 7    1  0.3345055E-009  0.9159867E+02  0.7818608E-02  0.1299026E+00
         -1   -1    0    0    0  501 -0.00000000000E+00  0.00000000000E+00  0.37107669588E+01  0.37107703815E+01  0.50400000000E-02 0.  1.
          1   -1    0    0  501    0  0.00000000000E+00 -0.00000000000E+00 -0.56526807919E+03  0.56526807921E+03  0.50400000000E-02 0. -1.
         23    2    1    2    0    0  0.00000000000E+00  0.00000000000E+00 -0.56155731223E+03  0.56897884960E+03  0.91598670104E+02 0.  0.
    9000005    2    3    3    0    0 -0.91400087079E+01  0.34973575812E+02 -0.45504063444E+03  0.45649554678E+03  0.44175190101E+01 0.  0.
         22    1    3    3    0    0  0.91400087079E+01 -0.34973575812E+02 -0.10651667779E+03  0.11248330281E+03  0.00000000000E+00 0. -1.
         22    1    4    4    0    0 -0.53365117574E+01  0.15770778275E+02 -0.23266642868E+03  0.23326136166E+03  0.00000000000E+00 0.  1.
         22    1    4    4    0    0 -0.38034969505E+01  0.19202797537E+02 -0.22237420576E+03  0.22323418513E+03  0.00000000000E+00 0.  1.
<mgrwt>
<rscale>  0 0.91598670E+02</rscale>
<asrwt>0</asrwt>
<pdfrwt beam="2">  1        1 0.86964252E-01 0.91598670E+02</pdfrwt>
<pdfrwt beam="1">  1       -1 0.57088794E-03 0.91598670E+02</pdfrwt>
<totfact> 0.13927801E+05</totfact>
</mgrwt>
</event>
<event>
 7    1  0.3345055E-009  0.9059035E+02  0.7818608E-02  0.1301428E+00
          1   -1    0    0  501    0  0.00000000000E+00  0.00000000000E+00  0.44680671403E+02  0.44680671688E+02  0.50400000000E-02 0. -1.
         -1   -1    0    0    0  501 -0.00000000000E+00 -0.00000000000E+00 -0.45918132981E+02  0.45918133257E+02  0.50400000000E-02 0.  1.
         23    2    1    2    0    0  0.00000000000E+00  0.00000000000E+00 -0.12374615775E+01  0.90598804945E+02  0.90590353495E+02 0.  0.
    9000005    2    3    3    0    0  0.39633100908E+02 -0.18753725330E+02  0.10500149921E+02  0.45208757302E+02  0.33307187086E+01 0.  0.
         22    1    3    3    0    0 -0.39633100908E+02  0.18753725330E+02 -0.11737611498E+02  0.45390047643E+02  0.00000000000E+00 0. -1.
         22    1    4    4    0    0  0.20618696147E+02 -0.79262933683E+01  0.50779801625E+01  0.22665891553E+02  0.00000000000E+00 0.  1.
         22    1    4    4    0    0  0.19014404761E+02 -0.10827431962E+02  0.54221697581E+01  0.22542865749E+02  0.00000000000E+00 0.  1.
<mgrwt>
<rscale>  0 0.90590353E+02</rscale>
<asrwt>0</asrwt>
<pdfrwt beam="1">  1        1 0.68739495E-02 0.90590353E+02</pdfrwt>
<pdfrwt beam="2">  1       -1 0.70643282E-02 0.90590353E+02</pdfrwt>
<totfact> 0.93877885E+04</totfact>
</mgrwt>
</event>
<event>
 7    1  0.3345055E-009  0.9010985E+02  0.7818608E-02  0.1302586E+00
          1   -1    0    0  501    0  0.00000000000E+00  0.00000000000E+00  0.75504057351E+02  0.75504057519E+02  0.50400000000E-02 0. -1.
         -1   -1    0    0    0  501 -0.00000000000E+00 -0.00000000000E+00 -0.26885258210E+02  0.26885258682E+02  0.50400000000E-02 0.  1.
         23    2    1    2    0    0  0.00000000000E+00  0.00000000000E+00  0.48618799141E+02  0.10238931620E+03  0.90109846533E+02 0.  0.
    9000005    2    3    3    0    0 -0.24328028922E+02  0.33212244533E+02  0.41990737148E+02  0.60689947094E+02  0.15004715721E+02 0.  0.
         22    1    3    3    0    0  0.24328028922E+02 -0.33212244533E+02  0.66280619930E+01  0.41699369107E+02  0.00000000000E+00 0. -1.
         22    1    4    4    0    0 -0.11286753954E+01  0.62403423182E+01  0.14179190654E+02  0.15532714766E+02  0.00000000000E+00 0. -1.
         22    1    4    4    0    0 -0.23199353526E+02  0.26971902215E+02  0.27811546494E+02  0.45157232328E+02  0.00000000000E+00 0. -1.
<mgrwt>
<rscale>  0 0.90109847E+02</rscale>
<asrwt>0</asrwt>
<pdfrwt beam="1">  1        1 0.11616009E-01 0.90109847E+02</pdfrwt>
<pdfrwt beam="2">  1       -1 0.41361937E-02 0.90109847E+02</pdfrwt>
<totfact> 0.10311334E+05</totfact>
</mgrwt>
</event>
<event>
 7    1  0.3493398E-009  0.9221011E+02  0.7818608E-02  0.1297586E+00
         -1   -1    0    0    0  501 -0.00000000000E+00  0.00000000000E+00  0.11375425590E+02  0.11375426706E+02  0.50400000000E-02 0.  1.
          1   -1    0    0  501    0  0.00000000000E+00 -0.00000000000E+00 -0.18686564217E+03  0.18686564223E+03  0.50400000000E-02 0. -1.
         23    2    1    2    0    0  0.71054273576E-14 -0.17763568394E-14 -0.17549021658E+03  0.19824106894E+03  0.92210114958E+02 0.  0.
    9000005    2    3    3    0    0 -0.35676018285E+02  0.10678659752E+02 -0.14423684837E+03  0.14962435289E+03  0.14013083067E+02 0.  0.
         22    1    3    3    0    0  0.35676018285E+02 -0.10678659752E+02 -0.31253368209E+02  0.48616716047E+02  0.00000000000E+00 0.  1.
         22    1    4    4    0    0 -0.15522207616E+02  0.55788078502E+01 -0.90801295595E+02  0.92287254310E+02  0.00000000000E+00 0.  1.
         22    1    4    4    0    0 -0.20153810669E+02  0.50998519019E+01 -0.53435552773E+02  0.57337098584E+02  0.00000000000E+00 0.  1.
<mgrwt>
<rscale>  0 0.92210115E+02</rscale>
<asrwt>0</asrwt>
<pdfrwt beam="2">  1        1 0.28748558E-01 0.92210115E+02</pdfrwt>
<pdfrwt beam="1">  1       -1 0.17500657E-02 0.92210115E+02</pdfrwt>
<totfact> 0.11337418E+05</totfact>
</mgrwt>
</event>
<event>
 7    1  0.3345055E-009  0.9161795E+02  0.7818608E-02  0.1298980E+00
         -1   -1    0    0    0  501 -0.00000000000E+00  0.00000000000E+00  0.69256034325E+03  0.69256034327E+03  0.50400000000E-02 0.  1.
          1   -1    0    0  501    0  0.00000000000E+00 -0.00000000000E+00 -0.30300043034E+01  0.30300084951E+01  0.50400000000E-02 0. -1.
         23    2    1    2    0    0  0.00000000000E+00  0.00000000000E+00  0.68953033895E+03  0.69559035177E+03  0.91617952054E+02 0.  0.
    9000005    2    3    3    0    0 -0.25131576398E+01  0.43749123877E+02  0.43299404822E+03  0.43533822350E+03  0.10734116287E+02 0.  0.
         22    1    3    3    0    0  0.25131576398E+01 -0.43749123877E+02  0.25653629073E+03  0.26025212826E+03  0.00000000000E+00 0.  1.
         22    1    4    4    0    0  0.29520362479E+01  0.72852889835E+01  0.10020697038E+03  0.10051480919E+03  0.00000000000E+00 0. -1.
         22    1    4    4    0    0 -0.54651938877E+01  0.36463834894E+02  0.33278707784E+03  0.33482341432E+03  0.00000000000E+00 0. -1.
<mgrwt>
<rscale>  0 0.91617952E+02</rscale>
<asrwt>0</asrwt>
<pdfrwt beam="2">  1        1 0.46615447E-03 0.91617952E+02</pdfrwt>
<pdfrwt beam="1">  1       -1 0.10654783E+00 0.91617952E+02</pdfrwt>
<totfact> 0.36711637E+04</totfact>
</mgrwt>
</event>
<event>
 7    1  0.3345055E-009  0.9021041E+02  0.7818608E-02  0.1302343E+00
          1   -1    0    0  501    0  0.00000000000E+00  0.00000000000E+00  0.49508696993E+03  0.49508696995E+03  0.50400000000E-02 0. -1.
         -1   -1    0    0    0  501 -0.00000000000E+00 -0.00000000000E+00 -0.41093364027E+01  0.41093394934E+01  0.50400000000E-02 0.  1.
         23    2    1    2    0    0  0.35527136788E-14  0.00000000000E+00  0.49097763352E+03  0.49919630944E+03  0.90210413719E+02 0.  0.
    9000005    2    3    3    0    0  0.23253000140E+02  0.33794319506E+00  0.45890166049E+03  0.45957706832E+03  0.89180438980E+01 0.  0.
         22    1    3    3    0    0 -0.23253000140E+02 -0.33794319506E+00  0.32075973037E+02  0.39619241126E+02  0.00000000000E+00 0.  1.
         22    1    4    4    0    0 -0.17855302307E-01  0.15010478211E+01  0.19253828241E+02  0.19312259456E+02  0.00000000000E+00 0.  1.
         22    1    4    4    0    0  0.23270855442E+02 -0.11631046260E+01  0.43964783224E+03  0.44026480886E+03  0.00000000000E+00 0.  1.
<mgrwt>
<rscale>  0 0.90210414E+02</rscale>
<asrwt>0</asrwt>
<pdfrwt beam="1">  1        1 0.76167202E-01 0.90210414E+02</pdfrwt>
<pdfrwt beam="2">  1       -1 0.63220605E-03 0.90210414E+02</pdfrwt>
<totfact> 0.14308200E+05</totfact>
</mgrwt>
</event>
<event>
 7    1  0.3345055E-009  0.9065701E+02  0.7818608E-02  0.1301268E+00
          1   -1    0    0  501    0  0.00000000000E+00  0.00000000000E+00  0.13160835775E+02  0.13160836740E+02  0.50400000000E-02 0. -1.
         -1   -1    0    0    0  501 -0.00000000000E+00 -0.00000000000E+00 -0.15612028139E+03  0.15612028147E+03  0.50400000000E-02 0.  1.
         23    2    1    2    0    0  0.00000000000E+00  0.00000000000E+00 -0.14295944561E+03  0.16928111821E+03  0.90657012372E+02 0.  0.
    9000005    2    3    3    0    0 -0.41547476301E+02 -0.15835546123E+02 -0.72620321667E+02  0.86067239166E+02  0.12526022138E+02 0.  0.
         22    1    3    3    0    0  0.41547476301E+02  0.15835546123E+02 -0.70339123944E+02  0.83213879042E+02  0.00000000000E+00 0. -1.
         22    1    4    4    0    0 -0.39263629184E+02 -0.13736630107E+02 -0.71591962646E+02  0.82799376198E+02  0.00000000000E+00 0.  1.
         22    1    4    4    0    0 -0.22838471172E+01 -0.20989160166E+01 -0.10283590217E+01  0.32678629679E+01  0.00000000000E+00 0.  1.
<mgrwt>
<rscale>  0 0.90657012E+02</rscale>
<asrwt>0</asrwt>
<pdfrwt beam="1">  1        1 0.20247442E-02 0.90657012E+02</pdfrwt>
<pdfrwt beam="2">  1       -1 0.24018504E-01 0.90657012E+02</pdfrwt>
<totfact> 0.75190124E+04</totfact>
</mgrwt>
</event>
<event>
 7    1  0.3345055E-009  0.9101076E+02  0.7818608E-02  0.1300422E+00
          1   -1    0    0  501    0  0.00000000000E+00  0.00000000000E+00  0.97526873265E+02  0.97526873395E+02  0.50400000000E-02 0. -1.
         -1   -1    0    0    0  501 -0.00000000000E+00 -0.00000000000E+00 -0.21232504680E+02  0.21232505279E+02  0.50400000000E-02 0.  1.
         23    2    1    2    0    0 -0.35527136788E-14  0.35527136788E-14  0.76294368585E+02  0.11875937867E+03  0.91010764997E+02 0.  0.
    9000005    2    3    3    0    0  0.21941576765E+02 -0.20692211600E+02  0.81790582498E+02  0.88103077867E+02  0.12761368751E+02 0.  0.
         22    1    3    3    0    0 -0.21941576765E+02  0.20692211600E+02 -0.54962139131E+01  0.30656300808E+02  0.00000000000E+00 0.  1.
         22    1    4    4    0    0  0.50736535654E+01 -0.83027257939E+01  0.13254325224E+02  0.16442455816E+02  0.00000000000E+00 0.  1.
         22    1    4    4    0    0  0.16867923199E+02 -0.12389485806E+02  0.68536257273E+02  0.71660622050E+02  0.00000000000E+00 0.  1.
<mgrwt>
<rscale>  0 0.91010765E+02</rscale>
<asrwt>0</asrwt>
<pdfrwt beam="1">  1        1 0.15004134E-01 0.91010765E+02</pdfrwt>
<pdfrwt beam="2">  1       -1 0.32665393E-02 0.91010765E+02</pdfrwt>
<totfact> 0.10453801E+05</totfact>
</mgrwt>
</event>
<event>
 7    1  0.4721607E-009  0.6588135E+02  0.7818608E-02  0.1374687E+00
         -1   -1    0    0    0  501 -0.00000000000E+00  0.00000000000E+00  0.41642448359E+01  0.41642478859E+01  0.50400000000E-02 0.  1.
          1   -1    0    0  501    0  0.00000000000E+00 -0.00000000000E+00 -0.26057248628E+03  0.26057248633E+03  0.50400000000E-02 0. -1.
         23    2    1    2    0    0  0.17763568394E-14  0.17763568394E-14 -0.25640824145E+03  0.26473673422E+03  0.65881349123E+02 0.  0.
    9000005    2    3    3    0    0  0.12105093157E+02  0.12164488253E+02 -0.24023775163E+03  0.24115723474E+03  0.12170723235E+02 0.  0.
         22    1    3    3    0    0 -0.12105093157E+02 -0.12164488253E+02 -0.16170489821E+02  0.23579499483E+02  0.00000000000E+00 0.  1.
         22    1    4    4    0    0  0.83578738521E+01  0.79939052049E+01 -0.81072715434E+02  0.81893478151E+02  0.00000000000E+00 0.  1.
         22    1    4    4    0    0  0.37472193049E+01  0.41705830478E+01 -0.15916503619E+03  0.15926375659E+03  0.00000000000E+00 0.  1.
<mgrwt>
<rscale>  0 0.65881349E+02</rscale>
<asrwt>0</asrwt>
<pdfrwt beam="2">  1        1 0.40088062E-01 0.65881349E+02</pdfrwt>
<pdfrwt beam="1">  1       -1 0.64065350E-03 0.65881349E+02</pdfrwt>
<totfact> 0.29239424E+05</totfact>
</mgrwt>
</event>
<event>
 7    1  0.3345055E-009  0.9731562E+02  0.7818608E-02  0.1286044E+00
          1   -1    0    0  501    0  0.00000000000E+00  0.00000000000E+00  0.92686721411E+02  0.92686721548E+02  0.50400000000E-02 0. -1.
         -1   -1    0    0    0  501 -0.00000000000E+00 -0.00000000000E+00 -0.25543921906E+02  0.25543922403E+02  0.50400000000E-02 0.  1.
         23    2    1    2    0    0  0.00000000000E+00  0.00000000000E+00  0.67142799505E+02  0.11823064395E+03  0.97315618703E+02 0.  0.
    9000005    2    3    3    0    0  0.92047844916E+01  0.43469825742E+02  0.95355410862E+01  0.45477980562E+02  0.17223137484E+01 0.  0.
         22    1    3    3    0    0 -0.92047844916E+01 -0.43469825742E+02  0.57607258419E+02  0.72752663388E+02  0.00000000000E+00 0. -1.
         22    1    4    4    0    0  0.68886212984E+01  0.29143853269E+02  0.60138275906E+01  0.30544777115E+02  0.00000000000E+00 0.  1.
         22    1    4    4    0    0  0.23161631932E+01  0.14325972473E+02  0.35217134957E+01  0.14933203447E+02  0.00000000000E+00 0.  1.
<mgrwt>
<rscale>  0 0.97315619E+02</rscale>
<asrwt>0</asrwt>
<pdfrwt beam="1">  1        1 0.14259495E-01 0.97315619E+02</pdfrwt>
<pdfrwt beam="2">  1       -1 0.39298342E-02 0.97315619E+02</pdfrwt>
<totfact> 0.86252731E+04</totfact>
</mgrwt>
</event>
<event>
 7    1  0.3345055E-009  0.9031070E+02  0.7818608E-02  0.1302101E+00
         -1   -1    0    0    0  501 -0.00000000000E+00  0.00000000000E+00  0.75647475385E+01  0.75647492174E+01  0.50400000000E-02 0.  1.
          1   -1    0    0  501    0  0.00000000000E+00 -0.00000000000E+00 -0.26954045179E+03  0.26954045183E+03  0.50400000000E-02 0. -1.
         23    2    1    2    0    0  0.00000000000E+00 -0.35527136788E-14 -0.26197570425E+03  0.27710520105E+03  0.90310701654E+02 0.  0.
    9000005    2    3    3    0    0 -0.28097558509E+02 -0.30865142685E+02 -0.18045655189E+03  0.18552189456E+03  0.10567706141E+02 0.  0.
         22    1    3    3    0    0  0.28097558509E+02  0.30865142685E+02 -0.81519152360E+02  0.91583306495E+02  0.00000000000E+00 0. -1.
         22    1    4    4    0    0 -0.90597873327E+01 -0.17597577824E+02 -0.78280779881E+02  0.80744256703E+02  0.00000000000E+00 0.  1.
         22    1    4    4    0    0 -0.19037771176E+02 -0.13267564861E+02 -0.10217577201E+03  0.10477763785E+03  0.00000000000E+00 0.  1.
<mgrwt>
<rscale>  0 0.90310702E+02</rscale>
<asrwt>0</asrwt>
<pdfrwt beam="2">  1        1 0.41467755E-01 0.90310702E+02</pdfrwt>
<pdfrwt beam="1">  1       -1 0.11638077E-02 0.90310702E+02</pdfrwt>
<totfact> 0.12873511E+05</totfact>
</mgrwt>
</event>
<event>
 7    1  0.3345055E-009  0.9086299E+02  0.7818608E-02  0.1300775E+00
          1   -1    0    0  501    0  0.00000000000E+00  0.00000000000E+00  0.56046847653E+01  0.56046870314E+01  0.50400000000E-02 0. -1.
         -1   -1    0    0    0  501 -0.00000000000E+00 -0.00000000000E+00 -0.36826700817E+03  0.36826700820E+03  0.50400000000E-02 0.  1.
         23    2    1    2    0    0  0.35527136788E-14 -0.71054273576E-14 -0.36266232340E+03  0.37387169523E+03  0.90862994014E+02 0.  0.
    9000005    2    3    3    0    0 -0.18977964858E+02  0.36689191998E+02 -0.11694614468E+03  0.12470769213E+03  0.13013368501E+02 0.  0.
         22    1    3    3    0    0  0.18977964858E+02 -0.36689191998E+02 -0.24571617872E+03  0.24916400311E+03  0.00000000000E+00 0.  1.
         22    1    4    4    0    0 -0.20798765932E+02  0.31216274038E+02 -0.10287569189E+03  0.10950092425E+03  0.00000000000E+00 0. -1.
         22    1    4    4    0    0  0.18208010737E+01  0.54729179599E+01 -0.14070452790E+02  0.15206767877E+02  0.00000000000E+00 0. -1.
<mgrwt>
<rscale>  0 0.90862994E+02</rscale>
<asrwt>0</asrwt>
<pdfrwt beam="1">  1        1 0.86225966E-03 0.90862994E+02</pdfrwt>
<pdfrwt beam="2">  1       -1 0.56656444E-01 0.90862994E+02</pdfrwt>
<totfact> 0.55982224E+04</totfact>
</mgrwt>
</event>
<event>
 7    1  0.3345055E-009  0.8953028E+02  0.7818608E-02  0.1303993E+00
          1   -1    0    0  501    0  0.00000000000E+00  0.00000000000E+00  0.82695372721E+02  0.82695372874E+02  0.50400000000E-02 0. -1.
         -1   -1    0    0    0  501 -0.00000000000E+00 -0.00000000000E+00 -0.24232527738E+02  0.24232528262E+02  0.50400000000E-02 0.  1.
         23    2    1    2    0    0 -0.17763568394E-14  0.00000000000E+00  0.58462844983E+02  0.10692790114E+03  0.89530284251E+02 0.  0.
    9000005    2    3    3    0    0 -0.14156817404E+02  0.18580906451E+02 -0.15997401095E+02  0.28889488739E+02  0.57463165837E+01 0.  0.
         22    1    3    3    0    0  0.14156817404E+02 -0.18580906451E+02  0.74460246077E+02  0.78038412397E+02  0.00000000000E+00 0. -1.
         22    1    4    4    0    0 -0.13215874737E+02  0.14529468341E+02 -0.11483930979E+02  0.22751823357E+02  0.00000000000E+00 0.  1.
         22    1    4    4    0    0 -0.94094266721E+00  0.40514381104E+01 -0.45134701152E+01  0.61376653824E+01  0.00000000000E+00 0.  1.
<mgrwt>
<rscale>  0 0.89530284E+02</rscale>
<asrwt>0</asrwt>
<pdfrwt beam="1">  1        1 0.12722365E-01 0.89530284E+02</pdfrwt>
<pdfrwt beam="2">  1       -1 0.37280812E-02 0.89530284E+02</pdfrwt>
<totfact> 0.10645237E+05</totfact>
</mgrwt>
</event>
<event>
 7    1  0.3345055E-009  0.9013149E+02  0.7818608E-02  0.1302534E+00
          1   -1    0    0  501    0  0.00000000000E+00  0.00000000000E+00  0.15798066190E+02  0.15798066994E+02  0.50400000000E-02 0. -1.
         -1   -1    0    0    0  501 -0.00000000000E+00 -0.00000000000E+00 -0.12855506212E+03  0.12855506222E+03  0.50400000000E-02 0.  1.
         23    2    1    2    0    0  0.00000000000E+00 -0.88817841970E-15 -0.11275699593E+03  0.14435312922E+03  0.90131491626E+02 0.  0.
    9000005    2    3    3    0    0  0.43903715735E+02  0.58465328096E+01 -0.57472693189E+02  0.73514775684E+02  0.11814972718E+02 0.  0.
         22    1    3    3    0    0 -0.43903715735E+02 -0.58465328096E+01 -0.55284302744E+02  0.70838353532E+02  0.00000000000E+00 0.  1.
         22    1    4    4    0    0  0.39369074204E+02  0.29397377670E+01 -0.54694759881E+02  0.67454301718E+02  0.00000000000E+00 0. -1.
         22    1    4    4    0    0  0.45346415309E+01  0.29067950426E+01 -0.27779333074E+01  0.60604739661E+01  0.00000000000E+00 0. -1.
<mgrwt>
<rscale>  0 0.90131492E+02</rscale>
<asrwt>0</asrwt>
<pdfrwt beam="1">  1        1 0.24304719E-02 0.90131492E+02</pdfrwt>
<pdfrwt beam="2">  1       -1 0.19777701E-01 0.90131492E+02</pdfrwt>
<totfact> 0.79752726E+04</totfact>
</mgrwt>
</event>
<event>
 7    1  0.3345055E-009  0.9100729E+02  0.7818608E-02  0.1300431E+00
         -1   -1    0    0    0  501 -0.00000000000E+00  0.00000000000E+00  0.27065587676E+02  0.27065588146E+02  0.50400000000E-02 0.  1.
          1   -1    0    0  501    0  0.00000000000E+00 -0.00000000000E+00 -0.76502368019E+02  0.76502368185E+02  0.50400000000E-02 0. -1.
         23    2    1    2    0    0 -0.55511151231E-16  0.00000000000E+00 -0.49436780343E+02  0.10356795633E+03  0.91007287224E+02 0.  0.
    9000005    2    3    3    0    0 -0.29770722214E+00 -0.25146540395E+02  0.17787580851E+02  0.31793644343E+02  0.78740500813E+01 0.  0.
         22    1    3    3    0    0  0.29770722214E+00  0.25146540395E+02 -0.67224361193E+02  0.71774311987E+02  0.00000000000E+00 0. -1.
         22    1    4    4    0    0  0.10616480814E+01 -0.23474208104E+02  0.13772868069E+02  0.27237060003E+02  0.00000000000E+00 0.  1.
         22    1    4    4    0    0 -0.13593553035E+01 -0.16723322912E+01  0.40147127816E+01  0.45565843405E+01  0.00000000000E+00 0.  1.
<mgrwt>
<rscale>  0 0.91007287E+02</rscale>
<asrwt>0</asrwt>
<pdfrwt beam="2">  1        1 0.11769595E-01 0.91007287E+02</pdfrwt>
<pdfrwt beam="1">  1       -1 0.41639367E-02 0.91007287E+02</pdfrwt>
<totfact> 0.10055237E+05</totfact>
</mgrwt>
</event>
<event>
 7    1  0.3345055E-009  0.8946426E+02  0.7818608E-02  0.1304154E+00
         -1   -1    0    0    0  501 -0.00000000000E+00  0.00000000000E+00  0.23099407786E+02  0.23099408336E+02  0.50400000000E-02 0.  1.
          1   -1    0    0  501    0  0.00000000000E+00 -0.00000000000E+00 -0.86624013701E+02  0.86624013848E+02  0.50400000000E-02 0. -1.
         23    2    1    2    0    0  0.00000000000E+00 -0.35527136788E-14 -0.63524605915E+02  0.10972342218E+03  0.89464260010E+02 0.  0.
    9000005    2    3    3    0    0  0.19354622346E+02 -0.26902787132E+02  0.25337738938E+01  0.35817597619E+02  0.13346120312E+02 0.  0.
         22    1    3    3    0    0 -0.19354622346E+02  0.26902787132E+02 -0.66058379809E+02  0.73905824565E+02  0.00000000000E+00 0. -1.
         22    1    4    4    0    0  0.31005264459E+00 -0.49062647320E+01  0.44881118725E+01  0.66566293605E+01  0.00000000000E+00 0.  1.
         22    1    4    4    0    0  0.19044569702E+02 -0.21996522400E+02 -0.19543379788E+01  0.29160968258E+02  0.00000000000E+00 0.  1.
<mgrwt>
<rscale>  0 0.89464260E+02</rscale>
<asrwt>0</asrwt>
<pdfrwt beam="2">  1        1 0.13326771E-01 0.89464260E+02</pdfrwt>
<pdfrwt beam="1">  1       -1 0.35537551E-02 0.89464260E+02</pdfrwt>
<totfact> 0.10745358E+05</totfact>
</mgrwt>
</event>
<event>
 7    1  0.3345055E-009  0.9040275E+02  0.7818608E-02  0.1301879E+00
         -1   -1    0    0    0  501 -0.00000000000E+00  0.00000000000E+00  0.36910176768E+01  0.36910211178E+01  0.50400000000E-02 0.  1.
          1   -1    0    0  501    0  0.00000000000E+00 -0.00000000000E+00 -0.55355016140E+03  0.55355016143E+03  0.50400000000E-02 0. -1.
         23    2    1    2    0    0  0.00000000000E+00  0.00000000000E+00 -0.54985914373E+03  0.55724118254E+03  0.90402752079E+02 0.  0.
    9000005    2    3    3    0    0 -0.20738741077E+02  0.94844439613E+01 -0.51503521498E+03  0.51561479582E+03  0.87917538271E+01 0.  0.
         22    1    3    3    0    0  0.20738741077E+02 -0.94844439613E+01 -0.34823928745E+02  0.41626386727E+02  0.00000000000E+00 0.  1.
         22    1    4    4    0    0 -0.30526664289E+01  0.42784135766E+01 -0.69577888894E+02  0.69776114954E+02  0.00000000000E+00 0. -1.
         22    1    4    4    0    0 -0.17686074648E+02  0.52060303847E+01 -0.44545732609E+03  0.44583868086E+03  0.00000000000E+00 0. -1.
<mgrwt>
<rscale>  0 0.90402752E+02</rscale>
<asrwt>0</asrwt>
<pdfrwt beam="2">  1        1 0.85161498E-01 0.90402752E+02</pdfrwt>
<pdfrwt beam="1">  1       -1 0.56784958E-03 0.90402752E+02</pdfrwt>
<totfact> 0.14395305E+05</totfact>
</mgrwt>
</event>
<event>
 7    1  0.3345055E-009  0.9062998E+02  0.7818608E-02  0.1301333E+00
         -1   -1    0    0    0  501 -0.00000000000E+00  0.00000000000E+00  0.13645458347E+02  0.13645459278E+02  0.50400000000E-02 0.  1.
          1   -1    0    0  501    0  0.00000000000E+00 -0.00000000000E+00 -0.15048583131E+03  0.15048583140E+03  0.50400000000E-02 0. -1.
         23    2    1    2    0    0  0.00000000000E+00 -0.88817841970E-15 -0.13684037297E+03  0.16413129068E+03  0.90629977963E+02 0.  0.
    9000005    2    3    3    0    0 -0.89651225214E+01  0.69156900786E+01 -0.14780292078E+03  0.14837128923E+03  0.63352887339E+01 0.  0.
         22    1    3    3    0    0  0.89651225214E+01 -0.69156900786E+01  0.10962547817E+02  0.15760001451E+02  0.00000000000E+00 0.  1.
         22    1    4    4    0    0 -0.13696648134E+01  0.44197069101E+01 -0.71820608996E+02  0.71969505121E+02  0.00000000000E+00 0.  1.
         22    1    4    4    0    0 -0.75954577080E+01  0.24959831684E+01 -0.75982311788E+02  0.76401784105E+02  0.00000000000E+00 0.  1.
<mgrwt>
<rscale>  0 0.90629978E+02</rscale>
<asrwt>0</asrwt>
<pdfrwt beam="2">  1        1 0.23151665E-01 0.90629978E+02</pdfrwt>
<pdfrwt beam="1">  1       -1 0.20993015E-02 0.90629978E+02</pdfrwt>
<totfact> 0.11403365E+05</totfact>
</mgrwt>
</event>
<event>
 7    1  0.3345055E-009  0.9099169E+02  0.7818608E-02  0.1300468E+00
          1   -1    0    0  501    0  0.00000000000E+00  0.00000000000E+00  0.14489295772E+04  0.14489295772E+04  0.50400000000E-02 0. -1.
         -1   -1    0    0    0  501 -0.00000000000E+00 -0.00000000000E+00 -0.14285479158E+01  0.14285568065E+01  0.50400000000E-02 0.  1.
         23    2    1    2    0    0 -0.17763568394E-14 -0.35527136788E-14  0.14475010293E+04  0.14503581340E+04  0.90991687123E+02 0.  0.
    9000005    2    3    3    0    0  0.10987893225E+02  0.21138360805E+02  0.13391018734E+04  0.13393719137E+04  0.12479257820E+02 0.  0.
         22    1    3    3    0    0 -0.10987893225E+02 -0.21138360805E+02  0.10839915595E+03  0.11098622034E+03  0.00000000000E+00 0.  1.
         22    1    4    4    0    0  0.77740366762E+01  0.70361719111E+01  0.82496418114E+03  0.82503081368E+03  0.00000000000E+00 0. -1.
         22    1    4    4    0    0  0.32138565493E+01  0.14102188894E+02  0.51413769221E+03  0.51434110001E+03  0.00000000000E+00 0. -1.
<mgrwt>
<rscale>  0 0.90991687E+02</rscale>
<asrwt>0</asrwt>
<pdfrwt beam="1">  1        1 0.22291210E+00 0.90991687E+02</pdfrwt>
<pdfrwt beam="2">  1       -1 0.21977743E-03 0.90991687E+02</pdfrwt>
<totfact> 0.11417640E+05</totfact>
</mgrwt>
</event>
<event>
 7    1  0.3345055E-009  0.9163205E+02  0.7818608E-02  0.1298947E+00
          1   -1    0    0  501    0  0.00000000000E+00  0.00000000000E+00  0.18510176181E+03  0.18510176188E+03  0.50400000000E-02 0. -1.
         -1   -1    0    0    0  501 -0.00000000000E+00 -0.00000000000E+00 -0.11340292056E+02  0.11340293176E+02  0.50400000000E-02 0.  1.
         23    2    1    2    0    0  0.00000000000E+00  0.00000000000E+00  0.17376146976E+03  0.19644205506E+03  0.91632050195E+02 0.  0.
    9000005    2    3    3    0    0  0.18333927280E+02  0.31405135495E+02  0.14460108476E+03  0.14982935852E+03  0.14729139032E+02 0.  0.
         22    1    3    3    0    0 -0.18333927280E+02 -0.31405135495E+02  0.29160384994E+02  0.46612696531E+02  0.00000000000E+00 0.  1.
         22    1    4    4    0    0  0.53014548989E+01  0.10228764524E+02  0.23142607174E+02  0.25851756508E+02  0.00000000000E+00 0.  1.
         22    1    4    4    0    0  0.13032472381E+02  0.21176370971E+02  0.12145847759E+03  0.12397760202E+03  0.00000000000E+00 0.  1.
<mgrwt>
<rscale>  0 0.91632050E+02</rscale>
<asrwt>0</asrwt>
<pdfrwt beam="1">  1        1 0.28477193E-01 0.91632050E+02</pdfrwt>
<pdfrwt beam="2">  1       -1 0.17446605E-02 0.91632050E+02</pdfrwt>
<totfact> 0.11509792E+05</totfact>
</mgrwt>
</event>
<event>
 7    1  0.3345055E-009  0.9856367E+02  0.7818608E-02  0.1283346E+00
          1   -1    0    0  501    0  0.00000000000E+00  0.00000000000E+00  0.13877217224E+03  0.13877217234E+03  0.50400000000E-02 0. -1.
         -1   -1    0    0    0  501 -0.00000000000E+00 -0.00000000000E+00 -0.17501341493E+02  0.17501342219E+02  0.50400000000E-02 0.  1.
         23    2    1    2    0    0 -0.35527136788E-14  0.71054273576E-14  0.12127083075E+03  0.15627351456E+03  0.98563669575E+02 0.  0.
    9000005    2    3    3    0    0 -0.27781557825E+02  0.35584930046E+02  0.89889496922E+02  0.10129269686E+03  0.11915812121E+02 0.  0.
         22    1    3    3    0    0  0.27781557825E+02 -0.35584930046E+02  0.31381333830E+02  0.54980817696E+02  0.00000000000E+00 0.  1.
         22    1    4    4    0    0 -0.78712224775E+01  0.19649098944E+02  0.39225915410E+02  0.44572588800E+02  0.00000000000E+00 0. -1.
         22    1    4    4    0    0 -0.19910335348E+02  0.15935831102E+02  0.50663581512E+02  0.56720108059E+02  0.00000000000E+00 0. -1.
<mgrwt>
<rscale>  0 0.98563670E+02</rscale>
<asrwt>0</asrwt>
<pdfrwt beam="1">  1        1 0.21349564E-01 0.98563670E+02</pdfrwt>
<pdfrwt beam="2">  1       -1 0.26925142E-02 0.98563670E+02</pdfrwt>
<totfact> 0.89464548E+04</totfact>
</mgrwt>
</event>
<event>
 7    1  0.3345055E-009  0.8613018E+02  0.7818608E-02  0.1312503E+00
         -1   -1    0    0    0  501 -0.00000000000E+00  0.00000000000E+00  0.18400700245E+02  0.18400700936E+02  0.50400000000E-02 0.  1.
          1   -1    0    0  501    0  0.00000000000E+00 -0.00000000000E+00 -0.10078974260E+03  0.10078974272E+03  0.50400000000E-02 0. -1.
         23    2    1    2    0    0  0.00000000000E+00  0.00000000000E+00 -0.82389042350E+02  0.11919044366E+03  0.86130177986E+02 0.  0.
    9000005    2    3    3    0    0 -0.38592816066E+02  0.47163245219E+01 -0.65200496579E+02  0.76680500413E+02  0.10823364571E+02 0.  0.
         22    1    3    3    0    0  0.38592816066E+02 -0.47163245219E+01 -0.17188545771E+02  0.42509943244E+02  0.00000000000E+00 0.  1.
         22    1    4    4    0    0 -0.78988265794E+01 -0.34017243024E+01 -0.13251106339E+02  0.15797310175E+02  0.00000000000E+00 0.  1.
         22    1    4    4    0    0 -0.30693989486E+02  0.81180488243E+01 -0.51949390240E+02  0.60883190238E+02  0.00000000000E+00 0.  1.
<mgrwt>
<rscale>  0 0.86130178E+02</rscale>
<asrwt>0</asrwt>
<pdfrwt beam="2">  1        1 0.15506114E-01 0.86130178E+02</pdfrwt>
<pdfrwt beam="1">  1       -1 0.28308771E-02 0.86130178E+02</pdfrwt>
<totfact> 0.12206224E+05</totfact>
</mgrwt>
</event>
<event>
 7    1  0.3345055E-009  0.9264166E+02  0.7818608E-02  0.1296578E+00
          1   -1    0    0  501    0  0.00000000000E+00  0.00000000000E+00  0.14276347302E+04  0.14276347302E+04  0.50400000000E-02 0. -1.
         -1   -1    0    0    0  501 -0.00000000000E+00 -0.00000000000E+00 -0.15029147773E+01  0.15029232281E+01  0.50400000000E-02 0.  1.
         23    2    1    2    0    0  0.00000000000E+00  0.35527136788E-14  0.14261318154E+04  0.14291376534E+04  0.92641661851E+02 0.  0.
    9000005    2    3    3    0    0 -0.10788964710E+02 -0.19247608363E+02  0.13387249935E+04  0.13389887505E+04  0.14811937074E+02 0.  0.
         22    1    3    3    0    0  0.10788964710E+02  0.19247608363E+02  0.87406821905E+02  0.90148902948E+02  0.00000000000E+00 0.  1.
         22    1    4    4    0    0  0.23089857986E+01 -0.14098239128E-01  0.27288914558E+03  0.27289891423E+03  0.00000000000E+00 0. -1.
         22    1    4    4    0    0 -0.13097950508E+02 -0.19233510124E+02  0.10658358479E+04  0.10660898363E+04  0.00000000000E+00 0. -1.
<mgrwt>
<rscale>  0 0.92641662E+02</rscale>
<asrwt>0</asrwt>
<pdfrwt beam="1">  1        1 0.21963607E+00 0.92641662E+02</pdfrwt>
<pdfrwt beam="2">  1       -1 0.23121835E-03 0.92641662E+02</pdfrwt>
<totfact> 0.11007489E+05</totfact>
</mgrwt>
</event>
<event>
 7    1  0.3345055E-009  0.9135304E+02  0.7818608E-02  0.1299608E+00
          1   -1    0    0  501    0  0.00000000000E+00  0.00000000000E+00  0.51019806537E+03  0.51019806539E+03  0.50400000000E-02 0. -1.
         -1   -1    0    0    0  501 -0.00000000000E+00 -0.00000000000E+00 -0.40892818777E+01  0.40892849835E+01  0.50400000000E-02 0.  1.
         23    2    1    2    0    0 -0.35527136788E-14  0.00000000000E+00  0.50610878349E+03  0.51428735038E+03  0.91353040624E+02 0.  0.
    9000005    2    3    3    0    0 -0.16192302412E+02  0.36565612327E+02  0.37523779563E+03  0.37744273000E+03  0.77702315866E+01 0.  0.
         22    1    3    3    0    0  0.16192302412E+02 -0.36565612327E+02  0.13087098787E+03  0.13684462038E+03  0.00000000000E+00 0.  1.
         22    1    4    4    0    0 -0.80555754890E+00  0.67011495442E+01  0.45489036046E+02  0.45987027829E+02  0.00000000000E+00 0.  1.
         22    1    4    4    0    0 -0.15386744863E+02  0.29864462783E+02  0.32974875958E+03  0.33145570217E+03  0.00000000000E+00 0.  1.
<mgrwt>
<rscale>  0 0.91353041E+02</rscale>
<asrwt>0</asrwt>
<pdfrwt beam="1">  1        1 0.78491988E-01 0.91353041E+02</pdfrwt>
<pdfrwt beam="2">  1       -1 0.62912071E-03 0.91353041E+02</pdfrwt>
<totfact> 0.13887721E+05</totfact>
</mgrwt>
</event>
<event>
 7    1  0.3345055E-009  0.9293837E+02  0.7818608E-02  0.1295888E+00
         -1   -1    0    0    0  501 -0.00000000000E+00  0.00000000000E+00  0.22798884824E+03  0.22798884830E+03  0.50400000000E-02 0.  1.
          1   -1    0    0  501    0  0.00000000000E+00 -0.00000000000E+00 -0.94714497467E+01  0.94714510877E+01  0.50400000000E-02 0. -1.
         23    2    1    2    0    0  0.00000000000E+00  0.00000000000E+00  0.21851739849E+03  0.23746029938E+03  0.92938368498E+02 0.  0.
    9000005    2    3    3    0    0 -0.20532853750E+02  0.31066862132E+02  0.17799292481E+03  0.18242412062E+03  0.14502775419E+02 0.  0.
         22    1    3    3    0    0  0.20532853750E+02 -0.31066862132E+02  0.40524473682E+02  0.55036178765E+02  0.00000000000E+00 0. -1.
         22    1    4    4    0    0 -0.18484088256E+02  0.27902403368E+02  0.12848034289E+03  0.13276823469E+03  0.00000000000E+00 0.  1.
         22    1    4    4    0    0 -0.20487654935E+01  0.31644587634E+01  0.49512581918E+02  0.49655885930E+02  0.00000000000E+00 0.  1.
<mgrwt>
<rscale>  0 0.92938368E+02</rscale>
<asrwt>0</asrwt>
<pdfrwt beam="2">  1        1 0.14571463E-02 0.92938368E+02</pdfrwt>
<pdfrwt beam="1">  1       -1 0.35075207E-01 0.92938368E+02</pdfrwt>
<totfact> 0.63491348E+04</totfact>
</mgrwt>
</event>
<event>
 7    1  0.3345055E-009  0.9100426E+02  0.7818608E-02  0.1300438E+00
         -1   -1    0    0    0  501 -0.00000000000E+00  0.00000000000E+00  0.71046022972E+01  0.71046040849E+01  0.50400000000E-02 0.  1.
          1   -1    0    0  501    0  0.00000000000E+00 -0.00000000000E+00 -0.29142284777E+03  0.29142284781E+03  0.50400000000E-02 0. -1.
         23    2    1    2    0    0  0.00000000000E+00  0.00000000000E+00 -0.28431824547E+03  0.29852745190E+03  0.91004257198E+02 0.  0.
    9000005    2    3    3    0    0  0.16706721534E+02 -0.37945725393E+02 -0.88241002326E+02  0.98114683093E+02  0.11001087540E+02 0.  0.
         22    1    3    3    0    0 -0.16706721534E+02  0.37945725393E+02 -0.19607724314E+03  0.20041276880E+03  0.00000000000E+00 0. -1.
         22    1    4    4    0    0  0.35149612428E+01 -0.18740319590E+02 -0.32179548031E+02  0.37404248988E+02  0.00000000000E+00 0. -1.
         22    1    4    4    0    0  0.13191760292E+02 -0.19205405803E+02 -0.56061454295E+02  0.60710434105E+02  0.00000000000E+00 0. -1.
<mgrwt>
<rscale>  0 0.91004257E+02</rscale>
<asrwt>0</asrwt>
<pdfrwt beam="2">  1        1 0.44834275E-01 0.91004257E+02</pdfrwt>
<pdfrwt beam="1">  1       -1 0.10930161E-02 0.91004257E+02</pdfrwt>
<totfact> 0.12805789E+05</totfact>
</mgrwt>
</event>
<event>
 7    1  0.3345055E-009  0.8918340E+02  0.7818608E-02  0.1304841E+00
         -1   -1    0    0    0  501 -0.00000000000E+00  0.00000000000E+00  0.58770958344E+02  0.58770958560E+02  0.50400000000E-02 0.  1.
          1   -1    0    0  501    0  0.00000000000E+00 -0.00000000000E+00 -0.33833374350E+02  0.33833374726E+02  0.50400000000E-02 0. -1.
         23    2    1    2    0    0  0.00000000000E+00  0.00000000000E+00  0.24937583994E+02  0.92604333286E+02  0.89183403433E+02 0.  0.
    9000005    2    3    3    0    0  0.41212305038E+02 -0.11295792206E+02  0.23085605356E+01  0.44250205118E+02  0.11256206872E+02 0.  0.
         22    1    3    3    0    0 -0.41212305038E+02  0.11295792206E+02  0.22629023458E+02  0.48354128167E+02  0.00000000000E+00 0. -1.
         22    1    4    4    0    0  0.31821227899E+02 -0.98082510390E+01 -0.28722671345E+01  0.33422182035E+02  0.00000000000E+00 0. -1.
         22    1    4    4    0    0  0.93910771392E+01 -0.14875411670E+01  0.51808276701E+01  0.10828023084E+02  0.00000000000E+00 0. -1.
<mgrwt>
<rscale>  0 0.89183403E+02</rscale>
<asrwt>0</asrwt>
<pdfrwt beam="2">  1        1 0.52051346E-02 0.89183403E+02</pdfrwt>
<pdfrwt beam="1">  1       -1 0.90416859E-02 0.89183403E+02</pdfrwt>
<totfact> 0.94085642E+04</totfact>
</mgrwt>
</event>
<event>
 7    1  0.3345055E-009  0.1025058E+03  0.7818608E-02  0.1275113E+00
         -1   -1    0    0    0  501 -0.00000000000E+00  0.00000000000E+00  0.94920616465E+01  0.94920629846E+01  0.50400000000E-02 0.  1.
          1   -1    0    0  501    0  0.00000000000E+00 -0.00000000000E+00 -0.27674288805E+03  0.27674288810E+03  0.50400000000E-02 0. -1.
         23    2    1    2    0    0 -0.71054273576E-14  0.00000000000E+00 -0.26725082641E+03  0.28623495108E+03  0.10250581938E+03 0.  0.
    9000005    2    3    3    0    0  0.40167664520E+02  0.24068629075E+02 -0.18959024894E+03  0.19554919989E+03  0.10113698753E+02 0.  0.
         22    1    3    3    0    0 -0.40167664520E+02 -0.24068629075E+02 -0.77660577460E+02  0.90685751196E+02  0.00000000000E+00 0.  1.
         22    1    4    4    0    0  0.37410205860E+02  0.19066781320E+02 -0.16035478922E+03  0.16576104512E+03  0.00000000000E+00 0.  1.
         22    1    4    4    0    0  0.27574586603E+01  0.50018477548E+01 -0.29235459725E+02  0.29788154769E+02  0.00000000000E+00 0.  1.
<mgrwt>
<rscale>  0 0.10250582E+03</rscale>
<asrwt>0</asrwt>
<pdfrwt beam="2">  1        1 0.42575823E-01 0.10250582E+03</pdfrwt>
<pdfrwt beam="1">  1       -1 0.14603175E-02 0.10250582E+03</pdfrwt>
<totfact> 0.92109471E+04</totfact>
</mgrwt>
</event>
<event>
 7    1  0.3345055E-009  0.8924690E+02  0.7818608E-02  0.1304686E+00
          1   -1    0    0  501    0  0.00000000000E+00  0.00000000000E+00  0.11073987505E+03  0.11073987516E+03  0.50400000000E-02 0. -1.
         -1   -1    0    0    0  501 -0.00000000000E+00 -0.00000000000E+00 -0.17981347414E+02  0.17981348121E+02  0.50400000000E-02 0.  1.
         23    2    1    2    0    0 -0.44408920985E-15  0.00000000000E+00  0.92758527634E+02  0.12872122328E+03  0.89246898404E+02 0.  0.
    9000005    2    3    3    0    0  0.26415590387E+01  0.24725003271E+02  0.99689603340E+02  0.10290759449E+03  0.58010662046E+01 0.  0.
         22    1    3    3    0    0 -0.26415590387E+01 -0.24725003271E+02 -0.69310757064E+01  0.25813628791E+02  0.00000000000E+00 0.  1.
         22    1    4    4    0    0  0.41283605521E+01  0.13240811711E+02  0.50148126678E+02  0.52030731928E+02  0.00000000000E+00 0.  1.
         22    1    4    4    0    0 -0.14868015134E+01  0.11484191560E+02  0.49541476662E+02  0.50876862564E+02  0.00000000000E+00 0.  1.
<mgrwt>
<rscale>  0 0.89246898E+02</rscale>
<asrwt>0</asrwt>
<pdfrwt beam="1">  1        1 0.17036904E-01 0.89246898E+02</pdfrwt>
<pdfrwt beam="2">  1       -1 0.27663612E-02 0.89246898E+02</pdfrwt>
<totfact> 0.11260884E+05</totfact>
</mgrwt>
</event>
<event>
 7    1  0.3345055E-009  0.8861796E+02  0.7818608E-02  0.1306233E+00
         -1   -1    0    0    0  501 -0.00000000000E+00  0.00000000000E+00  0.13232281274E+03  0.13232281284E+03  0.50400000000E-02 0.  1.
          1   -1    0    0  501    0  0.00000000000E+00 -0.00000000000E+00 -0.14837090855E+02  0.14837091711E+02  0.50400000000E-02 0. -1.
         23    2    1    2    0    0  0.00000000000E+00  0.00000000000E+00  0.11748572188E+03  0.14715990455E+03  0.88617959011E+02 0.  0.
    9000005    2    3    3    0    0 -0.20820281440E+02  0.12703815437E+02  0.11925531888E+03  0.12270581451E+03  0.15492410694E+02 0.  0.
         22    1    3    3    0    0  0.20820281440E+02 -0.12703815437E+02 -0.17695969906E+01  0.24454090034E+02  0.00000000000E+00 0. -1.
         22    1    4    4    0    0 -0.18724282112E+02  0.33118017465E+01  0.71124223949E+02  0.73622157017E+02  0.00000000000E+00 0.  1.
         22    1    4    4    0    0 -0.20959993285E+01  0.93920136900E+01  0.48131094926E+02  0.49083657496E+02  0.00000000000E+00 0.  1.
<mgrwt>
<rscale>  0 0.88617959E+02</rscale>
<asrwt>0</asrwt>
<pdfrwt beam="2">  1        1 0.22826295E-02 0.88617959E+02</pdfrwt>
<pdfrwt beam="1">  1       -1 0.20357356E-01 0.88617959E+02</pdfrwt>
<totfact> 0.82807855E+04</totfact>
</mgrwt>
</event>
<event>
 7    1  0.3345055E-009  0.8926322E+02  0.7818608E-02  0.1304646E+00
          1   -1    0    0  501    0  0.00000000000E+00  0.00000000000E+00  0.42871407118E+01  0.42871436743E+01  0.50400000000E-02 0. -1.
         -1   -1    0    0    0  501 -0.00000000000E+00 -0.00000000000E+00 -0.46464061805E+03  0.46464061808E+03  0.50400000000E-02 0.  1.
         23    2    1    2    0    0  0.00000000000E+00  0.00000000000E+00 -0.46035347734E+03  0.46892776175E+03  0.89263215514E+02 0.  0.
    9000005    2    3    3    0    0 -0.55463420253E+01  0.33850858559E+02 -0.37702579314E+03  0.37881591187E+03  0.13281711444E+02 0.  0.
         22    1    3    3    0    0  0.55463420253E+01 -0.33850858559E+02 -0.83327684201E+02  0.90111849883E+02  0.00000000000E+00 0. -1.
         22    1    4    4    0    0  0.86616417919E+00  0.27880250415E+02 -0.27271925893E+03  0.27414203033E+03  0.00000000000E+00 0. -1.
         22    1    4    4    0    0 -0.64125062045E+01  0.59706081440E+01 -0.10430653421E+03  0.10467388154E+03  0.00000000000E+00 0. -1.
<mgrwt>
<rscale>  0 0.89263216E+02</rscale>
<asrwt>0</asrwt>
<pdfrwt beam="1">  1        1 0.65956071E-03 0.89263216E+02</pdfrwt>
<pdfrwt beam="2">  1       -1 0.71483132E-01 0.89263216E+02</pdfrwt>
<totfact> 0.51954845E+04</totfact>
</mgrwt>
</event>
<event>
 7    1  0.3345055E-009  0.9805310E+02  0.7818608E-02  0.1284444E+00
         -1   -1    0    0    0  501 -0.00000000000E+00  0.00000000000E+00  0.19300782181E+02  0.19300782839E+02  0.50400000000E-02 0. -1.
          1   -1    0    0  501    0  0.00000000000E+00 -0.00000000000E+00 -0.12453393454E+03  0.12453393464E+03  0.50400000000E-02 0.  1.
         23    2    1    2    0    0 -0.44408920985E-15 -0.35527136788E-14 -0.10523315236E+03  0.14383471748E+03  0.98053095807E+02 0.  0.
    9000005    2    3    3    0    0  0.35452851744E+01  0.23946754255E+02 -0.11502034364E+03  0.11772331768E+03  0.65638394559E+01 0.  0.
         22    1    3    3    0    0 -0.35452851744E+01 -0.23946754255E+02  0.97871912819E+01  0.26111399800E+02  0.00000000000E+00 0. -1.
         22    1    4    4    0    0  0.49459937046E+00 -0.17583206568E+00 -0.90392953605E+00  0.10452913750E+01  0.00000000000E+00 0.  1.
         22    1    4    4    0    0  0.30506858039E+01  0.24122586321E+02 -0.11411641410E+03  0.11667802630E+03  0.00000000000E+00 0.  1.
<mgrwt>
<rscale>  0 0.98053096E+02</rscale>
<asrwt>0</asrwt>
<pdfrwt beam="2">  1        1 0.19159066E-01 0.98053096E+02</pdfrwt>
<pdfrwt beam="1">  1       -1 0.29693512E-02 0.98053096E+02</pdfrwt>
<totfact> 0.88957648E+04</totfact>
</mgrwt>
</event>
<event>
 7    1  0.3564783E-009  0.9577118E+02  0.7818608E-02  0.1289449E+00
         -1   -1    0    0    0  501 -0.00000000000E+00  0.00000000000E+00  0.49694191358E+01  0.49694216916E+01  0.50400000000E-02 0.  1.
          1   -1    0    0  501    0  0.00000000000E+00 -0.00000000000E+00 -0.46142801408E+03  0.46142801411E+03  0.50400000000E-02 0. -1.
         23    2    1    2    0    0  0.00000000000E+00  0.35527136788E-14 -0.45645859495E+03  0.46639743580E+03  0.95771181582E+02 0.  0.
    9000005    2    3    3    0    0 -0.16692771464E+02 -0.25690107499E+02 -0.40602534784E+03  0.40738775307E+03  0.13021828557E+02 0.  0.
         22    1    3    3    0    0  0.16692771464E+02  0.25690107499E+02 -0.50433247101E+02  0.59009682728E+02  0.00000000000E+00 0.  1.
         22    1    4    4    0    0 -0.12438506249E+02 -0.14695263815E+02 -0.31715998938E+03  0.31774380573E+03  0.00000000000E+00 0.  1.
         22    1    4    4    0    0 -0.42542652151E+01 -0.10994843684E+02 -0.88865358466E+02  0.89643947344E+02  0.00000000000E+00 0.  1.
<mgrwt>
<rscale>  0 0.95771182E+02</rscale>
<asrwt>0</asrwt>
<pdfrwt beam="2">  1        1 0.70988892E-01 0.95771182E+02</pdfrwt>
<pdfrwt beam="1">  1       -1 0.76452658E-03 0.95771182E+02</pdfrwt>
<totfact> 0.12094946E+05</totfact>
</mgrwt>
</event>
<event>
 7    1  0.3345055E-009  0.9173177E+02  0.7818608E-02  0.1298711E+00
         -1   -1    0    0    0  501 -0.00000000000E+00  0.00000000000E+00  0.16575159174E+02  0.16575159940E+02  0.50400000000E-02 0.  1.
          1   -1    0    0  501    0  0.00000000000E+00 -0.00000000000E+00 -0.12691759052E+03  0.12691759062E+03  0.50400000000E-02 0. -1.
         23    2    1    2    0    0  0.00000000000E+00  0.00000000000E+00 -0.11034243134E+03  0.14349275056E+03  0.91731768257E+02 0.  0.
    9000005    2    3    3    0    0 -0.16350255051E+02  0.41384295208E+02 -0.53828442051E+02  0.71563467814E+02  0.15615313697E+02 0.  0.
         22    1    3    3    0    0  0.16350255051E+02 -0.41384295208E+02 -0.56513989291E+02  0.71929282742E+02  0.00000000000E+00 0. -1.
         22    1    4    4    0    0  0.13669027515E+01  0.12966779460E+02 -0.20655031715E+02  0.24426136163E+02  0.00000000000E+00 0. -1.
         22    1    4    4    0    0 -0.17717157803E+02  0.28417515748E+02 -0.33173410335E+02  0.47137331651E+02  0.00000000000E+00 0. -1.
<mgrwt>
<rscale>  0 0.91731768E+02</rscale>
<asrwt>0</asrwt>
<pdfrwt beam="2">  1        1 0.19525783E-01 0.91731768E+02</pdfrwt>
<pdfrwt beam="1">  1       -1 0.25500246E-02 0.91731768E+02</pdfrwt>
<totfact> 0.10702750E+05</totfact>
</mgrwt>
</event>
<event>
 7    1  0.3345055E-009  0.9265921E+02  0.7818608E-02  0.1296537E+00
          1   -1    0    0  501    0  0.00000000000E+00  0.00000000000E+00  0.24832260170E+02  0.24832260681E+02  0.50400000000E-02 0. -1.
         -1   -1    0    0    0  501 -0.00000000000E+00 -0.00000000000E+00 -0.86437258026E+02  0.86437258173E+02  0.50400000000E-02 0.  1.
         23    2    1    2    0    0  0.71054273576E-14  0.17763568394E-14 -0.61604997857E+02  0.11126951885E+03  0.92659214680E+02 0.  0.
    9000005    2    3    3    0    0 -0.36578655284E+02 -0.11088830166E+02 -0.61469291368E+02  0.73046769175E+02  0.98181733914E+01 0.  0.
         22    1    3    3    0    0  0.36578655284E+02  0.11088830166E+02 -0.13570648863E+00  0.38222749680E+02  0.00000000000E+00 0. -1.
         22    1    4    4    0    0 -0.23744031107E+02 -0.55843566185E+01 -0.46909581904E+02  0.52872232093E+02  0.00000000000E+00 0. -1.
         22    1    4    4    0    0 -0.12834624176E+02 -0.55044735475E+01 -0.14559709464E+02  0.20174537081E+02  0.00000000000E+00 0. -1.
<mgrwt>
<rscale>  0 0.92659215E+02</rscale>
<asrwt>0</asrwt>
<pdfrwt beam="1">  1        1 0.38203478E-02 0.92659215E+02</pdfrwt>
<pdfrwt beam="2">  1       -1 0.13298040E-01 0.92659215E+02</pdfrwt>
<totfact> 0.80143731E+04</totfact>
</mgrwt>
</event>
<event>
 7    1  0.3345055E-009  0.9102831E+02  0.7818608E-02  0.1300380E+00
         -1   -1    0    0    0  501 -0.00000000000E+00  0.00000000000E+00  0.12307870015E+02  0.12307871047E+02  0.50400000000E-02 0.  1.
          1   -1    0    0  501    0  0.00000000000E+00 -0.00000000000E+00 -0.16831003734E+03  0.16831003742E+03  0.50400000000E-02 0. -1.
         23    2    1    2    0    0  0.00000000000E+00  0.00000000000E+00 -0.15600216733E+03  0.18061790846E+03  0.91028306845E+02 0.  0.
    9000005    2    3    3    0    0 -0.42114678033E+02  0.14250413579E+02 -0.70366611489E+02  0.84128692399E+02  0.12225239443E+02 0.  0.
         22    1    3    3    0    0  0.42114678033E+02 -0.14250413579E+02 -0.85635555839E+02  0.96489216065E+02  0.00000000000E+00 0.  1.
         22    1    4    4    0    0 -0.16772166420E+02 -0.50763256507E+00 -0.25067623017E+02  0.30165360614E+02  0.00000000000E+00 0. -1.
         22    1    4    4    0    0 -0.25342511613E+02  0.14758046144E+02 -0.45298988471E+02  0.53963331785E+02  0.00000000000E+00 0. -1.
<mgrwt>
<rscale>  0 0.91028307E+02</rscale>
<asrwt>0</asrwt>
<pdfrwt beam="2">  1        1 0.25893850E-01 0.91028307E+02</pdfrwt>
<pdfrwt beam="1">  1       -1 0.18935187E-02 0.91028307E+02</pdfrwt>
<totfact> 0.11506405E+05</totfact>
</mgrwt>
</event>
<event>
 7    1  0.3345055E-009  0.9086691E+02  0.7818608E-02  0.1300766E+00
          1   -1    0    0  501    0  0.00000000000E+00  0.00000000000E+00  0.60669075298E+02  0.60669075507E+02  0.50400000000E-02 0. -1.
         -1   -1    0    0    0  501 -0.00000000000E+00 -0.00000000000E+00 -0.34023904789E+02  0.34023905162E+02  0.50400000000E-02 0.  1.
         23    2    1    2    0    0  0.00000000000E+00  0.00000000000E+00  0.26645170509E+02  0.94692980669E+02  0.90866910790E+02 0.  0.
    9000005    2    3    3    0    0  0.27616843558E+02  0.34256333211E+02  0.22726915498E+02  0.50516752497E+02  0.99620872089E+01 0.  0.
         22    1    3    3    0    0 -0.27616843558E+02 -0.34256333211E+02  0.39182550108E+01  0.44176228172E+02  0.00000000000E+00 0.  1.
         22    1    4    4    0    0  0.19617007320E+01  0.54275488620E+01  0.81171474958E-01  0.57717540851E+01  0.00000000000E+00 0.  1.
         22    1    4    4    0    0  0.25655142826E+02  0.28828784349E+02  0.22645744023E+02  0.44744998412E+02  0.00000000000E+00 0.  1.
<mgrwt>
<rscale>  0 0.90866911E+02</rscale>
<asrwt>0</asrwt>
<pdfrwt beam="1">  1        1 0.93337038E-02 0.90866911E+02</pdfrwt>
<pdfrwt beam="2">  1       -1 0.52344470E-02 0.90866911E+02</pdfrwt>
<totfact> 0.97448592E+04</totfact>
</mgrwt>
</event>
<event>
 7    1  0.3345055E-009  0.8929293E+02  0.7818608E-02  0.1304573E+00
          1   -1    0    0  501    0  0.00000000000E+00  0.00000000000E+00  0.28825473040E+02  0.28825473481E+02  0.50400000000E-02 0. -1.
         -1   -1    0    0    0  501 -0.00000000000E+00 -0.00000000000E+00 -0.69150884586E+02  0.69150884770E+02  0.50400000000E-02 0.  1.
         23    2    1    2    0    0 -0.17763568394E-14  0.71054273576E-14 -0.40325411546E+02  0.97976358251E+02  0.89292933425E+02 0.  0.
    9000005    2    3    3    0    0 -0.15808266199E+02  0.40698955071E+02 -0.14095439800E+02  0.47041913698E+02  0.10390091297E+02 0.  0.
         22    1    3    3    0    0  0.15808266199E+02 -0.40698955071E+02 -0.26229971745E+02  0.50934444552E+02  0.00000000000E+00 0. -1.
         22    1    4    4    0    0 -0.37316325163E+01  0.20284324501E+02 -0.29500552672E+01  0.20834628093E+02  0.00000000000E+00 0. -1.
         22    1    4    4    0    0 -0.12076633683E+02  0.20414630570E+02 -0.11145384533E+02  0.26207285606E+02  0.00000000000E+00 0. -1.
<mgrwt>
<rscale>  0 0.89292933E+02</rscale>
<asrwt>0</asrwt>
<pdfrwt beam="1">  1        1 0.44346883E-02 0.89292933E+02</pdfrwt>
<pdfrwt beam="2">  1       -1 0.10638598E-01 0.89292933E+02</pdfrwt>
<totfact> 0.91443217E+04</totfact>
</mgrwt>
</event>
<event>
 7    1  0.3345055E-009  0.9177345E+02  0.7818608E-02  0.1298613E+00
         -1   -1    0    0    0  501 -0.00000000000E+00  0.00000000000E+00  0.29545881561E+03  0.29545881565E+03  0.50400000000E-02 0.  1.
          1   -1    0    0  501    0  0.00000000000E+00 -0.00000000000E+00 -0.71265137978E+01  0.71265155800E+01  0.50400000000E-02 0. -1.
         23    2    1    2    0    0  0.00000000000E+00  0.00000000000E+00  0.28833230181E+03  0.30258533123E+03  0.91773451548E+02 0.  0.
    9000005    2    3    3    0    0  0.99364203352E+01  0.18955870753E+02  0.27779379805E+03  0.27872914657E+03  0.79047724045E+01 0.  0.
         22    1    3    3    0    0 -0.99364203352E+01 -0.18955870753E+02  0.10538503758E+02  0.23856184660E+02  0.00000000000E+00 0. -1.
         22    1    4    4    0    0  0.80374947151E+01  0.69293780972E+01  0.12253201541E+03  0.12299070048E+03  0.00000000000E+00 0. -1.
         22    1    4    4    0    0  0.18989256200E+01  0.12026492656E+02  0.15526178264E+03  0.15573844610E+03  0.00000000000E+00 0. -1.
<mgrwt>
<rscale>  0 0.91773452E+02</rscale>
<asrwt>0</asrwt>
<pdfrwt beam="2">  1        1 0.10963866E-02 0.91773452E+02</pdfrwt>
<pdfrwt beam="1">  1       -1 0.45455213E-01 0.91773452E+02</pdfrwt>
<totfact> 0.59917395E+04</totfact>
</mgrwt>
</event>
<event>
 7    1  0.3345055E-009  0.8334200E+02  0.7818608E-02  0.1319826E+00
         -1   -1    0    0    0  501 -0.00000000000E+00  0.00000000000E+00  0.13640176299E+03  0.13640176308E+03  0.50400000000E-02 0.  1.
          1   -1    0    0  501    0  0.00000000000E+00 -0.00000000000E+00 -0.12730568708E+02  0.12730569705E+02  0.50400000000E-02 0. -1.
         23    2    1    2    0    0  0.00000000000E+00  0.00000000000E+00  0.12367119428E+03  0.14913233279E+03  0.83341996542E+02 0.  0.
    9000005    2    3    3    0    0  0.35372037272E+02  0.40854439453E+01  0.28703875055E+02  0.47709142175E+02  0.13578583538E+02 0.  0.
         22    1    3    3    0    0 -0.35372037272E+02 -0.40854439453E+01  0.94967319229E+02  0.10142319061E+03  0.00000000000E+00 0.  1.
         22    1    4    4    0    0  0.23589761597E+02  0.15260096813E+01  0.10480520806E+02  0.25858207094E+02  0.00000000000E+00 0.  1.
         22    1    4    4    0    0  0.11782275674E+02  0.25594342640E+01  0.18223354249E+02  0.21850935080E+02  0.00000000000E+00 0.  1.
<mgrwt>
<rscale>  0 0.83341997E+02</rscale>
<asrwt>0</asrwt>
<pdfrwt beam="2">  1        1 0.19585493E-02 0.83341997E+02</pdfrwt>
<pdfrwt beam="1">  1       -1 0.20984885E-01 0.83341997E+02</pdfrwt>
<totfact> 0.96392976E+04</totfact>
</mgrwt>
</event>
<event>
 7    1  0.3345055E-009  0.9208192E+02  0.7818608E-02  0.1297887E+00
         -1   -1    0    0    0  501 -0.00000000000E+00  0.00000000000E+00  0.17056464832E+03  0.17056464839E+03  0.50400000000E-02 0.  1.
          1   -1    0    0  501    0  0.00000000000E+00 -0.00000000000E+00 -0.12427954762E+02  0.12427955784E+02  0.50400000000E-02 0. -1.
         23    2    1    2    0    0  0.00000000000E+00  0.00000000000E+00  0.15813669356E+03  0.18299260418E+03  0.92081916435E+02 0.  0.
    9000005    2    3    3    0    0 -0.45892612503E+02  0.28124355536E+01  0.75250587433E+02  0.88207857173E+02  0.19833007868E+01 0.  0.
         22    1    3    3    0    0  0.45892612503E+02 -0.28124355536E+01  0.82886106124E+02  0.94784747004E+02  0.00000000000E+00 0.  1.
         22    1    4    4    0    0 -0.36695121906E+02  0.23683875530E+01  0.61644201887E+02  0.71778470711E+02  0.00000000000E+00 0.  1.
         22    1    4    4    0    0 -0.91974905970E+01  0.44404800057E+00  0.13606385545E+02  0.16429386462E+02  0.00000000000E+00 0.  1.
<mgrwt>
<rscale>  0 0.92081916E+02</rscale>
<asrwt>0</asrwt>
<pdfrwt beam="2">  1        1 0.19119931E-02 0.92081916E+02</pdfrwt>
<pdfrwt beam="1">  1       -1 0.26240716E-01 0.92081916E+02</pdfrwt>
<totfact> 0.70637259E+04</totfact>
</mgrwt>
</event>
<event>
 7    1  0.4295347E-009  0.9081134E+02  0.7818608E-02  0.1300899E+00
          1   -1    0    0  501    0  0.00000000000E+00  0.00000000000E+00  0.95242485591E+02  0.95242485724E+02  0.50400000000E-02 0. -1.
         -1   -1    0    0    0  501 -0.00000000000E+00 -0.00000000000E+00 -0.21646586204E+02  0.21646586791E+02  0.50400000000E-02 0.  1.
         23    2    1    2    0    0  0.00000000000E+00  0.00000000000E+00  0.73595899386E+02  0.11688907252E+03  0.90811336665E+02 0.  0.
    9000005    2    3    3    0    0  0.20596173124E+02 -0.20782889943E+02 -0.45160201130E+01  0.33476826235E+02  0.15626023018E+02 0.  0.
         22    1    3    3    0    0 -0.20596173124E+02  0.20782889943E+02  0.78111919499E+02  0.83412246281E+02  0.00000000000E+00 0. -1.
         22    1    4    4    0    0  0.16711362197E+02 -0.19193932031E+02  0.22136222705E+01  0.25545582335E+02  0.00000000000E+00 0. -1.
         22    1    4    4    0    0  0.38848109264E+01 -0.15889579124E+01 -0.67296423834E+01  0.79312438993E+01  0.00000000000E+00 0. -1.
<mgrwt>
<rscale>  0 0.90811337E+02</rscale>
<asrwt>0</asrwt>
<pdfrwt beam="1">  1        1 0.14652690E-01 0.90811337E+02</pdfrwt>
<pdfrwt beam="2">  1       -1 0.33302441E-02 0.90811337E+02</pdfrwt>
<totfact> 0.10475546E+05</totfact>
</mgrwt>
</event>
<event>
 7    1  0.3345055E-009  0.9042448E+02  0.7818608E-02  0.1301827E+00
          1   -1    0    0  501    0  0.00000000000E+00  0.00000000000E+00  0.44486255547E+02  0.44486255832E+02  0.50400000000E-02 0. -1.
         -1   -1    0    0    0  501 -0.00000000000E+00 -0.00000000000E+00 -0.45950076479E+02  0.45950076755E+02  0.50400000000E-02 0.  1.
         23    2    1    2    0    0 -0.17763568394E-14  0.00000000000E+00 -0.14638209323E+01  0.90436332587E+02  0.90424484959E+02 0.  0.
    9000005    2    3    3    0    0 -0.98848333341E+01  0.89575622518E+01  0.41296830294E+02  0.45643239986E+02  0.14139636223E+02 0.  0.
         22    1    3    3    0    0  0.98848333341E+01 -0.89575622518E+01 -0.42760651226E+02  0.44793092602E+02  0.00000000000E+00 0.  1.
         22    1    4    4    0    0 -0.76930914018E+01 -0.16247863583E+01  0.23928378043E+02  0.25187116981E+02  0.00000000000E+00 0. -1.
         22    1    4    4    0    0 -0.21917419323E+01  0.10582348610E+02  0.17368452251E+02  0.20456123005E+02  0.00000000000E+00 0. -1.
<mgrwt>
<rscale>  0 0.90424485E+02</rscale>
<asrwt>0</asrwt>
<pdfrwt beam="1">  1        1 0.68440393E-02 0.90424485E+02</pdfrwt>
<pdfrwt beam="2">  1       -1 0.70692426E-02 0.90424485E+02</pdfrwt>
<totfact> 0.94299947E+04</totfact>
</mgrwt>
</event>
<event>
 7    1  0.3345055E-009  0.9095297E+02  0.7818608E-02  0.1300560E+00
          1   -1    0    0  501    0  0.00000000000E+00  0.00000000000E+00  0.46753389407E+03  0.46753389410E+03  0.50400000000E-02 0. -1.
         -1   -1    0    0    0  501 -0.00000000000E+00 -0.00000000000E+00 -0.44234440800E+01  0.44234469512E+01  0.50400000000E-02 0.  1.
         23    2    1    2    0    0 -0.35527136788E-14  0.00000000000E+00  0.46311044999E+03  0.47195734105E+03  0.90952970702E+02 0.  0.
    9000005    2    3    3    0    0 -0.30326562181E+02  0.33649567208E+02  0.24990024647E+03  0.25398811242E+03  0.27989844978E+01 0.  0.
         22    1    3    3    0    0  0.30326562181E+02 -0.33649567208E+02  0.21321020352E+03  0.21796922863E+03  0.00000000000E+00 0.  1.
         22    1    4    4    0    0 -0.44980741322E+01  0.56675176716E+01  0.45315576362E+02  0.45889594556E+02  0.00000000000E+00 0. -1.
         22    1    4    4    0    0 -0.25828488049E+02  0.27982049536E+02  0.20458467011E+03  0.20809851786E+03  0.00000000000E+00 0. -1.
<mgrwt>
<rscale>  0 0.90952971E+02</rscale>
<asrwt>0</asrwt>
<pdfrwt beam="1">  1        1 0.71928296E-01 0.90952971E+02</pdfrwt>
<pdfrwt beam="2">  1       -1 0.68053004E-03 0.90952971E+02</pdfrwt>
<totfact> 0.13899064E+05</totfact>
</mgrwt>
</event>
<event>
 7    1  0.3345055E-009  0.8770810E+02  0.7818608E-02  0.1308499E+00
         -1   -1    0    0    0  501 -0.00000000000E+00  0.00000000000E+00  0.93407722996E+01  0.93407736593E+01  0.50400000000E-02 0.  1.
          1   -1    0    0  501    0  0.00000000000E+00 -0.00000000000E+00 -0.20589062227E+03  0.20589062233E+03  0.50400000000E-02 0. -1.
         23    2    1    2    0    0  0.00000000000E+00  0.00000000000E+00 -0.19654984997E+03  0.21523139599E+03  0.87708097099E+02 0.  0.
    9000005    2    3    3    0    0 -0.10125092008E+02  0.40457563810E+02 -0.69775078689E+02  0.81772883369E+02  0.88831802261E+01 0.  0.
         22    1    3    3    0    0  0.10125092008E+02 -0.40457563810E+02 -0.12677477128E+03  0.13345851262E+03  0.00000000000E+00 0. -1.
         22    1    4    4    0    0 -0.11262817259E+02  0.29056385101E+02 -0.49886583459E+02  0.58820028706E+02  0.00000000000E+00 0.  1.
         22    1    4    4    0    0  0.11377252514E+01  0.11401178709E+02 -0.19888495230E+02  0.22952854664E+02  0.00000000000E+00 0.  1.
<mgrwt>
<rscale>  0 0.87708097E+02</rscale>
<asrwt>0</asrwt>
<pdfrwt beam="2">  1        1 0.31675477E-01 0.87708097E+02</pdfrwt>
<pdfrwt beam="1">  1       -1 0.14370422E-02 0.87708097E+02</pdfrwt>
<totfact> 0.13208364E+05</totfact>
</mgrwt>
</event>
<event>
 7    1  0.3345055E-009  0.9098148E+02  0.7818608E-02  0.1300492E+00
          1   -1    0    0  501    0  0.00000000000E+00  0.00000000000E+00  0.15915935898E+03  0.15915935906E+03  0.50400000000E-02 0. -1.
         -1   -1    0    0    0  501 -0.00000000000E+00 -0.00000000000E+00 -0.13002108074E+02  0.13002109051E+02  0.50400000000E-02 0.  1.
         23    2    1    2    0    0  0.00000000000E+00  0.00000000000E+00  0.14615725090E+03  0.17216146811E+03  0.90981476739E+02 0.  0.
    9000005    2    3    3    0    0  0.14657346961E+02 -0.23208942124E+02  0.14165408041E+03  0.14434472209E+03  0.40034339284E+01 0.  0.
         22    1    3    3    0    0 -0.14657346961E+02  0.23208942124E+02  0.45031704874E+01  0.27816746016E+02  0.00000000000E+00 0.  1.
         22    1    4    4    0    0  0.37579450700E+01 -0.87093855398E+01  0.42576187025E+02  0.43620032659E+02  0.00000000000E+00 0. -1.
         22    1    4    4    0    0  0.10899401891E+02 -0.14499556584E+02  0.99077893390E+02  0.10072468943E+03  0.00000000000E+00 0. -1.
<mgrwt>
<rscale>  0 0.90981477E+02</rscale>
<asrwt>0</asrwt>
<pdfrwt beam="1">  1        1 0.24486058E-01 0.90981477E+02</pdfrwt>
<pdfrwt beam="2">  1       -1 0.20003242E-02 0.90981477E+02</pdfrwt>
<totfact> 0.11402616E+05</totfact>
</mgrwt>
</event>
<event>
 7    1  0.3345055E-009  0.9217203E+02  0.7818608E-02  0.1297675E+00
         -1   -1    0    0    0  501 -0.00000000000E+00  0.00000000000E+00  0.14628729501E+02  0.14628730369E+02  0.50400000000E-02 0.  1.
          1   -1    0    0  501    0  0.00000000000E+00 -0.00000000000E+00 -0.14518832437E+03  0.14518832446E+03  0.50400000000E-02 0. -1.
         23    2    1    2    0    0  0.00000000000E+00  0.00000000000E+00 -0.13055959487E+03  0.15981705483E+03  0.92172030471E+02 0.  0.
    9000005    2    3    3    0    0 -0.34047309444E+02  0.94181088987E+01 -0.16120568056E+02  0.40049734938E+02  0.98075735280E+01 0.  0.
         22    1    3    3    0    0  0.34047309444E+02 -0.94181088987E+01 -0.11443902681E+03  0.11976731989E+03  0.00000000000E+00 0. -1.
         22    1    4    4    0    0 -0.25228950297E+02  0.11257383319E+02 -0.11484184038E+02  0.29918474147E+02  0.00000000000E+00 0. -1.
         22    1    4    4    0    0 -0.88183591477E+01 -0.18392744200E+01 -0.46363840187E+01  0.10131260791E+02  0.00000000000E+00 0. -1.
<mgrwt>
<rscale>  0 0.92172030E+02</rscale>
<asrwt>0</asrwt>
<pdfrwt beam="2">  1        1 0.22336664E-01 0.92172030E+02</pdfrwt>
<pdfrwt beam="1">  1       -1 0.22505739E-02 0.92172030E+02</pdfrwt>
<totfact> 0.10824078E+05</totfact>
</mgrwt>
</event>
<event>
 7    1  0.3345055E-009  0.9245713E+02  0.7818608E-02  0.1297008E+00
          1   -1    0    0  501    0  0.00000000000E+00  0.00000000000E+00  0.22768767957E+02  0.22768768515E+02  0.50400000000E-02 0. -1.
         -1   -1    0    0    0  501 -0.00000000000E+00 -0.00000000000E+00 -0.93860153387E+02  0.93860153522E+02  0.50400000000E-02 0.  1.
         23    2    1    2    0    0  0.00000000000E+00  0.00000000000E+00 -0.71091385430E+02  0.11662892204E+03  0.92457127216E+02 0.  0.
    9000005    2    3    3    0    0  0.22302936913E+02 -0.35319111958E+02 -0.15158540888E+02  0.46819583385E+02  0.14745553975E+02 0.  0.
         22    1    3    3    0    0 -0.22302936913E+02  0.35319111958E+02 -0.55932844542E+02  0.69809338652E+02  0.00000000000E+00 0.  1.
         22    1    4    4    0    0  0.18976696318E+02 -0.16401236295E+02 -0.90116988285E+01  0.26651946851E+02  0.00000000000E+00 0. -1.
         22    1    4    4    0    0  0.33262405958E+01 -0.18917875662E+02 -0.61468420593E+01  0.20167636534E+02  0.00000000000E+00 0. -1.
<mgrwt>
<rscale>  0 0.92457127E+02</rscale>
<asrwt>0</asrwt>
<pdfrwt beam="1">  1        1 0.35028875E-02 0.92457127E+02</pdfrwt>
<pdfrwt beam="2">  1       -1 0.14440024E-01 0.92457127E+02</pdfrwt>
<totfact> 0.79418431E+04</totfact>
</mgrwt>
</event>
<event>
 7    1  0.3345055E-009  0.1260918E+03  0.7818608E-02  0.1233373E+00
         -1   -1    0    0    0  501 -0.00000000000E+00  0.00000000000E+00  0.46240705209E+01  0.46240732676E+01  0.50400000000E-02 0.  1.
          1   -1    0    0  501    0  0.00000000000E+00 -0.00000000000E+00 -0.85958620027E+03  0.85958620029E+03  0.50400000000E-02 0. -1.
         23    2    1    2    0    0  0.00000000000E+00 -0.71054273576E-14 -0.85496212975E+03  0.86421027356E+03  0.12609184592E+03 0.  0.
    9000005    2    3    3    0    0  0.68977096357E+00  0.61726774398E+02 -0.49450359522E+03  0.49850407238E+03  0.12721400537E+02 0.  0.
         22    1    3    3    0    0 -0.68977096357E+00 -0.61726774398E+02 -0.36045853453E+03  0.36570620118E+03  0.00000000000E+00 0.  1.
         22    1    4    4    0    0  0.29444388016E+01  0.61147908748E+01 -0.35945149834E+02  0.36580243081E+02  0.00000000000E+00 0. -1.
         22    1    4    4    0    0 -0.22546678381E+01  0.55611983524E+02 -0.45855844539E+03  0.46192382930E+03  0.00000000000E+00 0. -1.
<mgrwt>
<rscale>  0 0.12609185E+03</rscale>
<asrwt>0</asrwt>
<pdfrwt beam="2">  1        1 0.13224390E+00 0.12609185E+03</pdfrwt>
<pdfrwt beam="1">  1       -1 0.71139636E-03 0.12609185E+03</pdfrwt>
<totfact> 0.58709747E+04</totfact>
</mgrwt>
</event>
<event>
 7    1  0.3345055E-009  0.9119218E+02  0.7818608E-02  0.1299990E+00
          1   -1    0    0  501    0  0.00000000000E+00  0.00000000000E+00  0.19953408065E+03  0.19953408071E+03  0.50400000000E-02 0. -1.
         -1   -1    0    0    0  501 -0.00000000000E+00 -0.00000000000E+00 -0.10419290233E+02  0.10419291452E+02  0.50400000000E-02 0.  1.
         23    2    1    2    0    0  0.00000000000E+00  0.35527136788E-14  0.18911479042E+03  0.20995337216E+03  0.91192184583E+02 0.  0.
    9000005    2    3    3    0    0 -0.35719805915E+02 -0.25103466232E+02  0.71235128640E+02  0.84248546434E+02  0.10829841750E+02 0.  0.
         22    1    3    3    0    0  0.35719805915E+02  0.25103466232E+02  0.11787966178E+03  0.12570482573E+03  0.00000000000E+00 0. -1.
         22    1    4    4    0    0 -0.48762560873E+01  0.49174874051E+00  0.76350502288E+01  0.90726888103E+01  0.00000000000E+00 0. -1.
         22    1    4    4    0    0 -0.30843549828E+02 -0.25595214972E+02  0.63600078411E+02  0.75175857623E+02  0.00000000000E+00 0. -1.
<mgrwt>
<rscale>  0 0.91192185E+02</rscale>
<asrwt>0</asrwt>
<pdfrwt beam="1">  1        1 0.30697550E-01 0.91192185E+02</pdfrwt>
<pdfrwt beam="2">  1       -1 0.16029679E-02 0.91192185E+02</pdfrwt>
<totfact> 0.11829903E+05</totfact>
</mgrwt>
</event>
<event>
 7    1  0.3345055E-009  0.1061712E+03  0.7818608E-02  0.1267829E+00
         -1   -1    0    0    0  501 -0.00000000000E+00  0.00000000000E+00  0.69429084907E+01  0.69429103200E+01  0.50400000000E-02 0.  1.
          1   -1    0    0  501    0  0.00000000000E+00 -0.00000000000E+00 -0.40589368802E+03  0.40589368805E+03  0.50400000000E-02 0. -1.
         23    2    1    2    0    0  0.00000000000E+00  0.00000000000E+00 -0.39895077953E+03  0.41283659837E+03  0.10617124125E+03 0.  0.
    9000005    2    3    3    0    0  0.51772591694E+02  0.91871166646E+01 -0.17126071615E+03  0.17915397316E+03  0.10530146738E+01 0.  0.
         22    1    3    3    0    0 -0.51772591694E+02 -0.91871166646E+01 -0.22769006338E+03  0.23368262521E+03  0.00000000000E+00 0. -1.
         22    1    4    4    0    0  0.13571893379E+02  0.28040903739E+01 -0.44278985281E+02  0.46397066181E+02  0.00000000000E+00 0. -1.
         22    1    4    4    0    0  0.38200698316E+02  0.63830262907E+01 -0.12698173087E+03  0.13275690698E+03  0.00000000000E+00 0. -1.
<mgrwt>
<rscale>  0 0.10617124E+03</rscale>
<asrwt>0</asrwt>
<pdfrwt beam="2">  1        1 0.62445164E-01 0.10617124E+03</pdfrwt>
<pdfrwt beam="1">  1       -1 0.10681402E-02 0.10617124E+03</pdfrwt>
<totfact> 0.89968208E+04</totfact>
</mgrwt>
</event>
<event>
 7    1  0.3345055E-009  0.7650882E+02  0.7818608E-02  0.1339261E+00
          1   -1    0    0  501    0  0.00000000000E+00  0.00000000000E+00  0.25049096474E+02  0.25049096981E+02  0.50400000000E-02 0. -1.
         -1   -1    0    0    0  501 -0.00000000000E+00 -0.00000000000E+00 -0.58421263332E+02  0.58421263550E+02  0.50400000000E-02 0.  1.
         23    2    1    2    0    0  0.00000000000E+00  0.00000000000E+00 -0.33372166858E+02  0.83470360531E+02  0.76508820187E+02 0.  0.
    9000005    2    3    3    0    0 -0.73418154039E+01  0.14872573976E+02 -0.53982043070E+02  0.57015442131E+02  0.78488188518E+01 0.  0.
         22    1    3    3    0    0  0.73418154039E+01 -0.14872573976E+02  0.20609876212E+02  0.26454918400E+02  0.00000000000E+00 0. -1.
         22    1    4    4    0    0 -0.83179723601E+01  0.15004332081E+02 -0.48480807121E+02  0.51426717808E+02  0.00000000000E+00 0.  1.
         22    1    4    4    0    0  0.97615695621E+00 -0.13175810523E+00 -0.55012359489E+01  0.55887243237E+01  0.00000000000E+00 0.  1.
<mgrwt>
<rscale>  0 0.76508820E+02</rscale>
<asrwt>0</asrwt>
<pdfrwt beam="1">  1        1 0.38537072E-02 0.76508820E+02</pdfrwt>
<pdfrwt beam="2">  1       -1 0.89878867E-02 0.76508820E+02</pdfrwt>
<totfact> 0.13876597E+05</totfact>
</mgrwt>
</event>
<event>
 7    1  0.3345055E-009  0.8936817E+02  0.7818608E-02  0.1304389E+00
          1   -1    0    0  501    0  0.00000000000E+00  0.00000000000E+00  0.23571061117E+03  0.23571061123E+03  0.50400000000E-02 0. -1.
         -1   -1    0    0    0  501 -0.00000000000E+00 -0.00000000000E+00 -0.84708407439E+01  0.84708422432E+01  0.50400000000E-02 0.  1.
         23    2    1    2    0    0  0.00000000000E+00  0.00000000000E+00  0.22723977043E+03  0.24418145347E+03  0.89368165216E+02 0.  0.
    9000005    2    3    3    0    0  0.20236607940E+02  0.38346164461E+02  0.13902248754E+03  0.14588477179E+03  0.86698308716E+01 0.  0.
         22    1    3    3    0    0 -0.20236607940E+02 -0.38346164461E+02  0.88217282888E+02  0.98296681683E+02  0.00000000000E+00 0. -1.
         22    1    4    4    0    0  0.16577261454E+01  0.15343104654E+01  0.30362982402E+01  0.37843455948E+01  0.00000000000E+00 0.  1.
         22    1    4    4    0    0  0.18578881795E+02  0.36811853996E+02  0.13598618930E+03  0.14210042619E+03  0.00000000000E+00 0.  1.
<mgrwt>
<rscale>  0 0.89368165E+02</rscale>
<asrwt>0</asrwt>
<pdfrwt beam="1">  1        1 0.36263173E-01 0.89368165E+02</pdfrwt>
<pdfrwt beam="2">  1       -1 0.13032063E-02 0.89368165E+02</pdfrwt>
<totfact> 0.12897624E+05</totfact>
</mgrwt>
</event>
<event>
 7    1  0.3345055E-009  0.9007974E+02  0.7818608E-02  0.1302659E+00
          1   -1    0    0  501    0  0.00000000000E+00  0.00000000000E+00  0.13975736896E+02  0.13975737805E+02  0.50400000000E-02 0. -1.
         -1   -1    0    0    0  501 -0.00000000000E+00 -0.00000000000E+00 -0.14515082751E+03  0.14515082759E+03  0.50400000000E-02 0.  1.
         23    2    1    2    0    0  0.00000000000E+00  0.00000000000E+00 -0.13117509061E+03  0.15912656540E+03  0.90079739227E+02 0.  0.
    9000005    2    3    3    0    0  0.12994774574E+02  0.39580530398E+02 -0.39976213721E+02  0.58863323388E+02  0.11459084782E+02 0.  0.
         22    1    3    3    0    0 -0.12994774574E+02 -0.39580530398E+02 -0.91198876889E+02  0.10026324201E+03  0.00000000000E+00 0.  1.
         22    1    4    4    0    0 -0.14198238932E+01  0.10231707703E+02 -0.11973146173E+02  0.15813284659E+02  0.00000000000E+00 0.  1.
         22    1    4    4    0    0  0.14414598467E+02  0.29348822694E+02 -0.28003067548E+02  0.43050038729E+02  0.00000000000E+00 0.  1.
<mgrwt>
<rscale>  0 0.90079739E+02</rscale>
<asrwt>0</asrwt>
<pdfrwt beam="1">  1        1 0.21501135E-02 0.90079739E+02</pdfrwt>
<pdfrwt beam="2">  1       -1 0.22330896E-01 0.90079739E+02</pdfrwt>
<totfact> 0.77761858E+04</totfact>
</mgrwt>
</event>
<event>
 7    1  0.3345055E-009  0.9087209E+02  0.7818608E-02  0.1300753E+00
         -1   -1    0    0    0  501 -0.00000000000E+00  0.00000000000E+00  0.32210423378E+02  0.32210423772E+02  0.50400000000E-02 0.  1.
          1   -1    0    0  501    0  0.00000000000E+00 -0.00000000000E+00 -0.64092118390E+02  0.64092118588E+02  0.50400000000E-02 0. -1.
         23    2    1    2    0    0  0.00000000000E+00  0.00000000000E+00 -0.31881695012E+02  0.96302542360E+02  0.90872092461E+02 0.  0.
    9000005    2    3    3    0    0  0.14214331777E+02  0.38785707872E+02 -0.34464211855E+02  0.54913561263E+02  0.11015395989E+02 0.  0.
         22    1    3    3    0    0 -0.14214331777E+02 -0.38785707872E+02  0.25825168431E+01  0.41388981097E+02  0.00000000000E+00 0.  1.
         22    1    4    4    0    0  0.98809352646E+00  0.16949734380E+02 -0.10934871871E+02  0.20195079777E+02  0.00000000000E+00 0.  1.
         22    1    4    4    0    0  0.13226238251E+02  0.21835973492E+02 -0.23529339983E+02  0.34718481486E+02  0.00000000000E+00 0.  1.
<mgrwt>
<rscale>  0 0.90872092E+02</rscale>
<asrwt>0</asrwt>
<pdfrwt beam="2">  1        1 0.98603259E-02 0.90872092E+02</pdfrwt>
<pdfrwt beam="1">  1       -1 0.49554498E-02 0.90872092E+02</pdfrwt>
<totfact> 0.98247376E+04</totfact>
</mgrwt>
</event>
<event>
 7    1  0.3345055E-009  0.9274683E+02  0.7818608E-02  0.1296333E+00
          1   -1    0    0  501    0  0.00000000000E+00  0.00000000000E+00  0.15654599136E+02  0.15654599948E+02  0.50400000000E-02 0. -1.
         -1   -1    0    0    0  501 -0.00000000000E+00 -0.00000000000E+00 -0.13737135711E+03  0.13737135721E+03  0.50400000000E-02 0.  1.
         23    2    1    2    0    0  0.00000000000E+00  0.20816681712E-16 -0.12171675798E+03  0.15302595715E+03  0.92746829543E+02 0.  0.
    9000005    2    3    3    0    0  0.43416415351E+02 -0.44392010252E-01 -0.86095904656E+02  0.96866966031E+02  0.92583592982E+01 0.  0.
         22    1    3    3    0    0 -0.43416415351E+02  0.44392010252E-01 -0.35620853321E+02  0.56158991122E+02  0.00000000000E+00 0. -1.
         22    1    4    4    0    0  0.42308879578E+02 -0.73435001444E+00 -0.78679937915E+02  0.89337076242E+02  0.00000000000E+00 0.  1.
         22    1    4    4    0    0  0.11075357733E+01  0.68995800419E+00 -0.74159667404E+01  0.75298897888E+01  0.00000000000E+00 0.  1.
<mgrwt>
<rscale>  0 0.92746830E+02</rscale>
<asrwt>0</asrwt>
<pdfrwt beam="1">  1        1 0.24084000E-02 0.92746830E+02</pdfrwt>
<pdfrwt beam="2">  1       -1 0.21134054E-01 0.92746830E+02</pdfrwt>
<totfact> 0.72995035E+04</totfact>
</mgrwt>
</event>
<event>
 7    1  0.3345055E-009  0.9503399E+02  0.7818608E-02  0.1291100E+00
         -1   -1    0    0    0  501 -0.00000000000E+00  0.00000000000E+00  0.10586523964E+02  0.10586525164E+02  0.50400000000E-02 0.  1.
          1   -1    0    0  501    0  0.00000000000E+00 -0.00000000000E+00 -0.21327723101E+03  0.21327723107E+03  0.50400000000E-02 0. -1.
         23    2    1    2    0    0  0.00000000000E+00  0.00000000000E+00 -0.20269070704E+03  0.22386375623E+03  0.95033986719E+02 0.  0.
    9000005    2    3    3    0    0 -0.32556321612E+02  0.14803687189E+02 -0.17414696886E+03  0.17810560700E+03  0.10741380299E+02 0.  0.
         22    1    3    3    0    0  0.32556321612E+02 -0.14803687189E+02 -0.28543738180E+02  0.45758149226E+02  0.00000000000E+00 0.  1.
         22    1    4    4    0    0 -0.32284083428E+02  0.15403812955E+02 -0.17360639937E+03  0.17725326908E+03  0.00000000000E+00 0.  1.
         22    1    4    4    0    0 -0.27223818439E+00 -0.60012576594E+00 -0.54056949222E+00  0.85233792589E+00  0.00000000000E+00 0.  1.
<mgrwt>
<rscale>  0 0.95033987E+02</rscale>
<asrwt>0</asrwt>
<pdfrwt beam="2">  1        1 0.32811879E-01 0.95033987E+02</pdfrwt>
<pdfrwt beam="1">  1       -1 0.16286963E-02 0.95033987E+02</pdfrwt>
<totfact> 0.10726485E+05</totfact>
</mgrwt>
</event>
<event>
 7    1  0.3345055E-009  0.9095863E+02  0.7818608E-02  0.1300547E+00
         -1   -1    0    0    0  501 -0.00000000000E+00  0.00000000000E+00  0.29526498990E+03  0.29526498994E+03  0.50400000000E-02 0.  1.
          1   -1    0    0  501    0  0.00000000000E+00 -0.00000000000E+00 -0.70051241352E+01  0.70051259482E+01  0.50400000000E-02 0. -1.
         23    2    1    2    0    0  0.35527136788E-14  0.00000000000E+00  0.28825986576E+03  0.30227011589E+03  0.90958632081E+02 0.  0.
    9000005    2    3    3    0    0 -0.25039615763E+02 -0.37547413449E+02  0.12686796391E+03  0.13468689299E+03  0.28789341574E+01 0.  0.
         22    1    3    3    0    0  0.25039615763E+02  0.37547413449E+02  0.16139190185E+03  0.16758322290E+03  0.00000000000E+00 0. -1.
         22    1    4    4    0    0 -0.19574623789E+02 -0.27408532751E+02  0.92599515855E+02  0.98534582257E+02  0.00000000000E+00 0. -1.
         22    1    4    4    0    0 -0.54649919740E+01 -0.10138880698E+02  0.34268448059E+02  0.36152310735E+02  0.00000000000E+00 0. -1.
<mgrwt>
<rscale>  0 0.90958632E+02</rscale>
<asrwt>0</asrwt>
<pdfrwt beam="2">  1        1 0.10777118E-02 0.90958632E+02</pdfrwt>
<pdfrwt beam="1">  1       -1 0.45425371E-01 0.90958632E+02</pdfrwt>
<totfact> 0.61347797E+04</totfact>
</mgrwt>
</event>
<event>
 7    1  0.3345055E-009  0.9903719E+02  0.7818608E-02  0.1282334E+00
          1   -1    0    0  501    0  0.00000000000E+00  0.00000000000E+00  0.17685396574E+04  0.17685396574E+04  0.50400000000E-02 0. -1.
         -1   -1    0    0    0  501 -0.00000000000E+00 -0.00000000000E+00 -0.13865017111E+01  0.13865108714E+01  0.50400000000E-02 0.  1.
         23    2    1    2    0    0  0.17763568394E-14  0.00000000000E+00  0.17671531557E+04  0.17699261683E+04  0.99037192488E+02 0.  0.
    9000005    2    3    3    0    0  0.13620403636E+02 -0.23170165815E+02  0.16233469044E+04  0.16236298598E+04  0.14013474533E+02 0.  0.
         22    1    3    3    0    0 -0.13620403636E+02  0.23170165815E+02  0.14380625127E+03  0.14629630850E+03  0.00000000000E+00 0.  1.
         22    1    4    4    0    0 -0.28196137556E+00 -0.12550877192E+02  0.78575486511E+03  0.78585514700E+03  0.00000000000E+00 0. -1.
         22    1    4    4    0    0  0.13902365012E+02 -0.10619288623E+02  0.83759203930E+03  0.83777471277E+03  0.00000000000E+00 0. -1.
<mgrwt>
<rscale>  0 0.99037192E+02</rscale>
<asrwt>0</asrwt>
<pdfrwt beam="1">  1        1 0.27208235E+00 0.99037192E+02</pdfrwt>
<pdfrwt beam="2">  1       -1 0.21330919E-03 0.99037192E+02</pdfrwt>
<totfact> 0.75377144E+04</totfact>
</mgrwt>
</event>
<event>
 7    1  0.3345055E-009  0.9116580E+02  0.7818608E-02  0.1300053E+00
          1   -1    0    0  501    0  0.00000000000E+00  0.00000000000E+00  0.17837361250E+02  0.17837361962E+02  0.50400000000E-02 0. -1.
         -1   -1    0    0    0  501 -0.00000000000E+00 -0.00000000000E+00 -0.11648588274E+03  0.11648588285E+03  0.50400000000E-02 0.  1.
         23    2    1    2    0    0  0.00000000000E+00  0.00000000000E+00 -0.98648521486E+02  0.13432324481E+03  0.91165801177E+02 0.  0.
    9000005    2    3    3    0    0 -0.11707593500E+02 -0.20206131815E+02 -0.10658013708E+03  0.10966019483E+03  0.10985317520E+02 0.  0.
         22    1    3    3    0    0  0.11707593500E+02  0.20206131815E+02  0.79316155934E+01  0.24663049981E+02  0.00000000000E+00 0. -1.
         22    1    4    4    0    0 -0.57852194381E+00 -0.11670378124E+02 -0.53213736307E+02  0.54481502778E+02  0.00000000000E+00 0.  1.
         22    1    4    4    0    0 -0.11129071556E+02 -0.85357536910E+01 -0.53366400772E+02  0.55178692048E+02  0.00000000000E+00 0.  1.
<mgrwt>
<rscale>  0 0.91165801E+02</rscale>
<asrwt>0</asrwt>
<pdfrwt beam="1">  1        1 0.27442096E-02 0.91165801E+02</pdfrwt>
<pdfrwt beam="2">  1       -1 0.17920905E-01 0.91165801E+02</pdfrwt>
<totfact> 0.79030274E+04</totfact>
</mgrwt>
</event>
<event>
 7    1  0.3345055E-009  0.9056421E+02  0.7818608E-02  0.1301491E+00
          1   -1    0    0  501    0  0.00000000000E+00  0.00000000000E+00  0.33958439879E+03  0.33958439883E+03  0.50400000000E-02 0. -1.
         -1   -1    0    0    0  501 -0.00000000000E+00 -0.00000000000E+00 -0.60381711576E+01  0.60381732610E+01  0.50400000000E-02 0.  1.
         23    2    1    2    0    0  0.00000000000E+00  0.00000000000E+00  0.33354622764E+03  0.34562257209E+03  0.90564211305E+02 0.  0.
    9000005    2    3    3    0    0 -0.36126879335E+02 -0.24939400825E+02  0.18664330439E+03  0.19230070809E+03  0.14721213698E+02 0.  0.
         22    1    3    3    0    0  0.36126879335E+02  0.24939400825E+02  0.14690292325E+03  0.15332186401E+03  0.00000000000E+00 0. -1.
         22    1    4    4    0    0 -0.22187213259E+02 -0.86591201830E+01  0.11836890513E+03  0.12074125433E+03  0.00000000000E+00 0.  1.
         22    1    4    4    0    0 -0.13939666076E+02 -0.16280280642E+02  0.68274399257E+02  0.71559453757E+02  0.00000000000E+00 0.  1.
<mgrwt>
<rscale>  0 0.90564211E+02</rscale>
<asrwt>0</asrwt>
<pdfrwt beam="1">  1        1 0.52243762E-01 0.90564211E+02</pdfrwt>
<pdfrwt beam="2">  1       -1 0.92894942E-03 0.90564211E+02</pdfrwt>
<totfact> 0.13348847E+05</totfact>
</mgrwt>
</event>
<event>
 7    1  0.3345055E-009  0.9544384E+02  0.7818608E-02  0.1290180E+00
          1   -1    0    0  501    0  0.00000000000E+00  0.00000000000E+00  0.88706959635E+02  0.88706959778E+02  0.50400000000E-02 0. -1.
         -1   -1    0    0    0  501 -0.00000000000E+00 -0.00000000000E+00 -0.25673090555E+02  0.25673091050E+02  0.50400000000E-02 0.  1.
         23    2    1    2    0    0  0.00000000000E+00  0.00000000000E+00  0.63033869080E+02  0.11438005083E+03  0.95443844099E+02 0.  0.
    9000005    2    3    3    0    0  0.19810266936E+02 -0.34201203028E+02  0.24717680185E+01  0.42061747132E+02  0.14174341960E+02 0.  0.
         22    1    3    3    0    0 -0.19810266936E+02  0.34201203028E+02  0.60562101061E+02  0.72318303697E+02  0.00000000000E+00 0. -1.
         22    1    4    4    0    0  0.51208954541E+01 -0.25272625869E+01 -0.34161143009E+01  0.66543567196E+01  0.00000000000E+00 0. -1.
         22    1    4    4    0    0  0.14689371482E+02 -0.31673940441E+02  0.58878823194E+01  0.35407390412E+02  0.00000000000E+00 0. -1.
<mgrwt>
<rscale>  0 0.95443844E+02</rscale>
<asrwt>0</asrwt>
<pdfrwt beam="1">  1        1 0.13647225E-01 0.95443844E+02</pdfrwt>
<pdfrwt beam="2">  1       -1 0.39497063E-02 0.95443844E+02</pdfrwt>
<totfact> 0.90329822E+04</totfact>
</mgrwt>
</event>
<event>
 7    1  0.3345055E-009  0.9115453E+02  0.7818608E-02  0.1300080E+00
         -1   -1    0    0    0  501 -0.00000000000E+00  0.00000000000E+00  0.12940248127E+02  0.12940249108E+02  0.50400000000E-02 0.  1.
          1   -1    0    0  501    0  0.00000000000E+00 -0.00000000000E+00 -0.16052915572E+03  0.16052915580E+03  0.50400000000E-02 0. -1.
         23    2    1    2    0    0  0.00000000000E+00  0.71054273576E-14 -0.14758890760E+03  0.17346940491E+03  0.91154532495E+02 0.  0.
    9000005    2    3    3    0    0  0.12435384820E+02  0.33722990443E+02 -0.12510244813E+03  0.13107223827E+03  0.15408771392E+02 0.  0.
         22    1    3    3    0    0 -0.12435384820E+02 -0.33722990443E+02 -0.22486459463E+02  0.42397166641E+02  0.00000000000E+00 0.  1.
         22    1    4    4    0    0  0.10479863362E+02  0.30308988641E+02 -0.86216424102E+02  0.91987684576E+02  0.00000000000E+00 0. -1.
         22    1    4    4    0    0  0.19555214580E+01  0.34140018015E+01 -0.38886024030E+02  0.39084553693E+02  0.00000000000E+00 0. -1.
<mgrwt>
<rscale>  0 0.91154532E+02</rscale>
<asrwt>0</asrwt>
<pdfrwt beam="2">  1        1 0.24696792E-01 0.91154532E+02</pdfrwt>
<pdfrwt beam="1">  1       -1 0.19908076E-02 0.91154532E+02</pdfrwt>
<totfact> 0.11362483E+05</totfact>
</mgrwt>
</event>
<event>
 6    1  0.3345055E-009  0.2295946E+03  0.7818608E-02  0.1126925E+00
          1   -1    0    0  501    0  0.00000000000E+00  0.00000000000E+00  0.66090411736E+02  0.66090411929E+02  0.50400000000E-02 0. -1.
         -1   -1    0    0    0  501 -0.00000000000E+00 -0.00000000000E+00 -0.19939981502E+03  0.19939981508E+03  0.50400000000E-02 0.  1.
    9000005    2    1    2    0    0  0.72987110478E+02  0.36931578537E+02  0.25855024347E+02  0.86536672110E+02  0.11360173707E+02 0.  0.
         22    1    1    2    0    0 -0.72987110478E+02 -0.36931578537E+02 -0.15916442763E+03  0.17895355490E+03  0.00000000000E+00 0.  1.
         22    1    3    3    0    0  0.42279739377E+02  0.24099795688E+02  0.10045729162E+02  0.49691983140E+02  0.00000000000E+00 0. -1.
         22    1    3    3    0    0  0.30707371101E+02  0.12831782849E+02  0.15809295185E+02  0.36844688970E+02  0.00000000000E+00 0. -1.
<mgrwt>
<rscale>  0 0.22959456E+03</rscale>
<asrwt>0</asrwt>
<pdfrwt beam="1">  1        1 0.10167756E-01 0.22959456E+03</pdfrwt>
<pdfrwt beam="2">  1       -1 0.30676894E-01 0.22959456E+03</pdfrwt>
<totfact> 0.60634275E+03</totfact>
</mgrwt>
</event>
<event>
 7    1  0.3345055E-009  0.9385161E+02  0.7818608E-02  0.1293784E+00
          1   -1    0    0  501    0  0.00000000000E+00  0.00000000000E+00  0.32577396433E+03  0.32577396437E+03  0.50400000000E-02 0. -1.
         -1   -1    0    0    0  501 -0.00000000000E+00 -0.00000000000E+00 -0.67593826752E+01  0.67593845542E+01  0.50400000000E-02 0.  1.
         23    2    1    2    0    0  0.00000000000E+00  0.00000000000E+00  0.31901458165E+03  0.33253334892E+03  0.93851610735E+02 0.  0.
    9000005    2    3    3    0    0 -0.38481220852E+02  0.85986690481E+01  0.24530905551E+03  0.24894360044E+03  0.15544838873E+02 0.  0.
         22    1    3    3    0    0  0.38481220852E+02 -0.85986690481E+01  0.73705526144E+02  0.83589748485E+02  0.00000000000E+00 0.  1.
         22    1    4    4    0    0 -0.42797055666E+01  0.54080077457E+01  0.67158156253E+02  0.67511335188E+02  0.00000000000E+00 0. -1.
         22    1    4    4    0    0 -0.34201515286E+02  0.31906613024E+01  0.17815089926E+03  0.18143226525E+03  0.00000000000E+00 0. -1.
<mgrwt>
<rscale>  0 0.93851611E+02</rscale>
<asrwt>0</asrwt>
<pdfrwt beam="1">  1        1 0.50119063E-01 0.93851611E+02</pdfrwt>
<pdfrwt beam="2">  1       -1 0.10399054E-02 0.93851611E+02</pdfrwt>
<totfact> 0.12046551E+05</totfact>
</mgrwt>
</event>
<event>
 7    1  0.3345055E-009  0.9534644E+02  0.7818608E-02  0.1290398E+00
         -1   -1    0    0    0  501 -0.00000000000E+00  0.00000000000E+00  0.46528465249E+03  0.46528465252E+03  0.50400000000E-02 0. -1.
          1   -1    0    0  501    0  0.00000000000E+00 -0.00000000000E+00 -0.48846130381E+01  0.48846156383E+01  0.50400000000E-02 0.  1.
         23    2    1    2    0    0  0.00000000000E+00  0.00000000000E+00  0.46040003946E+03  0.47016926816E+03  0.95346444038E+02 0.  0.
    9000005    2    3    3    0    0 -0.22286331188E+02 -0.88984908940E+01  0.43261159563E+03  0.43345331375E+03  0.12374119346E+02 0.  0.
         22    1    3    3    0    0  0.22286331188E+02  0.88984908940E+01  0.27788443831E+02  0.36715954414E+02  0.00000000000E+00 0.  1.
         22    1    4    4    0    0 -0.11950945911E+02  0.18356075429E+01  0.18870668713E+03  0.18909364963E+03  0.00000000000E+00 0. -1.
         22    1    4    4    0    0 -0.10335385277E+02 -0.10734098437E+02  0.24390490849E+03  0.24435966411E+03  0.00000000000E+00 0. -1.
<mgrwt>
<rscale>  0 0.95346444E+02</rscale>
<asrwt>0</asrwt>
<pdfrwt beam="2">  1        1 0.75147920E-03 0.95346444E+02</pdfrwt>
<pdfrwt beam="1">  1       -1 0.71582248E-01 0.95346444E+02</pdfrwt>
<totfact> 0.43664023E+04</totfact>
</mgrwt>
</event>
<event>
 7    1  0.3345055E-009  0.9097755E+02  0.7818608E-02  0.1300502E+00
          1   -1    0    0  501    0  0.00000000000E+00  0.00000000000E+00  0.32755139139E+03  0.32755139143E+03  0.50400000000E-02 0. -1.
         -1   -1    0    0    0  501 -0.00000000000E+00 -0.00000000000E+00 -0.63172634113E+01  0.63172654217E+01  0.50400000000E-02 0.  1.
         23    2    1    2    0    0  0.35527136788E-14  0.00000000000E+00  0.32123412798E+03  0.33386865685E+03  0.90977552445E+02 0.  0.
    9000005    2    3    3    0    0  0.23546465575E+02  0.37378304629E+02  0.17471161538E+03  0.18083133984E+03  0.14975019983E+02 0.  0.
         22    1    3    3    0    0 -0.23546465575E+02 -0.37378304629E+02  0.14652251260E+03  0.15303731701E+03  0.00000000000E+00 0. -1.
         22    1    4    4    0    0 -0.17619181683E+01  0.13470521086E+01  0.45011538250E+01  0.50178970467E+01  0.00000000000E+00 0.  1.
         22    1    4    4    0    0  0.25308383743E+02  0.36031252520E+02  0.17021046155E+03  0.17581344279E+03  0.00000000000E+00 0.  1.
<mgrwt>
<rscale>  0 0.90977552E+02</rscale>
<asrwt>0</asrwt>
<pdfrwt beam="1">  1        1 0.50392533E-01 0.90977552E+02</pdfrwt>
<pdfrwt beam="2">  1       -1 0.97188663E-03 0.90977552E+02</pdfrwt>
<totfact> 0.13101491E+05</totfact>
</mgrwt>
</event>
<event>
 7    1  0.3345055E-009  0.9083263E+02  0.7818608E-02  0.1300848E+00
         -1   -1    0    0    0  501 -0.00000000000E+00  0.00000000000E+00  0.97298799572E+02  0.97298799702E+02  0.50400000000E-02 0.  1.
          1   -1    0    0  501    0  0.00000000000E+00 -0.00000000000E+00 -0.21199043017E+02  0.21199043616E+02  0.50400000000E-02 0. -1.
         23    2    1    2    0    0  0.00000000000E+00  0.00000000000E+00  0.76099756554E+02  0.11849784332E+03  0.90832625876E+02 0.  0.
    9000005    2    3    3    0    0 -0.40290115561E+02 -0.96363959267E+01  0.17056275008E+02  0.46370967249E+02  0.11966476009E+02 0.  0.
         22    1    3    3    0    0  0.40290115561E+02  0.96363959267E+01  0.59043481547E+02  0.72126876069E+02  0.00000000000E+00 0.  1.
         22    1    4    4    0    0 -0.37084719336E+02 -0.98573374210E+01  0.18783536021E+02  0.42723117100E+02  0.00000000000E+00 0. -1.
         22    1    4    4    0    0 -0.32053962250E+01  0.22094149429E+00 -0.17272610132E+01  0.36478501492E+01  0.00000000000E+00 0. -1.
<mgrwt>
<rscale>  0 0.90832626E+02</rscale>
<asrwt>0</asrwt>
<pdfrwt beam="2">  1        1 0.32613913E-02 0.90832626E+02</pdfrwt>
<pdfrwt beam="1">  1       -1 0.14969046E-01 0.90832626E+02</pdfrwt>
<totfact> 0.82583119E+04</totfact>
</mgrwt>
</event>
<event>
 7    1  0.3345055E-009  0.8644400E+02  0.7818608E-02  0.1311699E+00
         -1   -1    0    0    0  501 -0.00000000000E+00  0.00000000000E+00  0.38138908544E+01  0.38138941845E+01  0.50400000000E-02 0.  1.
          1   -1    0    0  501    0  0.00000000000E+00 -0.00000000000E+00 -0.48982533637E+03  0.48982533640E+03  0.50400000000E-02 0. -1.
         23    2    1    2    0    0  0.00000000000E+00  0.00000000000E+00 -0.48601144552E+03  0.49363923058E+03  0.86443998033E+02 0.  0.
    9000005    2    3    3    0    0 -0.30290077050E+02  0.16046200326E+02 -0.38792645679E+03  0.38973718861E+03  0.15269937606E+02 0.  0.
         22    1    3    3    0    0  0.30290077050E+02 -0.16046200326E+02 -0.98084988727E+02  0.10390204197E+03  0.00000000000E+00 0.  1.
         22    1    4    4    0    0 -0.10204625043E+02 -0.20980035940E+01 -0.11604377413E+03  0.11651048668E+03  0.00000000000E+00 0.  1.
         22    1    4    4    0    0 -0.20085452007E+02  0.18144203920E+02 -0.27188268266E+03  0.27322670193E+03  0.00000000000E+00 0.  1.
<mgrwt>
<rscale>  0 0.86443998E+02</rscale>
<asrwt>0</asrwt>
<pdfrwt beam="2">  1        1 0.75357694E-01 0.86443998E+02</pdfrwt>
<pdfrwt beam="1">  1       -1 0.58675309E-03 0.86443998E+02</pdfrwt>
<totfact> 0.15993338E+05</totfact>
</mgrwt>
</event>
<event>
 7    1  0.3345055E-009  0.9186526E+02  0.7818608E-02  0.1298397E+00
         -1   -1    0    0    0  501 -0.00000000000E+00  0.00000000000E+00  0.22247310989E+02  0.22247311560E+02  0.50400000000E-02 0.  1.
          1   -1    0    0  501    0  0.00000000000E+00 -0.00000000000E+00 -0.94834231603E+02  0.94834231737E+02  0.50400000000E-02 0. -1.
         23    2    1    2    0    0 -0.35527136788E-14  0.00000000000E+00 -0.72586920614E+02  0.11708154330E+03  0.91865264037E+02 0.  0.
    9000005    2    3    3    0    0 -0.18089024065E+02 -0.38664767504E+02 -0.21012659350E+02  0.50133194081E+02  0.15799628416E+02 0.  0.
         22    1    3    3    0    0  0.18089024065E+02  0.38664767504E+02 -0.51574261264E+02  0.66948349216E+02  0.00000000000E+00 0. -1.
         22    1    4    4    0    0 -0.10997240565E+02 -0.15949643957E+02 -0.17446051573E+02  0.26070963885E+02  0.00000000000E+00 0. -1.
         22    1    4    4    0    0 -0.70917834996E+01 -0.22715123548E+02 -0.35666077763E+01  0.24062230196E+02  0.00000000000E+00 0. -1.
<mgrwt>
<rscale>  0 0.91865264E+02</rscale>
<asrwt>0</asrwt>
<pdfrwt beam="2">  1        1 0.14589882E-01 0.91865264E+02</pdfrwt>
<pdfrwt beam="1">  1       -1 0.34226633E-02 0.91865264E+02</pdfrwt>
<totfact> 0.10143272E+05</totfact>
</mgrwt>
</event>
<event>
 7    1  0.3345055E-009  0.8924857E+02  0.7818608E-02  0.1304682E+00
          1   -1    0    0  501    0  0.00000000000E+00  0.00000000000E+00  0.80155779286E+01  0.80155795131E+01  0.50400000000E-02 0. -1.
         -1   -1    0    0    0  501 -0.00000000000E+00 -0.00000000000E+00 -0.24843207491E+03  0.24843207496E+03  0.50400000000E-02 0.  1.
         23    2    1    2    0    0  0.00000000000E+00  0.00000000000E+00 -0.24041649698E+03  0.25644765447E+03  0.89248571219E+02 0.  0.
    9000005    2    3    3    0    0  0.36329296272E+02  0.24559204552E+01 -0.55428609809E+02  0.67910210677E+02  0.14615629168E+02 0.  0.
         22    1    3    3    0    0 -0.36329296272E+02 -0.24559204552E+01 -0.18498788717E+03  0.18853744380E+03  0.00000000000E+00 0.  1.
         22    1    4    4    0    0  0.15473691847E+02  0.33872122924E+01 -0.12512771557E+02  0.20186079325E+02  0.00000000000E+00 0. -1.
         22    1    4    4    0    0  0.20855604425E+02 -0.93129183716E+00 -0.42915838252E+02  0.47724131352E+02  0.00000000000E+00 0. -1.
<mgrwt>
<rscale>  0 0.89248571E+02</rscale>
<asrwt>0</asrwt>
<pdfrwt beam="1">  1        1 0.12331662E-02 0.89248571E+02</pdfrwt>
<pdfrwt beam="2">  1       -1 0.38220313E-01 0.89248571E+02</pdfrwt>
<totfact> 0.68623187E+04</totfact>
</mgrwt>
</event>
<event>
 7    1  0.3345055E-009  0.9082885E+02  0.7818608E-02  0.1300857E+00
          1   -1    0    0  501    0  0.00000000000E+00  0.00000000000E+00  0.80139290855E+02  0.80139291014E+02  0.50400000000E-02 0. -1.
         -1   -1    0    0    0  501 -0.00000000000E+00 -0.00000000000E+00 -0.25736063056E+02  0.25736063549E+02  0.50400000000E-02 0.  1.
         23    2    1    2    0    0  0.00000000000E+00 -0.11102230246E-15  0.54403227799E+02  0.10587535456E+03  0.90828847339E+02 0.  0.
    9000005    2    3    3    0    0  0.25921906881E+02 -0.89825786080E+00 -0.15472283596E+02  0.31341206575E+02  0.83742191502E+01 0.  0.
         22    1    3    3    0    0 -0.25921906881E+02  0.89825786080E+00  0.69875511395E+02  0.74534147988E+02  0.00000000000E+00 0. -1.
         22    1    4    4    0    0  0.62624262689E+01 -0.16219999060E+01 -0.80208394101E+01  0.10304500537E+02  0.00000000000E+00 0. -1.
         22    1    4    4    0    0  0.19659480613E+02  0.72374204517E+00 -0.74514441855E+01  0.21036706039E+02  0.00000000000E+00 0. -1.
<mgrwt>
<rscale>  0 0.90828847E+02</rscale>
<asrwt>0</asrwt>
<pdfrwt beam="1">  1        1 0.12329121E-01 0.90828847E+02</pdfrwt>
<pdfrwt beam="2">  1       -1 0.39593945E-02 0.90828847E+02</pdfrwt>
<totfact> 0.10183459E+05</totfact>
</mgrwt>
</event>
<event>
 7    1  0.3345055E-009  0.9385847E+02  0.7818608E-02  0.1293768E+00
         -1   -1    0    0    0  501 -0.00000000000E+00  0.00000000000E+00  0.57989260681E+03  0.57989260684E+03  0.50400000000E-02 0.  1.
          1   -1    0    0  501    0  0.00000000000E+00 -0.00000000000E+00 -0.37978616928E+01  0.37978650370E+01  0.50400000000E-02 0. -1.
         23    2    1    2    0    0  0.00000000000E+00  0.00000000000E+00  0.57609474512E+03  0.58369047187E+03  0.93858465782E+02 0.  0.
    9000005    2    3    3    0    0 -0.88608309345E+01  0.36127920815E+02  0.46483336310E+03  0.46637535726E+03  0.72233940765E+01 0.  0.
         22    1    3    3    0    0  0.88608309345E+01 -0.36127920815E+02  0.11126138202E+03  0.11731511461E+03  0.00000000000E+00 0.  1.
         22    1    4    4    0    0 -0.71434701574E+01  0.16270968465E+02  0.24266080475E+03  0.24331058288E+03  0.00000000000E+00 0.  1.
         22    1    4    4    0    0 -0.17173607771E+01  0.19856952350E+02  0.22217255835E+03  0.22306477438E+03  0.00000000000E+00 0.  1.
<mgrwt>
<rscale>  0 0.93858466E+02</rscale>
<asrwt>0</asrwt>
<pdfrwt beam="2">  1        1 0.58428673E-03 0.93858466E+02</pdfrwt>
<pdfrwt beam="1">  1       -1 0.89214239E-01 0.93858466E+02</pdfrwt>
<totfact> 0.39520495E+04</totfact>
</mgrwt>
</event>
<event>
 7    1  0.3345055E-009  0.9069313E+02  0.7818608E-02  0.1301182E+00
          1   -1    0    0  501    0  0.00000000000E+00  0.00000000000E+00  0.78075098610E+02  0.78075098773E+02  0.50400000000E-02 0. -1.
         -1   -1    0    0    0  501 -0.00000000000E+00 -0.00000000000E+00 -0.26337601292E+02  0.26337601774E+02  0.50400000000E-02 0.  1.
         23    2    1    2    0    0  0.00000000000E+00  0.00000000000E+00  0.51737497318E+02  0.10441270055E+03  0.90693127672E+02 0.  0.
    9000005    2    3    3    0    0 -0.98203342111E+01 -0.41637298191E+02  0.86924216977E+01  0.43725122742E+02  0.24949146645E+01 0.  0.
         22    1    3    3    0    0  0.98203342111E+01  0.41637298191E+02  0.43045075620E+02  0.60687577805E+02  0.00000000000E+00 0.  1.
         22    1    4    4    0    0 -0.29974351872E+01 -0.12445282264E+02  0.37714438965E+01  0.13345166069E+02  0.00000000000E+00 0. -1.
         22    1    4    4    0    0 -0.68228990239E+01 -0.29192015927E+02  0.49209778012E+01  0.30379956674E+02  0.00000000000E+00 0. -1.
<mgrwt>
<rscale>  0 0.90693128E+02</rscale>
<asrwt>0</asrwt>
<pdfrwt beam="1">  1        1 0.12011554E-01 0.90693128E+02</pdfrwt>
<pdfrwt beam="2">  1       -1 0.40519387E-02 0.90693128E+02</pdfrwt>
<totfact> 0.10183463E+05</totfact>
</mgrwt>
</event>
<event>
 7    1  0.3345055E-009  0.9126892E+02  0.7818608E-02  0.1299808E+00
         -1   -1    0    0    0  501 -0.00000000000E+00  0.00000000000E+00  0.19224999760E+02  0.19225000421E+02  0.50400000000E-02 0.  1.
          1   -1    0    0  501    0  0.00000000000E+00 -0.00000000000E+00 -0.10832270734E+03  0.10832270746E+03  0.50400000000E-02 0. -1.
         23    2    1    2    0    0  0.00000000000E+00  0.00000000000E+00 -0.89097707579E+02  0.12754770788E+03  0.91268922909E+02 0.  0.
    9000005    2    3    3    0    0  0.34437661501E+02  0.27074997531E+02 -0.33883669431E+02  0.57066518688E+02  0.13765045589E+02 0.  0.
         22    1    3    3    0    0 -0.34437661501E+02 -0.27074997531E+02 -0.55214038149E+02  0.70481189190E+02  0.00000000000E+00 0.  1.
         22    1    4    4    0    0  0.17935536251E+02  0.18952304652E+02 -0.12724844333E+02  0.29030931359E+02  0.00000000000E+00 0.  1.
         22    1    4    4    0    0  0.16502125250E+02  0.81226928785E+01 -0.21158825098E+02  0.28035587329E+02  0.00000000000E+00 0.  1.
<mgrwt>
<rscale>  0 0.91268923E+02</rscale>
<asrwt>0</asrwt>
<pdfrwt beam="2">  1        1 0.16665032E-01 0.91268923E+02</pdfrwt>
<pdfrwt beam="1">  1       -1 0.29576924E-02 0.91268923E+02</pdfrwt>
<totfact> 0.10557261E+05</totfact>
</mgrwt>
</event>
<event>
 7    1  0.3660414E-009  0.9170059E+02  0.7818608E-02  0.1298785E+00
         -1   -1    0    0    0  501 -0.00000000000E+00  0.00000000000E+00  0.11570761898E+02  0.11570762996E+02  0.50400000000E-02 0.  1.
          1   -1    0    0  501    0  0.00000000000E+00 -0.00000000000E+00 -0.18168635728E+03  0.18168635735E+03  0.50400000000E-02 0. -1.
         23    2    1    2    0    0  0.00000000000E+00  0.00000000000E+00 -0.17011559538E+03  0.19325712035E+03  0.91700593085E+02 0.  0.
    9000005    2    3    3    0    0  0.39153412572E+02 -0.83463815655E+01 -0.12884345496E+03  0.13575893449E+03  0.15073175100E+02 0.  0.
         22    1    3    3    0    0 -0.39153412572E+02  0.83463815655E+01 -0.41272140424E+02  0.57498185853E+02  0.00000000000E+00 0.  1.
         22    1    4    4    0    0  0.11055444897E+02 -0.29689041094E+01 -0.62046615361E+02  0.63093737654E+02  0.00000000000E+00 0.  1.
         22    1    4    4    0    0  0.28097967675E+02 -0.53774774561E+01 -0.66796839599E+02  0.72665196839E+02  0.00000000000E+00 0.  1.
<mgrwt>
<rscale>  0 0.91700593E+02</rscale>
<asrwt>0</asrwt>
<pdfrwt beam="2">  1        1 0.27951745E-01 0.91700593E+02</pdfrwt>
<pdfrwt beam="1">  1       -1 0.17801174E-02 0.91700593E+02</pdfrwt>
<totfact> 0.11445640E+05</totfact>
</mgrwt>
</event>
<event>
 7    1  0.3345055E-009  0.9100378E+02  0.7818608E-02  0.1300439E+00
          1   -1    0    0  501    0  0.00000000000E+00  0.00000000000E+00  0.15489683652E+03  0.15489683660E+03  0.50400000000E-02 0. -1.
         -1   -1    0    0    0  501 -0.00000000000E+00 -0.00000000000E+00 -0.13366458272E+02  0.13366459222E+02  0.50400000000E-02 0.  1.
         23    2    1    2    0    0  0.00000000000E+00  0.71054273576E-14  0.14153037825E+03  0.16826329582E+03  0.91003784288E+02 0.  0.
    9000005    2    3    3    0    0 -0.51325111977E+01 -0.42793132916E+02  0.52086460600E+02  0.68976794728E+02  0.13682248977E+02 0.  0.
         22    1    3    3    0    0  0.51325111977E+01  0.42793132916E+02  0.89443917646E+02  0.99286501096E+02  0.00000000000E+00 0. -1.
         22    1    4    4    0    0 -0.81351227564E+01 -0.13804324187E+02  0.16906002075E+02  0.23292756271E+02  0.00000000000E+00 0.  1.
         22    1    4    4    0    0  0.30026115587E+01 -0.28988808729E+02  0.35180458525E+02  0.45684038457E+02  0.00000000000E+00 0.  1.
<mgrwt>
<rscale>  0 0.91003784E+02</rscale>
<asrwt>0</asrwt>
<pdfrwt beam="1">  1        1 0.23830281E-01 0.91003784E+02</pdfrwt>
<pdfrwt beam="2">  1       -1 0.20563784E-02 0.91003784E+02</pdfrwt>
<totfact> 0.11337867E+05</totfact>
</mgrwt>
</event>
<event>
 7    1  0.3345055E-009  0.9208401E+02  0.7818608E-02  0.1297882E+00
         -1   -1    0    0    0  501 -0.00000000000E+00  0.00000000000E+00  0.52777628527E+02  0.52777628767E+02  0.50400000000E-02 0.  1.
          1   -1    0    0  501    0  0.00000000000E+00 -0.00000000000E+00 -0.40165997182E+02  0.40165997498E+02  0.50400000000E-02 0. -1.
         23    2    1    2    0    0  0.71054273576E-14  0.00000000000E+00  0.12611631345E+02  0.92943626266E+02  0.92084007397E+02 0.  0.
    9000005    2    3    3    0    0 -0.33390541625E+02 -0.13615449391E+01 -0.24792496650E+02  0.42785368066E+02  0.99567944546E+01 0.  0.
         22    1    3    3    0    0  0.33390541625E+02  0.13615449391E+01  0.37404127994E+02  0.50158258200E+02  0.00000000000E+00 0.  1.
         22    1    4    4    0    0 -0.11920161189E+02 -0.51994583874E+01 -0.10427983516E+02  0.16669356632E+02  0.00000000000E+00 0. -1.
         22    1    4    4    0    0 -0.21470380435E+02  0.38379134484E+01 -0.14364513134E+02  0.26116011435E+02  0.00000000000E+00 0. -1.
<mgrwt>
<rscale>  0 0.92084007E+02</rscale>
<asrwt>0</asrwt>
<pdfrwt beam="2">  1        1 0.61793842E-02 0.92084007E+02</pdfrwt>
<pdfrwt beam="1">  1       -1 0.81196352E-02 0.92084007E+02</pdfrwt>
<totfact> 0.88214819E+04</totfact>
</mgrwt>
</event>
<event>
 7    1  0.3345055E-009  0.9137647E+02  0.7818608E-02  0.1299552E+00
         -1   -1    0    0    0  501 -0.00000000000E+00  0.00000000000E+00  0.47490864704E+02  0.47490864971E+02  0.50400000000E-02 0.  1.
          1   -1    0    0  501    0  0.00000000000E+00 -0.00000000000E+00 -0.43954027844E+02  0.43954028133E+02  0.50400000000E-02 0. -1.
         23    2    1    2    0    0  0.00000000000E+00  0.00000000000E+00  0.35368368603E+01  0.91444893104E+02  0.91376469946E+02 0.  0.
    9000005    2    3    3    0    0 -0.19147330145E+02  0.13302024269E+02 -0.37234786779E+02  0.44477996299E+02  0.69497271179E+01 0.  0.
         22    1    3    3    0    0  0.19147330145E+02 -0.13302024269E+02  0.40771623639E+02  0.46966896805E+02  0.00000000000E+00 0.  1.
         22    1    4    4    0    0 -0.38426267063E+01  0.63128665215E+01 -0.94594365829E+01  0.12004124466E+02  0.00000000000E+00 0.  1.
         22    1    4    4    0    0 -0.15304703439E+02  0.69891577473E+01 -0.27775350196E+02  0.32473871834E+02  0.00000000000E+00 0.  1.
<mgrwt>
<rscale>  0 0.91376470E+02</rscale>
<asrwt>0</asrwt>
<pdfrwt beam="2">  1        1 0.67621582E-02 0.91376470E+02</pdfrwt>
<pdfrwt beam="1">  1       -1 0.73062869E-02 0.91376470E+02</pdfrwt>
<totfact> 0.91401094E+04</totfact>
</mgrwt>
</event>
<event>
 7    1  0.3345055E-009  0.8991733E+02  0.7818608E-02  0.1303052E+00
          1   -1    0    0  501    0  0.00000000000E+00  0.00000000000E+00  0.33534292385E+01  0.33534330259E+01  0.50400000000E-02 0. -1.
         -1   -1    0    0    0  501 -0.00000000000E+00 -0.00000000000E+00 -0.60275029824E+03  0.60275029826E+03  0.50400000000E-02 0.  1.
         23    2    1    2    0    0  0.00000000000E+00  0.00000000000E+00 -0.59939686900E+03  0.60610373128E+03  0.89917331540E+02 0.  0.
    9000005    2    3    3    0    0 -0.28342326821E+02  0.18155258508E+02 -0.49696669263E+03  0.49828517105E+03  0.13390937179E+02 0.  0.
         22    1    3    3    0    0  0.28342326821E+02 -0.18155258508E+02 -0.10243017637E+03  0.10781856024E+03  0.00000000000E+00 0. -1.
         22    1    4    4    0    0 -0.76004140014E+01  0.44105572584E+01 -0.22819507946E+03  0.22836421260E+03  0.00000000000E+00 0.  1.
         22    1    4    4    0    0 -0.20741912820E+02  0.13744701250E+02 -0.26877161317E+03  0.26992095844E+03  0.00000000000E+00 0.  1.
<mgrwt>
<rscale>  0 0.89917332E+02</rscale>
<asrwt>0</asrwt>
<pdfrwt beam="1">  1        1 0.51591296E-03 0.89917332E+02</pdfrwt>
<pdfrwt beam="2">  1       -1 0.92730729E-01 0.89917332E+02</pdfrwt>
<totfact> 0.43017792E+04</totfact>
</mgrwt>
</event>
<event>
 7    1  0.3345055E-009  0.9042314E+02  0.7818608E-02  0.1301830E+00
          1   -1    0    0  501    0  0.00000000000E+00  0.00000000000E+00  0.13909203382E+02  0.13909204295E+02  0.50400000000E-02 0. -1.
         -1   -1    0    0    0  501 -0.00000000000E+00 -0.00000000000E+00 -0.14695924551E+03  0.14695924560E+03  0.50400000000E-02 0.  1.
         23    2    1    2    0    0  0.00000000000E+00  0.00000000000E+00 -0.13305004213E+03  0.16086844990E+03  0.90423141178E+02 0.  0.
    9000005    2    3    3    0    0  0.20519359734E+02  0.38066645589E+02 -0.54041378078E+02  0.70799128671E+02  0.14897397280E+02 0.  0.
         22    1    3    3    0    0 -0.20519359734E+02 -0.38066645589E+02 -0.79008664054E+02  0.90069321225E+02  0.00000000000E+00 0. -1.
         22    1    4    4    0    0  0.65341786295E+01  0.26453368451E+02 -0.36388651035E+02  0.45459983688E+02  0.00000000000E+00 0.  1.
         22    1    4    4    0    0  0.13985181105E+02  0.11613277138E+02 -0.17652727043E+02  0.25339144983E+02  0.00000000000E+00 0.  1.
<mgrwt>
<rscale>  0 0.90423141E+02</rscale>
<asrwt>0</asrwt>
<pdfrwt beam="1">  1        1 0.21398776E-02 0.90423141E+02</pdfrwt>
<pdfrwt beam="2">  1       -1 0.22609114E-01 0.90423141E+02</pdfrwt>
<totfact> 0.76780333E+04</totfact>
</mgrwt>
</event>
<event>
 7    1  0.3345055E-009  0.9278576E+02  0.7818608E-02  0.1296242E+00
          1   -1    0    0  501    0  0.00000000000E+00  0.00000000000E+00  0.23851879401E+01  0.23851932649E+01  0.50400000000E-02 0. -1.
         -1   -1    0    0    0  501 -0.00000000000E+00 -0.00000000000E+00 -0.90235955086E+03  0.90235955087E+03  0.50400000000E-02 0.  1.
         23    2    1    2    0    0 -0.17763568394E-14  0.00000000000E+00 -0.89997436292E+03  0.90474474414E+03  0.92785764717E+02 0.  0.
    9000005    2    3    3    0    0  0.15039285016E+02 -0.25151255848E+02 -0.79666902197E+03  0.79736337129E+03  0.15749589075E+02 0.  0.
         22    1    3    3    0    0 -0.15039285016E+02  0.25151255848E+02 -0.10330534095E+03  0.10738137284E+03  0.00000000000E+00 0. -1.
         22    1    4    4    0    0  0.58115699022E+01 -0.16645750205E+02 -0.61930364179E+03  0.61955456263E+03  0.00000000000E+00 0.  1.
         22    1    4    4    0    0  0.92277151142E+01 -0.85055056428E+01 -0.17736538018E+03  0.17780880866E+03  0.00000000000E+00 0.  1.
<mgrwt>
<rscale>  0 0.92785765E+02</rscale>
<asrwt>0</asrwt>
<pdfrwt beam="1">  1        1 0.36695312E-03 0.92785765E+02</pdfrwt>
<pdfrwt beam="2">  1       -1 0.13882427E+00 0.92785765E+02</pdfrwt>
<totfact> 0.27560847E+04</totfact>
</mgrwt>
</event>
<event>
 7    1  0.3345055E-009  0.8551915E+02  0.7818608E-02  0.1314080E+00
          1   -1    0    0  501    0  0.00000000000E+00  0.00000000000E+00  0.88249784544E+01  0.88249798936E+01  0.50400000000E-02 0. -1.
         -1   -1    0    0    0  501 -0.00000000000E+00 -0.00000000000E+00 -0.20718248311E+03  0.20718248317E+03  0.50400000000E-02 0.  1.
         23    2    1    2    0    0 -0.17763568394E-14  0.22204460493E-15 -0.19835750465E+03  0.21600746306E+03  0.85519146666E+02 0.  0.
    9000005    2    3    3    0    0 -0.14059585428E+02  0.10890215619E+01 -0.20062059317E+03  0.20172532457E+03  0.15672468092E+02 0.  0.
         22    1    3    3    0    0  0.14059585428E+02 -0.10890215619E+01  0.22630885194E+01  0.14282138496E+02  0.00000000000E+00 0. -1.
         22    1    4    4    0    0 -0.13791697146E+02  0.31807590820E+01 -0.91835127567E+02  0.92919420971E+02  0.00000000000E+00 0. -1.
         22    1    4    4    0    0 -0.26788828227E+00 -0.20917375200E+01 -0.10878546561E+03  0.10880590359E+03  0.00000000000E+00 0. -1.
<mgrwt>
<rscale>  0 0.85519147E+02</rscale>
<asrwt>0</asrwt>
<pdfrwt beam="1">  1        1 0.13576893E-02 0.85519147E+02</pdfrwt>
<pdfrwt beam="2">  1       -1 0.31874225E-01 0.85519147E+02</pdfrwt>
<totfact> 0.81170917E+04</totfact>
</mgrwt>
</event>
<event>
 7    1  0.3345055E-009  0.9070039E+02  0.7818608E-02  0.1301164E+00
         -1   -1    0    0    0  501 -0.00000000000E+00  0.00000000000E+00  0.46116973840E+02  0.46116974115E+02  0.50400000000E-02 0.  1.
          1   -1    0    0  501    0  0.00000000000E+00 -0.00000000000E+00 -0.44596162907E+02  0.44596163191E+02  0.50400000000E-02 0. -1.
         23    2    1    2    0    0  0.00000000000E+00  0.00000000000E+00  0.15208109333E+01  0.90713137307E+02  0.90700388170E+02 0.  0.
    9000005    2    3    3    0    0 -0.30986480725E+02 -0.31435765296E+02 -0.13341322800E+01  0.46480569800E+02  0.14501521734E+02 0.  0.
         22    1    3    3    0    0  0.30986480725E+02  0.31435765296E+02  0.28549432133E+01  0.44232567506E+02  0.00000000000E+00 0.  1.
         22    1    4    4    0    0 -0.21423810942E+02 -0.21186307691E+02 -0.76794058766E+01  0.31093610010E+02  0.00000000000E+00 0.  1.
         22    1    4    4    0    0 -0.95626697828E+01 -0.10249457605E+02  0.63452735967E+01  0.15386959791E+02  0.00000000000E+00 0.  1.
<mgrwt>
<rscale>  0 0.90700388E+02</rscale>
<asrwt>0</asrwt>
<pdfrwt beam="2">  1        1 0.68609482E-02 0.90700388E+02</pdfrwt>
<pdfrwt beam="1">  1       -1 0.70949191E-02 0.90700388E+02</pdfrwt>
<totfact> 0.93532359E+04</totfact>
</mgrwt>
</event>
<event>
 7    1  0.3345055E-009  0.9071317E+02  0.7818608E-02  0.1301134E+00
         -1   -1    0    0    0  501 -0.00000000000E+00  0.00000000000E+00  0.91043692973E+02  0.91043693112E+02  0.50400000000E-02 0.  1.
          1   -1    0    0  501    0  0.00000000000E+00 -0.00000000000E+00 -0.22595959833E+02  0.22595960395E+02  0.50400000000E-02 0. -1.
         23    2    1    2    0    0  0.00000000000E+00  0.00000000000E+00  0.68447733140E+02  0.11363965351E+03  0.90713167055E+02 0.  0.
    9000005    2    3    3    0    0  0.14131979597E+02  0.47199664318E+01 -0.16895945129E+02  0.27005166431E+02  0.14893459025E+02 0.  0.
         22    1    3    3    0    0 -0.14131979597E+02 -0.47199664318E+01  0.85343678269E+02  0.86634487076E+02  0.00000000000E+00 0.  1.
         22    1    4    4    0    0 -0.15415278265E+01  0.49838157659E+01 -0.27842911773E+01  0.59132905381E+01  0.00000000000E+00 0. -1.
         22    1    4    4    0    0  0.15673507424E+02 -0.26384933413E+00 -0.14111653952E+02  0.21091875893E+02  0.00000000000E+00 0. -1.
<mgrwt>
<rscale>  0 0.90713167E+02</rscale>
<asrwt>0</asrwt>
<pdfrwt beam="2">  1        1 0.34763016E-02 0.90713167E+02</pdfrwt>
<pdfrwt beam="1">  1       -1 0.14006722E-01 0.90713167E+02</pdfrwt>
<totfact> 0.83863006E+04</totfact>
</mgrwt>
</event>
<event>
 7    1  0.3345055E-009  0.9060520E+02  0.7818608E-02  0.1301393E+00
         -1   -1    0    0    0  501 -0.00000000000E+00  0.00000000000E+00  0.34812953251E+03  0.34812953254E+03  0.50400000000E-02 0.  1.
          1   -1    0    0  501    0  0.00000000000E+00 -0.00000000000E+00 -0.58952920502E+01  0.58952942046E+01  0.50400000000E-02 0. -1.
         23    2    1    2    0    0  0.00000000000E+00  0.00000000000E+00  0.34223424046E+03  0.35402482675E+03  0.90605201909E+02 0.  0.
    9000005    2    3    3    0    0  0.26745025703E+02 -0.35469642247E+02  0.15863945311E+03  0.16513216448E+03  0.11347411120E+02 0.  0.
         22    1    3    3    0    0 -0.26745025703E+02  0.35469642247E+02  0.18359478734E+03  0.18889266227E+03  0.00000000000E+00 0. -1.
         22    1    4    4    0    0  0.29820448203E+00 -0.58670869413E+00  0.10673895044E+00  0.66674298528E+00  0.00000000000E+00 0.  1.
         22    1    4    4    0    0  0.26446821221E+02 -0.34882933553E+02  0.15853271416E+03  0.16446542149E+03  0.00000000000E+00 0.  1.
<mgrwt>
<rscale>  0 0.90605202E+02</rscale>
<asrwt>0</asrwt>
<pdfrwt beam="2">  1        1 0.90696802E-03 0.90605202E+02</pdfrwt>
<pdfrwt beam="1">  1       -1 0.53558399E-01 0.90605202E+02</pdfrwt>
<totfact> 0.57867662E+04</totfact>
</mgrwt>
</event>
<event>
 7    1  0.3345055E-009  0.9211074E+02  0.7818608E-02  0.1297819E+00
         -1   -1    0    0    0  501 -0.00000000000E+00  0.00000000000E+00  0.91596355420E+03  0.91596355422E+03  0.50400000000E-02 0.  1.
          1   -1    0    0  501    0  0.00000000000E+00 -0.00000000000E+00 -0.23156973271E+01  0.23157028118E+01  0.50400000000E-02 0. -1.
         23    2    1    2    0    0 -0.35527136788E-14 -0.35527136788E-14  0.91364785688E+03  0.91827925703E+03  0.92110735070E+02 0.  0.
    9000005    2    3    3    0    0 -0.23261194111E+02 -0.21260181443E+02  0.78838015041E+03  0.78910852989E+03  0.12487270217E+02 0.  0.
         22    1    3    3    0    0  0.23261194111E+02  0.21260181443E+02  0.12526770647E+03  0.12917072714E+03  0.00000000000E+00 0. -1.
         22    1    4    4    0    0 -0.11215118672E+02 -0.23928191882E+01  0.24824719605E+03  0.24851192088E+03  0.00000000000E+00 0. -1.
         22    1    4    4    0    0 -0.12046075439E+02 -0.18867362255E+02  0.54013295436E+03  0.54059660901E+03  0.00000000000E+00 0. -1.
<mgrwt>
<rscale>  0 0.92110735E+02</rscale>
<asrwt>0</asrwt>
<pdfrwt beam="2">  1        1 0.35626127E-03 0.92110735E+02</pdfrwt>
<pdfrwt beam="1">  1       -1 0.14091758E+00 0.92110735E+02</pdfrwt>
<totfact> 0.27636919E+04</totfact>
</mgrwt>
</event>
<event>
 7    1  0.3345055E-009  0.9097628E+02  0.7818608E-02  0.1300505E+00
         -1   -1    0    0    0  501 -0.00000000000E+00  0.00000000000E+00  0.14497044067E+02  0.14497044943E+02  0.50400000000E-02 0.  1.
          1   -1    0    0  501    0  0.00000000000E+00 -0.00000000000E+00 -0.14273052019E+03  0.14273052028E+03  0.50400000000E-02 0. -1.
         23    2    1    2    0    0  0.00000000000E+00  0.00000000000E+00 -0.12823347613E+03  0.15722756523E+03  0.90976276398E+02 0.  0.
    9000005    2    3    3    0    0 -0.23428809338E+02 -0.37049664469E+02 -0.49563078715E+02  0.67168594694E+02  0.11555717083E+02 0.  0.
         22    1    3    3    0    0  0.23428809338E+02  0.37049664469E+02 -0.78670397411E+02  0.90058970531E+02  0.00000000000E+00 0.  1.
         22    1    4    4    0    0 -0.82929570914E+01 -0.60479994206E+01 -0.72128662189E+01  0.12544993958E+02  0.00000000000E+00 0.  1.
         22    1    4    4    0    0 -0.15135852246E+02 -0.31001665048E+02 -0.42350212496E+02  0.54623600737E+02  0.00000000000E+00 0.  1.
<mgrwt>
<rscale>  0 0.90976276E+02</rscale>
<asrwt>0</asrwt>
<pdfrwt beam="2">  1        1 0.21958541E-01 0.90976276E+02</pdfrwt>
<pdfrwt beam="1">  1       -1 0.22303146E-02 0.90976276E+02</pdfrwt>
<totfact> 0.11178181E+05</totfact>
</mgrwt>
</event>
<event>
 7    1  0.3345055E-009  0.8637401E+02  0.7818608E-02  0.1311878E+00
          1   -1    0    0  501    0  0.00000000000E+00  0.00000000000E+00  0.11200815499E+03  0.11200815511E+03  0.50400000000E-02 0. -1.
         -1   -1    0    0    0  501 -0.00000000000E+00 -0.00000000000E+00 -0.16651621648E+02  0.16651622411E+02  0.50400000000E-02 0.  1.
         23    2    1    2    0    0  0.00000000000E+00  0.00000000000E+00  0.95356533346E+02  0.12865977752E+03  0.86374011712E+02 0.  0.
    9000005    2    3    3    0    0  0.40184882590E+02  0.39357832683E+01  0.67382903252E+02  0.79539118327E+02  0.12478001238E+02 0.  0.
         22    1    3    3    0    0 -0.40184882590E+02 -0.39357832683E+01  0.27973630093E+02  0.49120659191E+02  0.00000000000E+00 0.  1.
         22    1    4    4    0    0  0.19524325048E+02  0.11634968304E+01  0.44363438376E+02  0.48483684451E+02  0.00000000000E+00 0.  1.
         22    1    4    4    0    0  0.20660557542E+02  0.27722864379E+01  0.23019464876E+02  0.31055433876E+02  0.00000000000E+00 0.  1.
<mgrwt>
<rscale>  0 0.86374012E+02</rscale>
<asrwt>0</asrwt>
<pdfrwt beam="1">  1        1 0.17232024E-01 0.86374012E+02</pdfrwt>
<pdfrwt beam="2">  1       -1 0.25617880E-02 0.86374012E+02</pdfrwt>
<totfact> 0.12325557E+05</totfact>
</mgrwt>
</event>
<event>
 7    1  0.3345055E-009  0.9046563E+02  0.7818608E-02  0.1301728E+00
          1   -1    0    0  501    0  0.00000000000E+00  0.00000000000E+00  0.12313393597E+03  0.12313393607E+03  0.50400000000E-02 0. -1.
         -1   -1    0    0    0  501 -0.00000000000E+00 -0.00000000000E+00 -0.16616115373E+02  0.16616116137E+02  0.50400000000E-02 0.  1.
         23    2    1    2    0    0  0.35527136788E-14  0.00000000000E+00  0.10651782060E+03  0.13975005221E+03  0.90465634292E+02 0.  0.
    9000005    2    3    3    0    0  0.23917309100E+02 -0.20838551646E+02  0.10243139113E+03  0.10776596530E+03  0.10725226356E+02 0.  0.
         22    1    3    3    0    0 -0.23917309100E+02  0.20838551646E+02  0.40864294688E+01  0.31984086904E+02  0.00000000000E+00 0.  1.
         22    1    4    4    0    0  0.11503315897E+01  0.45738534334E+00  0.83241073742E+00  0.14917679962E+01  0.00000000000E+00 0.  1.
         22    1    4    4    0    0  0.22766977511E+02 -0.21295936989E+02  0.10159898039E+03  0.10627419731E+03  0.00000000000E+00 0.  1.
<mgrwt>
<rscale>  0 0.90465634E+02</rscale>
<asrwt>0</asrwt>
<pdfrwt beam="1">  1        1 0.18943682E-01 0.90465634E+02</pdfrwt>
<pdfrwt beam="2">  1       -1 0.25563256E-02 0.90465634E+02</pdfrwt>
<totfact> 0.11054384E+05</totfact>
</mgrwt>
</event>
<event>
 7    1  0.3345055E-009  0.9158661E+02  0.7818608E-02  0.1299054E+00
          1   -1    0    0  501    0  0.00000000000E+00  0.00000000000E+00  0.15724428136E+03  0.15724428144E+03  0.50400000000E-02 0. -1.
         -1   -1    0    0    0  501 -0.00000000000E+00 -0.00000000000E+00 -0.13336108733E+02  0.13336109686E+02  0.50400000000E-02 0.  1.
         23    2    1    2    0    0  0.00000000000E+00  0.88817841970E-15  0.14390817263E+03  0.17058039113E+03  0.91586613041E+02 0.  0.
    9000005    2    3    3    0    0  0.43349045209E+02 -0.43639407191E+01  0.90253076780E+02  0.10146416286E+03  0.15848494508E+02 0.  0.
         22    1    3    3    0    0 -0.43349045209E+02  0.43639407191E+01  0.53655095850E+02  0.69116228267E+02  0.00000000000E+00 0.  1.
         22    1    4    4    0    0  0.18624289616E+02  0.58879290552E+01  0.35496188970E+02  0.40515568658E+02  0.00000000000E+00 0.  1.
         22    1    4    4    0    0  0.24724755592E+02 -0.10251869774E+02  0.54756887810E+02  0.60948594205E+02  0.00000000000E+00 0.  1.
<mgrwt>
<rscale>  0 0.91586613E+02</rscale>
<asrwt>0</asrwt>
<pdfrwt beam="1">  1        1 0.24191427E-01 0.91586613E+02</pdfrwt>
<pdfrwt beam="2">  1       -1 0.20517092E-02 0.91586613E+02</pdfrwt>
<totfact> 0.11175388E+05</totfact>
</mgrwt>
</event>
<event>
 7    1  0.3345055E-009  0.8146866E+02  0.7818608E-02  0.1324935E+00
         -1   -1    0    0    0  501 -0.00000000000E+00  0.00000000000E+00  0.35099369036E+02  0.35099369398E+02  0.50400000000E-02 0.  1.
          1   -1    0    0  501    0  0.00000000000E+00 -0.00000000000E+00 -0.47273940527E+02  0.47273940796E+02  0.50400000000E-02 0. -1.
         23    2    1    2    0    0  0.00000000000E+00  0.00000000000E+00 -0.12174571491E+02  0.82373310193E+02  0.81468656803E+02 0.  0.
    9000005    2    3    3    0    0 -0.96875434129E+01  0.87377656738E+01 -0.44952719816E+02  0.47094363866E+02  0.51898981369E+01 0.  0.
         22    1    3    3    0    0  0.96875434129E+01 -0.87377656738E+01  0.32778148325E+02  0.35278946328E+02  0.00000000000E+00 0.  1.
         22    1    4    4    0    0 -0.56668733270E+01  0.70748434065E+01 -0.23143253864E+02  0.24855121443E+02  0.00000000000E+00 0.  1.
         22    1    4    4    0    0 -0.40206700859E+01  0.16629222673E+01 -0.21809465952E+02  0.22239242422E+02  0.00000000000E+00 0.  1.
<mgrwt>
<rscale>  0 0.81468657E+02</rscale>
<asrwt>0</asrwt>
<pdfrwt beam="2">  1        1 0.72729140E-02 0.81468657E+02</pdfrwt>
<pdfrwt beam="1">  1       -1 0.53999030E-02 0.81468657E+02</pdfrwt>
<totfact> 0.12707822E+05</totfact>
</mgrwt>
</event>
<event>
 7    1  0.3345055E-009  0.8927800E+02  0.7818608E-02  0.1304610E+00
          1   -1    0    0  501    0  0.00000000000E+00  0.00000000000E+00  0.62654301930E+02  0.62654302132E+02  0.50400000000E-02 0. -1.
         -1   -1    0    0    0  501 -0.00000000000E+00 -0.00000000000E+00 -0.31803727783E+02  0.31803728182E+02  0.50400000000E-02 0.  1.
         23    2    1    2    0    0  0.00000000000E+00  0.00000000000E+00  0.30850574147E+02  0.94458030315E+02  0.89278001578E+02 0.  0.
    9000005    2    3    3    0    0  0.16636688376E+02 -0.13186063110E+02 -0.25874778167E+02  0.33890569945E+02  0.53305652148E+01 0.  0.
         22    1    3    3    0    0 -0.16636688376E+02  0.13186063110E+02  0.56725352314E+02  0.60567460370E+02  0.00000000000E+00 0. -1.
         22    1    4    4    0    0  0.73827899024E+01 -0.70626682052E+01 -0.16283950641E+02  0.19223785200E+02  0.00000000000E+00 0.  1.
         22    1    4    4    0    0  0.92538984737E+01 -0.61233949050E+01 -0.95908275261E+01  0.14666784745E+02  0.00000000000E+00 0.  1.
<mgrwt>
<rscale>  0 0.89278002E+02</rscale>
<asrwt>0</asrwt>
<pdfrwt beam="1">  1        1 0.96391233E-02 0.89278002E+02</pdfrwt>
<pdfrwt beam="2">  1       -1 0.48928813E-02 0.89278002E+02</pdfrwt>
<totfact> 0.10281329E+05</totfact>
</mgrwt>
</event>
<event>
 7    1  0.3345055E-009  0.9130265E+02  0.7818608E-02  0.1299727E+00
         -1   -1    0    0    0  501 -0.00000000000E+00  0.00000000000E+00  0.15971044640E+04  0.15971044640E+04  0.50400000000E-02 0.  1.
          1   -1    0    0  501    0  0.00000000000E+00 -0.00000000000E+00 -0.13048837349E+01  0.13048934682E+01  0.50400000000E-02 0. -1.
         23    2    1    2    0    0  0.00000000000E+00  0.00000000000E+00  0.15957995803E+04  0.15984093575E+04  0.91302648883E+02 0.  0.
    9000005    2    3    3    0    0 -0.20142036415E+02  0.13037827625E+02  0.14736054480E+04  0.14738818805E+04  0.15462680760E+02 0.  0.
         22    1    3    3    0    0  0.20142036415E+02 -0.13037827625E+02  0.12219413226E+03  0.12452747704E+03  0.00000000000E+00 0. -1.
         22    1    4    4    0    0 -0.21052139328E+02  0.13998816353E+02  0.11680639749E+04  0.11683375407E+04  0.00000000000E+00 0. -1.
         22    1    4    4    0    0  0.91010291363E+00 -0.96098872779E+00  0.30554147312E+03  0.30554433980E+03  0.00000000000E+00 0. -1.
<mgrwt>
<rscale>  0 0.91302649E+02</rscale>
<asrwt>0</asrwt>
<pdfrwt beam="2">  1        1 0.20075356E-03 0.91302649E+02</pdfrwt>
<pdfrwt beam="1">  1       -1 0.24570659E+00 0.91302649E+02</pdfrwt>
<totfact> 0.12115767E+04</totfact>
</mgrwt>
</event>
<event>
 7    1  0.3345055E-009  0.8491826E+02  0.7818608E-02  0.1315646E+00
         -1   -1    0    0    0  501 -0.00000000000E+00  0.00000000000E+00  0.21715339530E+03  0.21715339536E+03  0.50400000000E-02 0.  1.
          1   -1    0    0  501    0  0.00000000000E+00 -0.00000000000E+00 -0.83018620370E+01  0.83018635668E+01  0.50400000000E-02 0. -1.
         23    2    1    2    0    0  0.00000000000E+00  0.88817841970E-15  0.20885153326E+03  0.22545525892E+03  0.84918259701E+02 0.  0.
    9000005    2    3    3    0    0 -0.31675039591E+02 -0.79297506002E+01  0.17517672674E+03  0.17854916474E+03  0.11257422391E+02 0.  0.
         22    1    3    3    0    0  0.31675039591E+02  0.79297506002E+01  0.33674806519E+02  0.46906094185E+02  0.00000000000E+00 0. -1.
         22    1    4    4    0    0 -0.15859070610E+02 -0.97179197284E+01  0.91194221809E+02  0.93071661508E+02  0.00000000000E+00 0. -1.
         22    1    4    4    0    0 -0.15815968980E+02  0.17881691282E+01  0.83982504933E+02  0.85477503230E+02  0.00000000000E+00 0. -1.
<mgrwt>
<rscale>  0 0.84918260E+02</rscale>
<asrwt>0</asrwt>
<pdfrwt beam="2">  1        1 0.12772097E-02 0.84918260E+02</pdfrwt>
<pdfrwt beam="1">  1       -1 0.33408214E-01 0.84918260E+02</pdfrwt>
<totfact> 0.81523441E+04</totfact>
</mgrwt>
</event>
<event>
 7    1  0.3345055E-009  0.9423773E+02  0.7818608E-02  0.1292902E+00
         -1   -1    0    0    0  501 -0.00000000000E+00  0.00000000000E+00  0.17330925848E+02  0.17330926581E+02  0.50400000000E-02 0.  1.
          1   -1    0    0  501    0  0.00000000000E+00 -0.00000000000E+00 -0.12810553666E+03  0.12810553676E+03  0.50400000000E-02 0. -1.
         23    2    1    2    0    0  0.35527136788E-14  0.71054273576E-14 -0.11077461081E+03  0.14543646334E+03  0.94237733781E+02 0.  0.
    9000005    2    3    3    0    0 -0.29924149001E+02 -0.34571018051E+02 -0.41317221920E+02  0.62280351994E+02  0.90066328183E+01 0.  0.
         22    1    3    3    0    0  0.29924149001E+02  0.34571018051E+02 -0.69457388890E+02  0.83156111345E+02  0.00000000000E+00 0. -1.
         22    1    4    4    0    0 -0.29308414568E+02 -0.34070593556E+02 -0.37952370884E+02  0.58823217911E+02  0.00000000000E+00 0. -1.
         22    1    4    4    0    0 -0.61573443317E+00 -0.50042449567E+00 -0.33648510365E+01  0.34571340827E+01  0.00000000000E+00 0. -1.
<mgrwt>
<rscale>  0 0.94237734E+02</rscale>
<asrwt>0</asrwt>
<pdfrwt beam="2">  1        1 0.19708544E-01 0.94237734E+02</pdfrwt>
<pdfrwt beam="1">  1       -1 0.26662964E-02 0.94237734E+02</pdfrwt>
<totfact> 0.99636528E+04</totfact>
</mgrwt>
</event>
<event>
 7    1  0.3345055E-009  0.1131019E+03  0.7818608E-02  0.1254931E+00
          1   -1    0    0  501    0  0.00000000000E+00  0.00000000000E+00  0.11845760304E+04  0.11845760304E+04  0.50400000000E-02 0. -1.
         -1   -1    0    0    0  501 -0.00000000000E+00 -0.00000000000E+00 -0.26997064603E+01  0.26997111648E+01  0.50400000000E-02 0.  1.
         23    2    1    2    0    0 -0.22204460493E-15  0.00000000000E+00  0.11818763239E+04  0.11872757415E+04  0.11310190734E+03 0.  0.
    9000005    2    3    3    0    0 -0.14196550359E+01 -0.48406163938E+02  0.89184670615E+03  0.89323092981E+03  0.11214926678E+02 0.  0.
         22    1    3    3    0    0  0.14196550359E+01  0.48406163938E+02  0.29002961776E+03  0.29404481173E+03  0.00000000000E+00 0.  1.
         22    1    4    4    0    0 -0.43877669527E+01 -0.43578191439E+02  0.75803807478E+03  0.75930233378E+03  0.00000000000E+00 0.  1.
         22    1    4    4    0    0  0.29681119168E+01 -0.48279724995E+01  0.13380863137E+03  0.13392859604E+03  0.00000000000E+00 0.  1.
<mgrwt>
<rscale>  0 0.11310191E+03</rscale>
<asrwt>0</asrwt>
<pdfrwt beam="1">  1        1 0.18224215E+00 0.11310191E+03</pdfrwt>
<pdfrwt beam="2">  1       -1 0.41534055E-03 0.11310191E+03</pdfrwt>
<totfact> 0.72018093E+04</totfact>
</mgrwt>
</event>
<event>
 7    1  0.3345055E-009  0.8750748E+02  0.7818608E-02  0.1309002E+00
          1   -1    0    0  501    0  0.00000000000E+00  0.00000000000E+00  0.55702187374E+03  0.55702187376E+03  0.50400000000E-02 0. -1.
         -1   -1    0    0    0  501 -0.00000000000E+00 -0.00000000000E+00 -0.34368289520E+01  0.34368326475E+01  0.50400000000E-02 0.  1.
         23    2    1    2    0    0  0.35527136788E-14  0.00000000000E+00  0.55358504479E+03  0.56045870641E+03  0.87507484127E+02 0.  0.
    9000005    2    3    3    0    0  0.30306286527E+02  0.25073516537E+02  0.39396024913E+03  0.39605910902E+03  0.10535070261E+02 0.  0.
         22    1    3    3    0    0 -0.30306286527E+02 -0.25073516537E+02  0.15962479566E+03  0.16439959739E+03  0.00000000000E+00 0. -1.
         22    1    4    4    0    0  0.30309469470E+02  0.21822210961E+02  0.35309116382E+03  0.35506090012E+03  0.00000000000E+00 0. -1.
         22    1    4    4    0    0 -0.31829436360E-02  0.32513055754E+01  0.40869085314E+02  0.40998208894E+02  0.00000000000E+00 0. -1.
<mgrwt>
<rscale>  0 0.87507484E+02</rscale>
<asrwt>0</asrwt>
<pdfrwt beam="1">  1        1 0.85695669E-01 0.87507484E+02</pdfrwt>
<pdfrwt beam="2">  1       -1 0.52874323E-03 0.87507484E+02</pdfrwt>
<totfact> 0.15695980E+05</totfact>
</mgrwt>
</event>
<event>
 7    1  0.3345055E-009  0.9191338E+02  0.7818608E-02  0.1298283E+00
         -1   -1    0    0    0  501 -0.00000000000E+00  0.00000000000E+00  0.92508291900E+02  0.92508292037E+02  0.50400000000E-02 0.  1.
          1   -1    0    0  501    0  0.00000000000E+00 -0.00000000000E+00 -0.22830572591E+02  0.22830573148E+02  0.50400000000E-02 0. -1.
         23    2    1    2    0    0 -0.88817841970E-15  0.17763568394E-14  0.69677719308E+02  0.11533886518E+03  0.91913379081E+02 0.  0.
    9000005    2    3    3    0    0  0.46094162222E+01 -0.15204782600E+02  0.88203497576E+02  0.90933197969E+02  0.15380421850E+02 0.  0.
         22    1    3    3    0    0 -0.46094162222E+01  0.15204782600E+02 -0.18525778268E+02  0.24405667216E+02  0.00000000000E+00 0. -1.
         22    1    4    4    0    0  0.63789237061E+01 -0.30675043283E+00  0.38107422580E+02  0.38638845987E+02  0.00000000000E+00 0. -1.
         22    1    4    4    0    0 -0.17695074839E+01 -0.14898032167E+02  0.50096074996E+02  0.52294351982E+02  0.00000000000E+00 0. -1.
<mgrwt>
<rscale>  0 0.91913379E+02</rscale>
<asrwt>0</asrwt>
<pdfrwt beam="2">  1        1 0.35123959E-02 0.91913379E+02</pdfrwt>
<pdfrwt beam="1">  1       -1 0.14232045E-01 0.91913379E+02</pdfrwt>
<totfact> 0.80845153E+04</totfact>
</mgrwt>
</event>
<event>
 7    1  0.3345055E-009  0.9157850E+02  0.7818608E-02  0.1299074E+00
          1   -1    0    0  501    0  0.00000000000E+00  0.00000000000E+00  0.16865672556E+03  0.16865672563E+03  0.50400000000E-02 0. -1.
         -1   -1    0    0    0  501 -0.00000000000E+00 -0.00000000000E+00 -0.12431495898E+02  0.12431496919E+02  0.50400000000E-02 0.  1.
         23    2    1    2    0    0  0.00000000000E+00 -0.17763568394E-14  0.15622522966E+03  0.18108822255E+03  0.91578501652E+02 0.  0.
    9000005    2    3    3    0    0  0.32817268928E+02  0.91745360141E+01  0.13779654103E+03  0.14234855534E+03  0.10680788259E+02 0.  0.
         22    1    3    3    0    0 -0.32817268928E+02 -0.91745360141E+01  0.18428688634E+02  0.38739667212E+02  0.00000000000E+00 0. -1.
         22    1    4    4    0    0  0.17563162841E+01  0.37838427730E+01  0.17397838766E+02  0.17890972773E+02  0.00000000000E+00 0. -1.
         22    1    4    4    0    0  0.31060952643E+02  0.53906932411E+01  0.12039870226E+03  0.12445758257E+03  0.00000000000E+00 0. -1.
<mgrwt>
<rscale>  0 0.91578502E+02</rscale>
<asrwt>0</asrwt>
<pdfrwt beam="1">  1        1 0.25947189E-01 0.91578502E+02</pdfrwt>
<pdfrwt beam="2">  1       -1 0.19125379E-02 0.91578502E+02</pdfrwt>
<totfact> 0.11325540E+05</totfact>
</mgrwt>
</event>
<event>
 7    1  0.3345055E-009  0.8825494E+02  0.7818608E-02  0.1307133E+00
         -1   -1    0    0    0  501 -0.00000000000E+00  0.00000000000E+00  0.18611035742E+02  0.18611036424E+02  0.50400000000E-02 0.  1.
          1   -1    0    0  501    0  0.00000000000E+00 -0.00000000000E+00 -0.10462789242E+03  0.10462789254E+03  0.50400000000E-02 0. -1.
         23    2    1    2    0    0  0.71054273576E-14  0.00000000000E+00 -0.86016856680E+02  0.12323892897E+03  0.88254937425E+02 0.  0.
    9000005    2    3    3    0    0  0.40443891291E+02 -0.11754532598E+02 -0.30798720260E+02  0.53791683024E+02  0.13080772667E+02 0.  0.
         22    1    3    3    0    0 -0.40443891291E+02  0.11754532598E+02 -0.55218136420E+02  0.69447245943E+02  0.00000000000E+00 0.  1.
         22    1    4    4    0    0  0.38722132487E+02 -0.11923996486E+02 -0.32046865821E+02  0.51658366656E+02  0.00000000000E+00 0.  1.
         22    1    4    4    0    0  0.17217588037E+01  0.16946388804E+00  0.12481455611E+01  0.21333163688E+01  0.00000000000E+00 0.  1.
<mgrwt>
<rscale>  0 0.88254937E+02</rscale>
<asrwt>0</asrwt>
<pdfrwt beam="2">  1        1 0.16096599E-01 0.88254937E+02</pdfrwt>
<pdfrwt beam="1">  1       -1 0.28632364E-02 0.88254937E+02</pdfrwt>
<totfact> 0.11497403E+05</totfact>
</mgrwt>
</event>
<event>
 7    1  0.3345055E-009  0.9544755E+02  0.7818608E-02  0.1290171E+00
         -1   -1    0    0    0  501 -0.00000000000E+00  0.00000000000E+00  0.44862286941E+02  0.44862287224E+02  0.50400000000E-02 0.  1.
          1   -1    0    0  501    0  0.00000000000E+00 -0.00000000000E+00 -0.50767774165E+02  0.50767774415E+02  0.50400000000E-02 0. -1.
         23    2    1    2    0    0  0.00000000000E+00  0.00000000000E+00 -0.59054872240E+01  0.95630061639E+02  0.95447545331E+02 0.  0.
    9000005    2    3    3    0    0  0.92686301099E+01  0.11464731885E+02 -0.48326910676E+02  0.50719876280E+02  0.44348588592E+01 0.  0.
         22    1    3    3    0    0 -0.92686301099E+01 -0.11464731885E+02  0.42421423452E+02  0.44910185359E+02  0.00000000000E+00 0.  1.
         22    1    4    4    0    0  0.88273156779E+01  0.85298047072E+01 -0.41460930157E+02  0.43239886678E+02  0.00000000000E+00 0. -1.
         22    1    4    4    0    0  0.44131443205E+00  0.29349271782E+01 -0.68659805185E+01  0.74799896023E+01  0.00000000000E+00 0. -1.
<mgrwt>
<rscale>  0 0.95447545E+02</rscale>
<asrwt>0</asrwt>
<pdfrwt beam="2">  1        1 0.78104268E-02 0.95447545E+02</pdfrwt>
<pdfrwt beam="1">  1       -1 0.69018904E-02 0.95447545E+02</pdfrwt>
<totfact> 0.82650459E+04</totfact>
</mgrwt>
</event>
<event>
 7    1  0.3345055E-009  0.9261723E+02  0.7818608E-02  0.1296635E+00
          1   -1    0    0  501    0  0.00000000000E+00  0.00000000000E+00  0.41770151234E+03  0.41770151237E+03  0.50400000000E-02 0. -1.
         -1   -1    0    0    0  501 -0.00000000000E+00 -0.00000000000E+00 -0.51340189393E+01  0.51340214132E+01  0.50400000000E-02 0.  1.
         23    2    1    2    0    0 -0.35527136788E-14  0.00000000000E+00  0.41256749340E+03  0.42283553379E+03  0.92617233921E+02 0.  0.
    9000005    2    3    3    0    0  0.22479428372E+02  0.39955807258E+02  0.22862872574E+03  0.23326955192E+03  0.64651669238E+01 0.  0.
         22    1    3    3    0    0 -0.22479428372E+02 -0.39955807258E+02  0.18393876766E+03  0.18956598187E+03  0.00000000000E+00 0.  1.
         22    1    4    4    0    0  0.19339093562E+02  0.28974317739E+02  0.17634381724E+03  0.17975164396E+03  0.00000000000E+00 0. -1.
         22    1    4    4    0    0  0.31403348094E+01  0.10981489518E+02  0.52284908504E+02  0.53517907957E+02  0.00000000000E+00 0. -1.
<mgrwt>
<rscale>  0 0.92617234E+02</rscale>
<asrwt>0</asrwt>
<pdfrwt beam="1">  1        1 0.64261768E-01 0.92617234E+02</pdfrwt>
<pdfrwt beam="2">  1       -1 0.78984930E-03 0.92617234E+02</pdfrwt>
<totfact> 0.13028959E+05</totfact>
</mgrwt>
</event>
<event>
 7    1  0.3345055E-009  0.9183245E+02  0.7818608E-02  0.1298474E+00
         -1   -1    0    0    0  501 -0.00000000000E+00  0.00000000000E+00  0.63030243221E+02  0.63030243423E+02  0.50400000000E-02 0.  1.
          1   -1    0    0  501    0  0.00000000000E+00 -0.00000000000E+00 -0.33449017338E+02  0.33449017718E+02  0.50400000000E-02 0. -1.
         23    2    1    2    0    0 -0.71054273576E-14 -0.17763568394E-14  0.29581225883E+02  0.96479261140E+02  0.91832450176E+02 0.  0.
    9000005    2    3    3    0    0  0.38726831888E+02  0.15735224089E+02  0.33932658980E+02  0.54451892020E+02  0.81374697531E+01 0.  0.
         22    1    3    3    0    0 -0.38726831888E+02 -0.15735224089E+02 -0.43514330962E+01  0.42027369120E+02  0.00000000000E+00 0. -1.
         22    1    4    4    0    0  0.16882729158E+02  0.99176506567E+01  0.12057034397E+02  0.22994747592E+02  0.00000000000E+00 0.  1.
         22    1    4    4    0    0  0.21844102729E+02  0.58175734320E+01  0.21875624582E+02  0.31457144428E+02  0.00000000000E+00 0.  1.
<mgrwt>
<rscale>  0 0.91832450E+02</rscale>
<asrwt>0</asrwt>
<pdfrwt beam="2">  1        1 0.51460028E-02 0.91832450E+02</pdfrwt>
<pdfrwt beam="1">  1       -1 0.96969604E-02 0.91832450E+02</pdfrwt>
<totfact> 0.86410349E+04</totfact>
</mgrwt>
</event>
<event>
 7    1  0.3345055E-009  0.9119953E+02  0.7818608E-02  0.1299973E+00
          1   -1    0    0  501    0  0.00000000000E+00  0.00000000000E+00  0.31831028546E+02  0.31831028945E+02  0.50400000000E-02 0. -1.
         -1   -1    0    0    0  501 -0.00000000000E+00 -0.00000000000E+00 -0.65324268426E+02  0.65324268621E+02  0.50400000000E-02 0.  1.
         23    2    1    2    0    0  0.00000000000E+00  0.00000000000E+00 -0.33493239880E+02  0.97155297565E+02  0.91199532495E+02 0.  0.
    9000005    2    3    3    0    0 -0.96765911307E+01 -0.37133992299E+02  0.90051503096E+01  0.39895512649E+02  0.61635539602E+01 0.  0.
         22    1    3    3    0    0  0.96765911307E+01  0.37133992299E+02 -0.42498390190E+02  0.57259784917E+02  0.00000000000E+00 0.  1.
         22    1    4    4    0    0 -0.69560563688E+01 -0.33498560894E+02  0.89079237122E+01  0.35353803289E+02  0.00000000000E+00 0. -1.
         22    1    4    4    0    0 -0.27205347618E+01 -0.36354314054E+01  0.97226597397E-01  0.45417093593E+01  0.00000000000E+00 0. -1.
<mgrwt>
<rscale>  0 0.91199532E+02</rscale>
<asrwt>0</asrwt>
<pdfrwt beam="1">  1        1 0.48970814E-02 0.91199532E+02</pdfrwt>
<pdfrwt beam="2">  1       -1 0.10049887E-01 0.91199532E+02</pdfrwt>
<totfact> 0.87447753E+04</totfact>
</mgrwt>
</event>
<event>
 7    1  0.3345055E-009  0.8731840E+02  0.7818608E-02  0.1309479E+00
         -1   -1    0    0    0  501 -0.00000000000E+00  0.00000000000E+00  0.49795042829E+02  0.49795043084E+02  0.50400000000E-02 0.  1.
          1   -1    0    0  501    0  0.00000000000E+00 -0.00000000000E+00 -0.38279426212E+02  0.38279426543E+02  0.50400000000E-02 0. -1.
         23    2    1    2    0    0  0.00000000000E+00  0.00000000000E+00  0.11515616617E+02  0.88074469627E+02  0.87318398829E+02 0.  0.
    9000005    2    3    3    0    0  0.18335372974E+02 -0.15030111333E+02  0.41663417770E+02  0.49721111715E+02  0.13200697750E+02 0.  0.
         22    1    3    3    0    0 -0.18335372974E+02  0.15030111333E+02 -0.30147801153E+02  0.38353357912E+02  0.00000000000E+00 0. -1.
         22    1    4    4    0    0 -0.12968577610E+01 -0.35004484788E+00 -0.42941950559E-01  0.13439551551E+01  0.00000000000E+00 0.  1.
         22    1    4    4    0    0  0.19632230735E+02 -0.14680066485E+02  0.41706359721E+02  0.48377156560E+02  0.00000000000E+00 0.  1.
<mgrwt>
<rscale>  0 0.87318399E+02</rscale>
<asrwt>0</asrwt>
<pdfrwt beam="2">  1        1 0.58891426E-02 0.87318399E+02</pdfrwt>
<pdfrwt beam="1">  1       -1 0.76607758E-02 0.87318399E+02</pdfrwt>
<totfact> 0.10172895E+05</totfact>
</mgrwt>
</event>
<event>
 7    1  0.3345055E-009  0.8775935E+02  0.7818608E-02  0.1308370E+00
          1   -1    0    0  501    0  0.00000000000E+00  0.00000000000E+00  0.37725176140E+02  0.37725176476E+02  0.50400000000E-02 0. -1.
         -1   -1    0    0    0  501 -0.00000000000E+00 -0.00000000000E+00 -0.51038218256E+02  0.51038218505E+02  0.50400000000E-02 0.  1.
         23    2    1    2    0    0  0.00000000000E+00  0.00000000000E+00 -0.13313042116E+02  0.88763394981E+02  0.87759348210E+02 0.  0.
    9000005    2    3    3    0    0 -0.36263603345E+02  0.19688273988E+02  0.69366701916E+01  0.42798974950E+02  0.89976554304E+01 0.  0.
         22    1    3    3    0    0  0.36263603345E+02 -0.19688273988E+02 -0.20249712307E+02  0.45964420031E+02  0.00000000000E+00 0.  1.
         22    1    4    4    0    0 -0.29424534480E+02  0.19606982344E+02  0.64496461403E+01  0.35942105132E+02  0.00000000000E+00 0. -1.
         22    1    4    4    0    0 -0.68390688652E+01  0.81291643816E-01  0.48702405126E+00  0.68568698179E+01  0.00000000000E+00 0. -1.
<mgrwt>
<rscale>  0 0.87759348E+02</rscale>
<asrwt>0</asrwt>
<pdfrwt beam="1">  1        1 0.58038733E-02 0.87759348E+02</pdfrwt>
<pdfrwt beam="2">  1       -1 0.78520337E-02 0.87759348E+02</pdfrwt>
<totfact> 0.10008404E+05</totfact>
</mgrwt>
</event>
<event>
 7    1  0.3345055E-009  0.9724862E+02  0.7818608E-02  0.1286190E+00
         -1   -1    0    0    0  501 -0.00000000000E+00  0.00000000000E+00  0.43415666465E+03  0.43415666468E+03  0.50400000000E-02 0.  1.
          1   -1    0    0  501    0  0.00000000000E+00 -0.00000000000E+00 -0.54457831057E+01  0.54457854380E+01  0.50400000000E-02 0. -1.
         23    2    1    2    0    0  0.71054273576E-14  0.35527136788E-14  0.42871088154E+03  0.43960245011E+03  0.97248620528E+02 0.  0.
    9000005    2    3    3    0    0 -0.35505600309E+02 -0.22483175220E+02  0.32390154879E+03  0.32668151737E+03  0.65161075616E+01 0.  0.
         22    1    3    3    0    0  0.35505600309E+02  0.22483175220E+02  0.10480933275E+03  0.11292093275E+03  0.00000000000E+00 0. -1.
         22    1    4    4    0    0 -0.26079239229E+02 -0.19323660481E+02  0.25817032388E+03  0.26020270311E+03  0.00000000000E+00 0. -1.
         22    1    4    4    0    0 -0.94263610795E+01 -0.31595147387E+01  0.65731224909E+02  0.66478814254E+02  0.00000000000E+00 0. -1.
<mgrwt>
<rscale>  0 0.97248621E+02</rscale>
<asrwt>0</asrwt>
<pdfrwt beam="2">  1        1 0.83781259E-03 0.97248621E+02</pdfrwt>
<pdfrwt beam="1">  1       -1 0.66793363E-01 0.97248621E+02</pdfrwt>
<totfact> 0.43093046E+04</totfact>
</mgrwt>
</event>
<event>
 7    1  0.3345055E-009  0.9085431E+02  0.7818608E-02  0.1300796E+00
          1   -1    0    0  501    0  0.00000000000E+00  0.00000000000E+00  0.20337661625E+03  0.20337661631E+03  0.50400000000E-02 0. -1.
         -1   -1    0    0    0  501 -0.00000000000E+00 -0.00000000000E+00 -0.10146821780E+02  0.10146823032E+02  0.50400000000E-02 0.  1.
         23    2    1    2    0    0  0.00000000000E+00  0.00000000000E+00  0.19322979447E+03  0.21352343934E+03  0.90854310180E+02 0.  0.
    9000005    2    3    3    0    0  0.43765987742E+02  0.84632882072E+01  0.11096523478E+03  0.11995770463E+03  0.94593150702E+01 0.  0.
         22    1    3    3    0    0 -0.43765987742E+02 -0.84632882072E+01  0.82264559691E+02  0.93565734708E+02  0.00000000000E+00 0.  1.
         22    1    4    4    0    0  0.20525794641E+02  0.18844687831E-01  0.57432855867E+02  0.60990503636E+02  0.00000000000E+00 0. -1.
         22    1    4    4    0    0  0.23240193102E+02  0.84444435194E+01  0.53532378911E+02  0.58967200999E+02  0.00000000000E+00 0. -1.
<mgrwt>
<rscale>  0 0.90854310E+02</rscale>
<asrwt>0</asrwt>
<pdfrwt beam="1">  1        1 0.31288710E-01 0.90854310E+02</pdfrwt>
<pdfrwt beam="2">  1       -1 0.15610496E-02 0.90854310E+02</pdfrwt>
<totfact> 0.11992508E+05</totfact>
</mgrwt>
</event>
<event>
 7    1  0.3345055E-009  0.9355809E+02  0.7818608E-02  0.1294457E+00
         -1   -1    0    0    0  501 -0.00000000000E+00  0.00000000000E+00  0.58363471792E+03  0.58363471794E+03  0.50400000000E-02 0.  1.
          1   -1    0    0  501    0  0.00000000000E+00 -0.00000000000E+00 -0.37493963998E+01  0.37493997872E+01  0.50400000000E-02 0. -1.
         23    2    1    2    0    0 -0.71054273576E-14  0.44408920985E-15  0.57988532152E+03  0.58738411773E+03  0.93558087013E+02 0.  0.
    9000005    2    3    3    0    0  0.45249956787E+02 -0.21687364962E+01  0.36207286427E+03  0.36491045964E+03  0.32592194707E+01 0.  0.
         22    1    3    3    0    0 -0.45249956787E+02  0.21687364962E+01  0.21781245725E+03  0.22247365809E+03  0.00000000000E+00 0. -1.
         22    1    4    4    0    0  0.70570087392E+01 -0.63938001655E-01  0.66261736447E+02  0.66636500338E+02  0.00000000000E+00 0. -1.
         22    1    4    4    0    0  0.38192948048E+02 -0.21047984945E+01  0.29581112782E+03  0.29827395930E+03  0.00000000000E+00 0. -1.
<mgrwt>
<rscale>  0 0.93558087E+02</rscale>
<asrwt>0</asrwt>
<pdfrwt beam="2">  1        1 0.57683051E-03 0.93558087E+02</pdfrwt>
<pdfrwt beam="1">  1       -1 0.89789952E-01 0.93558087E+02</pdfrwt>
<totfact> 0.39673421E+04</totfact>
</mgrwt>
</event>
<event>
 7    1  0.3345055E-009  0.9073869E+02  0.7818608E-02  0.1301073E+00
         -1   -1    0    0    0  501 -0.00000000000E+00  0.00000000000E+00  0.56999436700E+01  0.56999458983E+01  0.50400000000E-02 0.  1.
          1   -1    0    0  501    0  0.00000000000E+00 -0.00000000000E+00 -0.36112234200E+03  0.36112234203E+03  0.50400000000E-02 0. -1.
         23    2    1    2    0    0 -0.35527136788E-14  0.00000000000E+00 -0.35542239833E+03  0.36682228793E+03  0.90738689047E+02 0.  0.
    9000005    2    3    3    0    0  0.21655866247E+02  0.33592084469E+02 -0.26231519146E+03  0.26549925673E+03  0.91209083776E+01 0.  0.
         22    1    3    3    0    0 -0.21655866247E+02 -0.33592084469E+02 -0.93107206867E+02  0.10132303120E+03  0.00000000000E+00 0.  1.
         22    1    4    4    0    0  0.21385695832E+02  0.33806450690E+02 -0.25008086793E+03  0.25326007305E+03  0.00000000000E+00 0.  1.
         22    1    4    4    0    0  0.27017041485E+00 -0.21436622160E+00 -0.12234323527E+02  0.12239183677E+02  0.00000000000E+00 0.  1.
<mgrwt>
<rscale>  0 0.90738689E+02</rscale>
<asrwt>0</asrwt>
<pdfrwt beam="2">  1        1 0.55557266E-01 0.90738689E+02</pdfrwt>
<pdfrwt beam="1">  1       -1 0.87691486E-03 0.90738689E+02</pdfrwt>
<totfact> 0.13427187E+05</totfact>
</mgrwt>
</event>
<event>
 7    1  0.3345055E-009  0.1034643E+03  0.7818608E-02  0.1273175E+00
          1   -1    0    0  501    0  0.00000000000E+00  0.00000000000E+00  0.28470259996E+03  0.28470260000E+03  0.50400000000E-02 0. -1.
         -1   -1    0    0    0  501 -0.00000000000E+00 -0.00000000000E+00 -0.94000440628E+01  0.94000454139E+01  0.50400000000E-02 0.  1.
         23    2    1    2    0    0  0.13877787808E-16  0.00000000000E+00  0.27530255590E+03  0.29410264542E+03  0.10346433568E+03 0.  0.
    9000005    2    3    3    0    0 -0.34512474456E-01  0.45999190266E+02  0.71077614119E+02  0.84761408342E+02  0.40672372832E+01 0.  0.
         22    1    3    3    0    0  0.34512474456E-01 -0.45999190266E+02  0.20422494178E+03  0.20934123708E+03  0.00000000000E+00 0. -1.
         22    1    4    4    0    0 -0.42426096117E+00  0.45614335309E+02  0.70444708346E+02  0.83924397627E+02  0.00000000000E+00 0. -1.
         22    1    4    4    0    0  0.38974848672E+00  0.38485495686E+00  0.63290577224E+00  0.83701071513E+00  0.00000000000E+00 0. -1.
<mgrwt>
<rscale>  0 0.10346434E+03</rscale>
<asrwt>0</asrwt>
<pdfrwt beam="1">  1        1 0.43800406E-01 0.10346434E+03</pdfrwt>
<pdfrwt beam="2">  1       -1 0.14461605E-02 0.10346434E+03</pdfrwt>
<totfact> 0.90330169E+04</totfact>
</mgrwt>
</event>
<event>
 7    1  0.3629998E-009  0.8999473E+02  0.7818608E-02  0.1302864E+00
         -1   -1    0    0    0  501 -0.00000000000E+00  0.00000000000E+00  0.27491861380E+01  0.27491907579E+01  0.50400000000E-02 0.  1.
          1   -1    0    0  501    0  0.00000000000E+00 -0.00000000000E+00 -0.73649470419E+03  0.73649470421E+03  0.50400000000E-02 0. -1.
         23    2    1    2    0    0  0.00000000000E+00  0.00000000000E+00 -0.73374551806E+03  0.73924389497E+03  0.89994727523E+02 0.  0.
    9000005    2    3    3    0    0  0.21002550263E+02 -0.10795263011E+02 -0.67962456281E+03  0.68019541812E+03  0.14785656583E+02 0.  0.
         22    1    3    3    0    0 -0.21002550263E+02  0.10795263011E+02 -0.54120955245E+02  0.59048476844E+02  0.00000000000E+00 0.  1.
         22    1    4    4    0    0  0.19330655635E+02 -0.32838731107E+01 -0.54344603776E+03  0.54379964511E+03  0.00000000000E+00 0. -1.
         22    1    4    4    0    0  0.16718946280E+01 -0.75113899002E+01 -0.13617852505E+03  0.13639577301E+03  0.00000000000E+00 0. -1.
<mgrwt>
<rscale>  0 0.89994728E+02</rscale>
<asrwt>0</asrwt>
<pdfrwt beam="2">  1        1 0.11330672E+00 0.89994728E+02</pdfrwt>
<pdfrwt beam="1">  1       -1 0.42295266E-03 0.89994728E+02</pdfrwt>
<totfact> 0.14699580E+05</totfact>
</mgrwt>
</event>
<event>
 7    1  0.3345055E-009  0.9000486E+02  0.7818608E-02  0.1302840E+00
         -1   -1    0    0    0  501 -0.00000000000E+00  0.00000000000E+00  0.20659118851E+02  0.20659119466E+02  0.50400000000E-02 0.  1.
          1   -1    0    0  501    0  0.00000000000E+00 -0.00000000000E+00 -0.98030257802E+02  0.98030257932E+02  0.50400000000E-02 0. -1.
         23    2    1    2    0    0  0.00000000000E+00  0.00000000000E+00 -0.77371138951E+02  0.11868937740E+03  0.90004861894E+02 0.  0.
    9000005    2    3    3    0    0 -0.38791064452E+02 -0.47611808989E+01 -0.65409774288E+02  0.77817751917E+02  0.15803430518E+02 0.  0.
         22    1    3    3    0    0  0.38791064452E+02  0.47611808989E+01 -0.11961364662E+02  0.40871625481E+02  0.00000000000E+00 0. -1.
         22    1    4    4    0    0 -0.38205717891E+02 -0.39207344446E+01 -0.66193150940E+02  0.76528310249E+02  0.00000000000E+00 0. -1.
         22    1    4    4    0    0 -0.58534656067E+00 -0.84044645434E+00  0.78337665152E+00  0.12894416687E+01  0.00000000000E+00 0. -1.
<mgrwt>
<rscale>  0 0.90004862E+02</rscale>
<asrwt>0</asrwt>
<pdfrwt beam="2">  1        1 0.15081578E-01 0.90004862E+02</pdfrwt>
<pdfrwt beam="1">  1       -1 0.31783261E-02 0.90004862E+02</pdfrwt>
<totfact> 0.10784103E+05</totfact>
</mgrwt>
</event>
<event>
 7    1  0.3345055E-009  0.9158398E+02  0.7818608E-02  0.1299061E+00
          1   -1    0    0  501    0  0.00000000000E+00  0.00000000000E+00  0.54517576560E+01  0.54517599856E+01  0.50400000000E-02 0. -1.
         -1   -1    0    0    0  501 -0.00000000000E+00 -0.00000000000E+00 -0.38462932543E+03  0.38462932547E+03  0.50400000000E-02 0.  1.
         23    2    1    2    0    0  0.17763568394E-14  0.00000000000E+00 -0.37917756778E+03  0.39008108545E+03  0.91583979613E+02 0.  0.
    9000005    2    3    3    0    0  0.11030585521E+02 -0.44329618986E+02 -0.19069419073E+03  0.19614095975E+03  0.44958619564E+01 0.  0.
         22    1    3    3    0    0 -0.11030585521E+02  0.44329618986E+02 -0.18848337704E+03  0.19394012570E+03  0.00000000000E+00 0.  1.
         22    1    4    4    0    0  0.10617567648E+02 -0.36883298508E+02 -0.15569019304E+03  0.16035132260E+03  0.00000000000E+00 0. -1.
         22    1    4    4    0    0  0.41301787320E+00 -0.74463204785E+01 -0.35003997693E+02  0.35789637144E+02  0.00000000000E+00 0. -1.
<mgrwt>
<rscale>  0 0.91583980E+02</rscale>
<asrwt>0</asrwt>
<pdfrwt beam="1">  1        1 0.83873243E-03 0.91583980E+02</pdfrwt>
<pdfrwt beam="2">  1       -1 0.59173721E-01 0.91583980E+02</pdfrwt>
<totfact> 0.53705981E+04</totfact>
</mgrwt>
</event>
<event>
 7    1  0.3345055E-009  0.1034084E+03  0.7818608E-02  0.1273287E+00
         -1   -1    0    0    0  501 -0.00000000000E+00  0.00000000000E+00  0.56201310233E+02  0.56201310459E+02  0.50400000000E-02 0. -1.
          1   -1    0    0  501    0  0.00000000000E+00 -0.00000000000E+00 -0.47566965866E+02  0.47566966133E+02  0.50400000000E-02 0.  1.
         23    2    1    2    0    0  0.71054273576E-14  0.35527136788E-14  0.86343443669E+01  0.10376827659E+03  0.10340842966E+03 0.  0.
    9000005    2    3    3    0    0 -0.43152611830E+02 -0.24635559470E+02  0.15308195897E+02  0.53632471099E+02  0.13154558007E+02 0.  0.
         22    1    3    3    0    0  0.43152611830E+02  0.24635559470E+02 -0.66738515297E+01  0.50135805493E+02  0.00000000000E+00 0.  1.
         22    1    4    4    0    0 -0.86035511791E+00 -0.24913908161E+01 -0.14858976035E+01  0.30257446713E+01  0.00000000000E+00 0.  1.
         22    1    4    4    0    0 -0.42292256712E+02 -0.22144168654E+02  0.16794093500E+02  0.50606726427E+02  0.00000000000E+00 0.  1.
<mgrwt>
<rscale>  0 0.10340843E+03</rscale>
<asrwt>0</asrwt>
<pdfrwt beam="2">  1        1 0.73179948E-02 0.10340843E+03</pdfrwt>
<pdfrwt beam="1">  1       -1 0.86463554E-02 0.10340843E+03</pdfrwt>
<totfact> 0.65152331E+04</totfact>
</mgrwt>
</event>
<event>
 7    1  0.3345055E-009  0.9099227E+02  0.7818608E-02  0.1300466E+00
         -1   -1    0    0    0  501 -0.00000000000E+00  0.00000000000E+00  0.63911576403E+01  0.63911596276E+01  0.50400000000E-02 0.  1.
          1   -1    0    0  501    0  0.00000000000E+00 -0.00000000000E+00 -0.32386900442E+03  0.32386900446E+03  0.50400000000E-02 0. -1.
         23    2    1    2    0    0  0.00000000000E+00  0.00000000000E+00 -0.31747784678E+03  0.33026016409E+03  0.90992267731E+02 0.  0.
    9000005    2    3    3    0    0 -0.16313272439E+02  0.34648458400E+02 -0.24538474610E+03  0.24862650869E+03  0.11611575257E+02 0.  0.
         22    1    3    3    0    0  0.16313272439E+02 -0.34648458400E+02 -0.72093100683E+02  0.81633655395E+02  0.00000000000E+00 0.  1.
         22    1    4    4    0    0 -0.13703123146E+00  0.12923812896E+02 -0.76934969299E+02  0.78013032362E+02  0.00000000000E+00 0. -1.
         22    1    4    4    0    0 -0.16176241207E+02  0.21724645504E+02 -0.16844977680E+03  0.17061347633E+03  0.00000000000E+00 0. -1.
<mgrwt>
<rscale>  0 0.90992268E+02</rscale>
<asrwt>0</asrwt>
<pdfrwt beam="2">  1        1 0.49825988E-01 0.90992268E+02</pdfrwt>
<pdfrwt beam="1">  1       -1 0.98325543E-03 0.90992268E+02</pdfrwt>
<totfact> 0.13068485E+05</totfact>
</mgrwt>
</event>
<event>
 7    1  0.3345055E-009  0.8761025E+02  0.7818608E-02  0.1308744E+00
          1   -1    0    0  501    0  0.00000000000E+00  0.00000000000E+00  0.22696244845E+03  0.22696244851E+03  0.50400000000E-02 0. -1.
         -1   -1    0    0    0  501 -0.00000000000E+00 -0.00000000000E+00 -0.84546527095E+01  0.84546542117E+01  0.50400000000E-02 0.  1.
         23    2    1    2    0    0  0.00000000000E+00  0.00000000000E+00  0.21850779574E+03  0.23541710272E+03  0.87610247418E+02 0.  0.
    9000005    2    3    3    0    0  0.19202562746E+02 -0.13699602104E+02  0.20842847494E+03  0.20976539280E+03  0.16350342741E+01 0.  0.
         22    1    3    3    0    0 -0.19202562746E+02  0.13699602104E+02  0.10079320799E+02  0.25651709916E+02  0.00000000000E+00 0.  1.
         22    1    4    4    0    0  0.12504056669E+02 -0.91145456873E+01  0.12981189323E+03  0.13073084563E+03  0.00000000000E+00 0.  1.
         22    1    4    4    0    0  0.66985060771E+01 -0.45850564164E+01  0.78616581715E+02  0.79034547171E+02  0.00000000000E+00 0.  1.
<mgrwt>
<rscale>  0 0.87610247E+02</rscale>
<asrwt>0</asrwt>
<pdfrwt beam="1">  1        1 0.34917307E-01 0.87610247E+02</pdfrwt>
<pdfrwt beam="2">  1       -1 0.13007157E-02 0.87610247E+02</pdfrwt>
<totfact> 0.13499402E+05</totfact>
</mgrwt>
</event>
<event>
 7    1  0.3345055E-009  0.9149795E+02  0.7818608E-02  0.1299264E+00
         -1   -1    0    0    0  501 -0.00000000000E+00  0.00000000000E+00  0.44353504036E+01  0.44353532671E+01  0.50400000000E-02 0.  1.
          1   -1    0    0  501    0  0.00000000000E+00 -0.00000000000E+00 -0.47188332125E+03  0.47188332128E+03  0.50400000000E-02 0. -1.
         23    2    1    2    0    0 -0.71054273576E-14  0.00000000000E+00 -0.46744797085E+03  0.47631867455E+03  0.91497946813E+02 0.  0.
    9000005    2    3    3    0    0 -0.43772511021E+02  0.98504089540E+01 -0.19646135830E+03  0.20164285206E+03  0.70506173039E+01 0.  0.
         22    1    3    3    0    0  0.43772511021E+02 -0.98504089540E+01 -0.27098661255E+03  0.27467582249E+03  0.00000000000E+00 0.  1.
         22    1    4    4    0    0 -0.42704173271E+02  0.10396096808E+02 -0.18646892828E+03  0.19157866911E+03  0.00000000000E+00 0.  1.
         22    1    4    4    0    0 -0.10683377497E+01 -0.54568785391E+00 -0.99924300161E+01  0.10064182948E+02  0.00000000000E+00 0.  1.
<mgrwt>
<rscale>  0 0.91497947E+02</rscale>
<asrwt>0</asrwt>
<pdfrwt beam="2">  1        1 0.72597395E-01 0.91497947E+02</pdfrwt>
<pdfrwt beam="1">  1       -1 0.68236220E-03 0.91497947E+02</pdfrwt>
<totfact> 0.13697487E+05</totfact>
</mgrwt>
</event>
<event>
 7    1  0.3345055E-009  0.9169893E+02  0.7818608E-02  0.1298789E+00
          1   -1    0    0  501    0  0.00000000000E+00  0.00000000000E+00  0.32293533664E+02  0.32293534057E+02  0.50400000000E-02 0. -1.
         -1   -1    0    0    0  501 -0.00000000000E+00 -0.00000000000E+00 -0.65095799502E+02  0.65095799697E+02  0.50400000000E-02 0.  1.
         23    2    1    2    0    0  0.00000000000E+00  0.00000000000E+00 -0.32802265838E+02  0.97389333754E+02  0.91698929574E+02 0.  0.
    9000005    2    3    3    0    0  0.16990440063E+02 -0.35523528865E+02 -0.39395190149E+02  0.57463617636E+02  0.14124099559E+02 0.  0.
         22    1    3    3    0    0 -0.16990440063E+02  0.35523528865E+02  0.65929243117E+01  0.39925716118E+02  0.00000000000E+00 0. -1.
         22    1    4    4    0    0  0.63166379385E+01 -0.25678082355E+01 -0.38508736366E+01  0.78308863959E+01  0.00000000000E+00 0.  1.
         22    1    4    4    0    0  0.10673802125E+02 -0.32955720629E+02 -0.35544316513E+02  0.49632731240E+02  0.00000000000E+00 0.  1.
<mgrwt>
<rscale>  0 0.91698930E+02</rscale>
<asrwt>0</asrwt>
<pdfrwt beam="1">  1        1 0.49682360E-02 0.91698930E+02</pdfrwt>
<pdfrwt beam="2">  1       -1 0.10014738E-01 0.91698930E+02</pdfrwt>
<totfact> 0.86288388E+04</totfact>
</mgrwt>
</event>
<event>
 7    1  0.4444527E-009  0.9070428E+02  0.7818608E-02  0.1301155E+00
         -1   -1    0    0    0  501 -0.00000000000E+00  0.00000000000E+00  0.85122006605E+03  0.85122006607E+03  0.50400000000E-02 0.  1.
          1   -1    0    0  501    0  0.00000000000E+00 -0.00000000000E+00 -0.24163133499E+01  0.24163186062E+01  0.50400000000E-02 0. -1.
         23    2    1    2    0    0  0.35527136788E-14  0.35527136788E-14  0.84880375270E+03  0.85363638467E+03  0.90704281247E+02 0.  0.
    9000005    2    3    3    0    0  0.21132651396E+02  0.19729950033E+02  0.74907833249E+03  0.74980469721E+03  0.15902071596E+02 0.  0.
         22    1    3    3    0    0 -0.21132651396E+02 -0.19729950033E+02  0.99725420216E+02  0.10383168746E+03  0.00000000000E+00 0. -1.
         22    1    4    4    0    0  0.23172819056E+02  0.20092091848E+02  0.67352704187E+03  0.67422499792E+03  0.00000000000E+00 0.  1.
         22    1    4    4    0    0 -0.20401676603E+01 -0.36214181513E+00  0.75551290619E+02  0.75579699292E+02  0.00000000000E+00 0.  1.
<mgrwt>
<rscale>  0 0.90704281E+02</rscale>
<asrwt>0</asrwt>
<pdfrwt beam="2">  1        1 0.37174131E-03 0.90704281E+02</pdfrwt>
<pdfrwt beam="1">  1       -1 0.13095680E+00 0.90704281E+02</pdfrwt>
<totfact> 0.31115651E+04</totfact>
</mgrwt>
</event>
<event>
 7    1  0.3345055E-009  0.9074828E+02  0.7818608E-02  0.1301050E+00
          1   -1    0    0  501    0  0.00000000000E+00  0.00000000000E+00  0.85206568995E+02  0.85206569144E+02  0.50400000000E-02 0. -1.
         -1   -1    0    0    0  501 -0.00000000000E+00 -0.00000000000E+00 -0.24162605653E+02  0.24162606179E+02  0.50400000000E-02 0.  1.
         23    2    1    2    0    0  0.00000000000E+00  0.00000000000E+00  0.61043963342E+02  0.10936917532E+03  0.90748284008E+02 0.  0.
    9000005    2    3    3    0    0  0.32743582886E+02  0.12721443669E+01 -0.43544067614E+01  0.36220645716E+02  0.14805868643E+02 0.  0.
         22    1    3    3    0    0 -0.32743582886E+02 -0.12721443669E+01  0.65398370103E+02  0.73148529607E+02  0.00000000000E+00 0. -1.
         22    1    4    4    0    0  0.35950654700E+01 -0.49754994401E+01 -0.10490135005E+01  0.62274007207E+01  0.00000000000E+00 0. -1.
         22    1    4    4    0    0  0.29148517416E+02  0.62476438071E+01 -0.33053932609E+01  0.29993244995E+02  0.00000000000E+00 0. -1.
<mgrwt>
<rscale>  0 0.90748284E+02</rscale>
<asrwt>0</asrwt>
<pdfrwt beam="1">  1        1 0.13108703E-01 0.90748284E+02</pdfrwt>
<pdfrwt beam="2">  1       -1 0.37173240E-02 0.90748284E+02</pdfrwt>
<totfact> 0.10307970E+05</totfact>
</mgrwt>
</event>
<event>
 7    1  0.3345055E-009  0.9133969E+02  0.7818608E-02  0.1299639E+00
         -1   -1    0    0    0  501 -0.00000000000E+00  0.00000000000E+00  0.31659051170E+03  0.31659051174E+03  0.50400000000E-02 0.  1.
          1   -1    0    0  501    0  0.00000000000E+00 -0.00000000000E+00 -0.65881146264E+01  0.65881165542E+01  0.50400000000E-02 0. -1.
         23    2    1    2    0    0  0.00000000000E+00  0.00000000000E+00  0.31000239708E+03  0.32317862830E+03  0.91339693425E+02 0.  0.
    9000005    2    3    3    0    0 -0.36583231594E+02 -0.98798943692E+01  0.24105169464E+03  0.24450115685E+03  0.15458042136E+02 0.  0.
         22    1    3    3    0    0  0.36583231594E+02  0.98798943692E+01  0.68950702441E+02  0.78677471450E+02  0.00000000000E+00 0. -1.
         22    1    4    4    0    0 -0.33143778155E+02 -0.52650091960E+01  0.17426788075E+03  0.17746978507E+03  0.00000000000E+00 0.  1.
         22    1    4    4    0    0 -0.34394534386E+01 -0.46148851732E+01  0.66783813886E+02  0.67031371777E+02  0.00000000000E+00 0.  1.
<mgrwt>
<rscale>  0 0.91339693E+02</rscale>
<asrwt>0</asrwt>
<pdfrwt beam="2">  1        1 0.10135562E-02 0.91339693E+02</pdfrwt>
<pdfrwt beam="1">  1       -1 0.48706234E-01 0.91339693E+02</pdfrwt>
<totfact> 0.59011236E+04</totfact>
</mgrwt>
</event>
<event>
 7    1  0.3345055E-009  0.8981424E+02  0.7818608E-02  0.1303302E+00
         -1   -1    0    0    0  501 -0.00000000000E+00  0.00000000000E+00  0.15331761719E+03  0.15331761727E+03  0.50400000000E-02 0.  1.
          1   -1    0    0  501    0  0.00000000000E+00 -0.00000000000E+00 -0.13153407659E+02  0.13153408625E+02  0.50400000000E-02 0. -1.
         23    2    1    2    0    0  0.00000000000E+00  0.00000000000E+00  0.14016420953E+03  0.16647102590E+03  0.89814235120E+02 0.  0.
    9000005    2    3    3    0    0  0.15055868344E+02 -0.27678701336E+02  0.14116910972E+02  0.36545234951E+02  0.11978202830E+02 0.  0.
         22    1    3    3    0    0 -0.15055868344E+02  0.27678701336E+02  0.12604729856E+03  0.12992579095E+03  0.00000000000E+00 0.  1.
         22    1    4    4    0    0  0.12322251539E+02 -0.12163518069E+02  0.38390516796E+01  0.17734919582E+02  0.00000000000E+00 0.  1.
         22    1    4    4    0    0  0.27336168052E+01 -0.15515183267E+02  0.10277859293E+02  0.18810315369E+02  0.00000000000E+00 0.  1.
<mgrwt>
<rscale>  0 0.89814235E+02</rscale>
<asrwt>0</asrwt>
<pdfrwt beam="2">  1        1 0.20236011E-02 0.89814235E+02</pdfrwt>
<pdfrwt beam="1">  1       -1 0.23587327E-01 0.89814235E+02</pdfrwt>
<totfact> 0.77366780E+04</totfact>
</mgrwt>
</event>
<event>
 7    1  0.3345055E-009  0.9176093E+02  0.7818608E-02  0.1298643E+00
         -1   -1    0    0    0  501 -0.00000000000E+00  0.00000000000E+00  0.46227277289E+02  0.46227277564E+02  0.50400000000E-02 0.  1.
          1   -1    0    0  501    0  0.00000000000E+00 -0.00000000000E+00 -0.45536255080E+02  0.45536255358E+02  0.50400000000E-02 0. -1.
         23    2    1    2    0    0  0.00000000000E+00  0.35527136788E-14  0.69102220965E+00  0.91763532922E+02  0.91760931026E+02 0.  0.
    9000005    2    3    3    0    0  0.69968313918E+01 -0.31965935101E+02 -0.30410792143E+02  0.46618217413E+02  0.13329113235E+02 0.  0.
         22    1    3    3    0    0 -0.69968313918E+01  0.31965935101E+02  0.31101814353E+02  0.45145315509E+02  0.00000000000E+00 0.  1.
         22    1    4    4    0    0  0.99383409769E+01 -0.27679898810E+02 -0.28832239171E+02  0.41185500302E+02  0.00000000000E+00 0.  1.
         22    1    4    4    0    0 -0.29415095851E+01 -0.42860362909E+01 -0.15785529718E+01  0.54327171112E+01  0.00000000000E+00 0.  1.
<mgrwt>
<rscale>  0 0.91760931E+02</rscale>
<asrwt>0</asrwt>
<pdfrwt beam="2">  1        1 0.70055777E-02 0.91760931E+02</pdfrwt>
<pdfrwt beam="1">  1       -1 0.71118889E-02 0.91760931E+02</pdfrwt>
<totfact> 0.90811363E+04</totfact>
</mgrwt>
</event>
<event>
 7    1  0.3345055E-009  0.9151434E+02  0.7818608E-02  0.1299225E+00
         -1   -1    0    0    0  501 -0.00000000000E+00  0.00000000000E+00  0.79905393971E+01  0.79905409866E+01  0.50400000000E-02 0.  1.
          1   -1    0    0  501    0  0.00000000000E+00 -0.00000000000E+00 -0.26202466896E+03  0.26202466901E+03  0.50400000000E-02 0. -1.
         23    2    1    2    0    0  0.00000000000E+00  0.00000000000E+00 -0.25403412956E+03  0.27001520999E+03  0.91514341203E+02 0.  0.
    9000005    2    3    3    0    0 -0.33348617570E+02  0.30919292991E+02 -0.13187235747E+03  0.13966325744E+03  0.68828658570E+01 0.  0.
         22    1    3    3    0    0  0.33348617570E+02 -0.30919292991E+02 -0.12216177209E+03  0.13035195255E+03  0.00000000000E+00 0. -1.
         22    1    4    4    0    0 -0.51003683860E+01  0.85233951194E+01 -0.29854321006E+02  0.31463351772E+02  0.00000000000E+00 0. -1.
         22    1    4    4    0    0 -0.28248249184E+02  0.22395897871E+02 -0.10201803646E+03  0.10819990567E+03  0.00000000000E+00 0. -1.
<mgrwt>
<rscale>  0 0.91514341E+02</rscale>
<asrwt>0</asrwt>
<pdfrwt beam="2">  1        1 0.40311481E-01 0.91514341E+02</pdfrwt>
<pdfrwt beam="1">  1       -1 0.12293141E-02 0.91514341E+02</pdfrwt>
<totfact> 0.12358303E+05</totfact>
</mgrwt>
</event>
<event>
 7    1  0.3345055E-009  0.8178055E+02  0.7818608E-02  0.1324073E+00
         -1   -1    0    0    0  501 -0.00000000000E+00  0.00000000000E+00  0.24123117085E+03  0.24123117090E+03  0.50400000000E-02 0.  1.
          1   -1    0    0  501    0  0.00000000000E+00 -0.00000000000E+00 -0.69311700845E+01  0.69311719169E+01  0.50400000000E-02 0. -1.
         23    2    1    2    0    0  0.00000000000E+00  0.00000000000E+00  0.23430000076E+03  0.24816234281E+03  0.81780548022E+02 0.  0.
    9000005    2    3    3    0    0  0.42827169202E+01  0.26617626340E+02  0.20960399318E+03  0.21160099045E+03  0.10691375356E+02 0.  0.
         22    1    3    3    0    0 -0.42827169202E+01 -0.26617626340E+02  0.24696007581E+02  0.36561352364E+02  0.00000000000E+00 0. -1.
         22    1    4    4    0    0 -0.10810084321E+01  0.39788159041E+01  0.65623185722E+02  0.65752582151E+02  0.00000000000E+00 0.  1.
         22    1    4    4    0    0  0.53637253523E+01  0.22638810436E+02  0.14398080746E+03  0.14584840830E+03  0.00000000000E+00 0.  1.
<mgrwt>
<rscale>  0 0.81780548E+02</rscale>
<asrwt>0</asrwt>
<pdfrwt beam="2">  1        1 0.10663341E-02 0.81780548E+02</pdfrwt>
<pdfrwt beam="1">  1       -1 0.37112484E-01 0.81780548E+02</pdfrwt>
<totfact> 0.86960691E+04</totfact>
</mgrwt>
</event>
<event>
 7    1  0.3345055E-009  0.9179028E+02  0.7818608E-02  0.1298573E+00
          1   -1    0    0  501    0  0.00000000000E+00  0.00000000000E+00  0.27370626537E+02  0.27370627001E+02  0.50400000000E-02 0. -1.
         -1   -1    0    0    0  501 -0.00000000000E+00 -0.00000000000E+00 -0.76957094408E+02  0.76957094573E+02  0.50400000000E-02 0.  1.
         23    2    1    2    0    0  0.00000000000E+00  0.00000000000E+00 -0.49586467872E+02  0.10432772157E+03  0.91790281037E+02 0.  0.
    9000005    2    3    3    0    0  0.18057783265E+02 -0.12347134166E+02 -0.69927326355E+02  0.74456568560E+02  0.13244409088E+02 0.  0.
         22    1    3    3    0    0 -0.18057783265E+02  0.12347134166E+02  0.20340858483E+02  0.29871153014E+02  0.00000000000E+00 0. -1.
         22    1    4    4    0    0  0.17571981904E+02 -0.11748095712E+02 -0.47207931545E+02  0.51724086282E+02  0.00000000000E+00 0. -1.
         22    1    4    4    0    0  0.48580136087E+00 -0.59903845393E+00 -0.22719394809E+02  0.22732482278E+02  0.00000000000E+00 0. -1.
<mgrwt>
<rscale>  0 0.91790281E+02</rscale>
<asrwt>0</asrwt>
<pdfrwt beam="1">  1        1 0.42108657E-02 0.91790281E+02</pdfrwt>
<pdfrwt beam="2">  1       -1 0.11839553E-01 0.91790281E+02</pdfrwt>
<totfact> 0.83753672E+04</totfact>
</mgrwt>
</event>
<event>
 7    1  0.3345055E-009  0.8630742E+02  0.7818608E-02  0.1312048E+00
          1   -1    0    0  501    0  0.00000000000E+00  0.00000000000E+00  0.39155008506E+02  0.39155008831E+02  0.50400000000E-02 0. -1.
         -1   -1    0    0    0  501 -0.00000000000E+00 -0.00000000000E+00 -0.47560777687E+02  0.47560777954E+02  0.50400000000E-02 0.  1.
         23    2    1    2    0    0  0.00000000000E+00  0.00000000000E+00 -0.84057691805E+01  0.86715786784E+02  0.86307419855E+02 0.  0.
    9000005    2    3    3    0    0 -0.23734007965E+02 -0.25833904856E+02 -0.29253467615E+02  0.45907450575E+02  0.45863794642E+01 0.  0.
         22    1    3    3    0    0  0.23734007965E+02  0.25833904856E+02  0.20847698434E+02  0.40808336210E+02  0.00000000000E+00 0. -1.
         22    1    4    4    0    0 -0.76896712430E+01 -0.10248228009E+02 -0.83562404110E+01  0.15296534737E+02  0.00000000000E+00 0. -1.
         22    1    4    4    0    0 -0.16044336722E+02 -0.15585676847E+02 -0.20897227204E+02  0.30610915838E+02  0.00000000000E+00 0. -1.
<mgrwt>
<rscale>  0 0.86307420E+02</rscale>
<asrwt>0</asrwt>
<pdfrwt beam="1">  1        1 0.60238475E-02 0.86307420E+02</pdfrwt>
<pdfrwt beam="2">  1       -1 0.73170428E-02 0.86307420E+02</pdfrwt>
<totfact> 0.10545225E+05</totfact>
</mgrwt>
</event>
<event>
 7    1  0.3345055E-009  0.9192602E+02  0.7818608E-02  0.1298253E+00
          1   -1    0    0  501    0  0.00000000000E+00  0.00000000000E+00  0.10744425806E+04  0.10744425806E+04  0.50400000000E-02 0. -1.
         -1   -1    0    0    0  501 -0.00000000000E+00 -0.00000000000E+00 -0.19662238942E+01  0.19662303537E+01  0.50400000000E-02 0.  1.
         23    2    1    2    0    0 -0.35527136788E-14  0.00000000000E+00  0.10724763567E+04  0.10764088109E+04  0.91926017161E+02 0.  0.
    9000005    2    3    3    0    0 -0.29076924383E+02  0.16392995416E+02  0.90308026441E+03  0.90375530270E+03  0.10270606898E+02 0.  0.
         22    1    3    3    0    0  0.29076924383E+02 -0.16392995416E+02  0.16939609227E+03  0.17265350824E+03  0.00000000000E+00 0.  1.
         22    1    4    4    0    0 -0.28396800578E+02  0.13728107559E+02  0.76857866881E+03  0.76922559069E+03  0.00000000000E+00 0.  1.
         22    1    4    4    0    0 -0.68012380459E+00  0.26648878574E+01  0.13450159560E+03  0.13452971202E+03  0.00000000000E+00 0.  1.
<mgrwt>
<rscale>  0 0.91926017E+02</rscale>
<asrwt>0</asrwt>
<pdfrwt beam="1">  1        1 0.16529906E+00 0.91926017E+02</pdfrwt>
<pdfrwt beam="2">  1       -1 0.30249611E-03 0.91926017E+02</pdfrwt>
<totfact> 0.13024905E+05</totfact>
</mgrwt>
</event>
<event>
 7    1  0.3345055E-009  0.9053235E+02  0.7818608E-02  0.1301568E+00
          1   -1    0    0  501    0  0.00000000000E+00  0.00000000000E+00  0.52611677452E+02  0.52611677694E+02  0.50400000000E-02 0.  1.
         -1   -1    0    0    0  501 -0.00000000000E+00 -0.00000000000E+00 -0.38946228813E+02  0.38946229140E+02  0.50400000000E-02 0. -1.
         23    2    1    2    0    0  0.00000000000E+00  0.00000000000E+00  0.13665448639E+02  0.91557906833E+02  0.90532346801E+02 0.  0.
    9000005    2    3    3    0    0 -0.11123372343E+02 -0.40763456711E+02 -0.83830552841E+01  0.43897385009E+02  0.84448788874E+01 0.  0.
         22    1    3    3    0    0  0.11123372343E+02  0.40763456711E+02  0.22048503923E+02  0.47660521824E+02  0.00000000000E+00 0.  1.
         22    1    4    4    0    0 -0.53469677570E+01 -0.25186991859E+02 -0.11384786506E+01  0.25773450617E+02  0.00000000000E+00 0. -1.
         22    1    4    4    0    0 -0.57764045862E+01 -0.15576464852E+02 -0.72445766335E+01  0.18123934392E+02  0.00000000000E+00 0. -1.
<mgrwt>
<rscale>  0 0.90532347E+02</rscale>
<asrwt>0</asrwt>
<pdfrwt beam="1">  1        1 0.80941043E-02 0.90532347E+02</pdfrwt>
<pdfrwt beam="2">  1       -1 0.59917276E-02 0.90532347E+02</pdfrwt>
<totfact> 0.96368764E+04</totfact>
</mgrwt>
</event>
<event>
 7    1  0.3345055E-009  0.9199482E+02  0.7818608E-02  0.1298092E+00
          1   -1    0    0  501    0  0.00000000000E+00  0.00000000000E+00  0.56701465287E+03  0.56701465289E+03  0.50400000000E-02 0. -1.
         -1   -1    0    0    0  501 -0.00000000000E+00 -0.00000000000E+00 -0.37314043657E+01  0.37314077694E+01  0.50400000000E-02 0.  1.
         23    2    1    2    0    0  0.00000000000E+00  0.00000000000E+00  0.56328324851E+03  0.57074606066E+03  0.91994824395E+02 0.  0.
    9000005    2    3    3    0    0  0.78279469828E+00 -0.16712213666E+02  0.54725046897E+03  0.54757364446E+03  0.85970613061E+01 0.  0.
         22    1    3    3    0    0 -0.78279469828E+00  0.16712213666E+02  0.16032779535E+02  0.23172416205E+02  0.00000000000E+00 0.  1.
         22    1    4    4    0    0 -0.24251312827E+01 -0.80452548808E+01  0.35696920136E+03  0.35706808610E+03  0.00000000000E+00 0. -1.
         22    1    4    4    0    0  0.32079259810E+01 -0.86669587856E+01  0.19028126761E+03  0.19050555836E+03  0.00000000000E+00 0. -1.
<mgrwt>
<rscale>  0 0.91994824E+02</rscale>
<asrwt>0</asrwt>
<pdfrwt beam="1">  1        1 0.87233013E-01 0.91994824E+02</pdfrwt>
<pdfrwt beam="2">  1       -1 0.57406254E-03 0.91994824E+02</pdfrwt>
<totfact> 0.13772851E+05</totfact>
</mgrwt>
</event>
<event>
 7    1  0.3345055E-009  0.9073720E+02  0.7818608E-02  0.1301076E+00
         -1   -1    0    0    0  501 -0.00000000000E+00  0.00000000000E+00  0.25224844160E+03  0.25224844165E+03  0.50400000000E-02 0.  1.
          1   -1    0    0  501    0  0.00000000000E+00 -0.00000000000E+00 -0.81598504216E+01  0.81598519781E+01  0.50400000000E-02 0. -1.
         23    2    1    2    0    0  0.00000000000E+00  0.00000000000E+00  0.24408859118E+03  0.26040829363E+03  0.90737197703E+02 0.  0.
    9000005    2    3    3    0    0  0.29324357027E+02  0.20067960619E+02  0.44814323160E+02  0.57990718175E+02  0.95895190521E+01 0.  0.
         22    1    3    3    0    0 -0.29324357027E+02 -0.20067960619E+02  0.19927426802E+03  0.20241757545E+03  0.00000000000E+00 0.  1.
         22    1    4    4    0    0  0.20666095723E+02  0.14843971651E+02  0.24618967462E+02  0.35405148859E+02  0.00000000000E+00 0.  1.
         22    1    4    4    0    0  0.86582613043E+01  0.52239889672E+01  0.20195355698E+02  0.22585569316E+02  0.00000000000E+00 0.  1.
<mgrwt>
<rscale>  0 0.90737198E+02</rscale>
<asrwt>0</asrwt>
<pdfrwt beam="2">  1        1 0.12553618E-02 0.90737198E+02</pdfrwt>
<pdfrwt beam="1">  1       -1 0.38807450E-01 0.90737198E+02</pdfrwt>
<totfact> 0.65387923E+04</totfact>
</mgrwt>
</event>
<event>
 7    1  0.3345055E-009  0.9120304E+02  0.7818608E-02  0.1299964E+00
         -1   -1    0    0    0  501 -0.00000000000E+00  0.00000000000E+00  0.36158015254E+02  0.36158015605E+02  0.50400000000E-02 0. -1.
          1   -1    0    0  501    0  0.00000000000E+00 -0.00000000000E+00 -0.57511411987E+02  0.57511412208E+02  0.50400000000E-02 0.  1.
         23    2    1    2    0    0  0.00000000000E+00 -0.35527136788E-14 -0.21353396733E+02  0.93669427813E+02  0.91203038078E+02 0.  0.
    9000005    2    3    3    0    0  0.16687816909E+02 -0.27963851832E+02  0.21073092944E+02  0.40186091447E+02  0.10506495949E+02 0.  0.
         22    1    3    3    0    0 -0.16687816909E+02  0.27963851832E+02 -0.42426489677E+02  0.53483336366E+02  0.00000000000E+00 0.  1.
         22    1    4    4    0    0  0.10069224506E+02 -0.71749705698E+01  0.67364342464E+01  0.14080093437E+02  0.00000000000E+00 0.  1.
         22    1    4    4    0    0  0.66185924030E+01 -0.20788881262E+02  0.14336658698E+02  0.26105998011E+02  0.00000000000E+00 0.  1.
<mgrwt>
<rscale>  0 0.91203038E+02</rscale>
<asrwt>0</asrwt>
<pdfrwt beam="2">  1        1 0.88479096E-02 0.91203038E+02</pdfrwt>
<pdfrwt beam="1">  1       -1 0.55627716E-02 0.91203038E+02</pdfrwt>
<totfact> 0.95680088E+04</totfact>
</mgrwt>
</event>
<event>
 7    1  0.3345055E-009  0.9536273E+02  0.7818608E-02  0.1290361E+00
          1   -1    0    0  501    0  0.00000000000E+00  0.00000000000E+00  0.96094386453E+02  0.96094386585E+02  0.50400000000E-02 0. -1.
         -1   -1    0    0    0  501 -0.00000000000E+00 -0.00000000000E+00 -0.23659160798E+02  0.23659161335E+02  0.50400000000E-02 0.  1.
         23    2    1    2    0    0  0.00000000000E+00  0.00000000000E+00  0.72435225654E+02  0.11975354792E+03  0.95362730267E+02 0.  0.
    9000005    2    3    3    0    0 -0.14887154288E+02 -0.44253238157E+01 -0.18448690603E+02  0.27552153745E+02  0.13325019225E+02 0.  0.
         22    1    3    3    0    0  0.14887154288E+02  0.44253238157E+01  0.90883916257E+02  0.92201394175E+02  0.00000000000E+00 0. -1.
         22    1    4    4    0    0 -0.13305773916E+02  0.29961114073E+00 -0.18221414072E+02  0.22564425921E+02  0.00000000000E+00 0.  1.
         22    1    4    4    0    0 -0.15813803715E+01 -0.47249349565E+01 -0.22727653026E+00  0.49877278237E+01  0.00000000000E+00 0.  1.
<mgrwt>
<rscale>  0 0.95362730E+02</rscale>
<asrwt>0</asrwt>
<pdfrwt beam="1">  1        1 0.14783752E-01 0.95362730E+02</pdfrwt>
<pdfrwt beam="2">  1       -1 0.36398710E-02 0.95362730E+02</pdfrwt>
<totfact> 0.91758857E+04</totfact>
</mgrwt>
</event>
<event>
 7    1  0.3345055E-009  0.7136592E+02  0.7818608E-02  0.1355509E+00
          1   -1    0    0  501    0  0.00000000000E+00  0.00000000000E+00  0.13270729671E+02  0.13270730628E+02  0.50400000000E-02 0. -1.
         -1   -1    0    0    0  501 -0.00000000000E+00 -0.00000000000E+00 -0.95946005410E+02  0.95946005542E+02  0.50400000000E-02 0.  1.
         23    2    1    2    0    0  0.00000000000E+00 -0.22204460493E-15 -0.82675275739E+02  0.10921673617E+03  0.71365917925E+02 0.  0.
    9000005    2    3    3    0    0 -0.18284386447E+02 -0.13846461464E+01  0.29505902979E+01  0.21649476494E+02  0.11124649058E+02 0.  0.
         22    1    3    3    0    0  0.18284386447E+02  0.13846461464E+01 -0.85625866037E+02  0.87567259677E+02  0.00000000000E+00 0.  1.
         22    1    4    4    0    0 -0.17873265949E+02 -0.27362898519E+01  0.53575423209E+01  0.18858530631E+02  0.00000000000E+00 0.  1.
         22    1    4    4    0    0 -0.41112049830E+00  0.13516437055E+01 -0.24069520230E+01  0.27909458633E+01  0.00000000000E+00 0.  1.
<mgrwt>
<rscale>  0 0.71365918E+02</rscale>
<asrwt>0</asrwt>
<pdfrwt beam="1">  1        1 0.20416509E-02 0.71365918E+02</pdfrwt>
<pdfrwt beam="2">  1       -1 0.14760924E-01 0.71365918E+02</pdfrwt>
<totfact> 0.15344820E+05</totfact>
</mgrwt>
</event>
<event>
 7    1  0.4040117E-009  0.9360206E+02  0.7818608E-02  0.1294356E+00
         -1   -1    0    0    0  501 -0.00000000000E+00  0.00000000000E+00  0.83157612357E+01  0.83157627630E+01  0.50400000000E-02 0.  1.
          1   -1    0    0  501    0  0.00000000000E+00 -0.00000000000E+00 -0.26339573359E+03  0.26339573364E+03  0.50400000000E-02 0. -1.
         23    2    1    2    0    0  0.00000000000E+00  0.00000000000E+00 -0.25507997236E+03  0.27171149640E+03  0.93602056497E+02 0.  0.
    9000005    2    3    3    0    0  0.33050578100E+02  0.26991803252E+02 -0.85067943963E+02  0.96426049335E+02  0.15509021398E+02 0.  0.
         22    1    3    3    0    0 -0.33050578100E+02 -0.26991803252E+02 -0.17001202839E+03  0.17528544707E+03  0.00000000000E+00 0. -1.
         22    1    4    4    0    0  0.24942027500E+02  0.19315637006E+02 -0.45885444055E+02  0.55683682932E+02  0.00000000000E+00 0. -1.
         22    1    4    4    0    0  0.81085505997E+01  0.76761662463E+01 -0.39182499908E+02  0.40742366403E+02  0.00000000000E+00 0. -1.
<mgrwt>
<rscale>  0 0.93602056E+02</rscale>
<asrwt>0</asrwt>
<pdfrwt beam="2">  1        1 0.40522414E-01 0.93602056E+02</pdfrwt>
<pdfrwt beam="1">  1       -1 0.12793482E-02 0.93602056E+02</pdfrwt>
<totfact> 0.11646487E+05</totfact>
</mgrwt>
</event>
<event>
 7    1  0.3345055E-009  0.8624452E+02  0.7818608E-02  0.1312210E+00
         -1   -1    0    0    0  501 -0.00000000000E+00  0.00000000000E+00  0.64786441537E+01  0.64786461141E+01  0.50400000000E-02 0.  1.
          1   -1    0    0  501    0  0.00000000000E+00 -0.00000000000E+00 -0.28702438473E+03  0.28702438477E+03  0.50400000000E-02 0. -1.
         23    2    1    2    0    0 -0.35527136788E-14  0.00000000000E+00 -0.28054574057E+03  0.29350303088E+03  0.86244516261E+02 0.  0.
    9000005    2    3    3    0    0 -0.20115585993E+02 -0.31305615311E+02 -0.76875941233E+02  0.86461813942E+02  0.13455726657E+02 0.  0.
         22    1    3    3    0    0  0.20115585993E+02  0.31305615311E+02 -0.20366979934E+03  0.20704121694E+03  0.00000000000E+00 0. -1.
         22    1    4    4    0    0 -0.17336119613E+02 -0.16798280311E+02 -0.55017920451E+02  0.60080735976E+02  0.00000000000E+00 0.  1.
         22    1    4    4    0    0 -0.27794663806E+01 -0.14507335000E+02 -0.21858020782E+02  0.26381077966E+02  0.00000000000E+00 0.  1.
<mgrwt>
<rscale>  0 0.86244516E+02</rscale>
<asrwt>0</asrwt>
<pdfrwt beam="2">  1        1 0.44157588E-01 0.86244516E+02</pdfrwt>
<pdfrwt beam="1">  1       -1 0.99671486E-03 0.86244516E+02</pdfrwt>
<totfact> 0.14727116E+05</totfact>
</mgrwt>
</event>
<event>
 7    1  0.3345055E-009  0.9039719E+02  0.7818608E-02  0.1301893E+00
         -1   -1    0    0    0  501 -0.00000000000E+00  0.00000000000E+00  0.87177123086E+02  0.87177123232E+02  0.50400000000E-02 0. -1.
          1   -1    0    0  501    0  0.00000000000E+00 -0.00000000000E+00 -0.23434048708E+02  0.23434049250E+02  0.50400000000E-02 0.  1.
         23    2    1    2    0    0  0.00000000000E+00  0.00000000000E+00  0.63743074378E+02  0.11061117248E+03  0.90397189926E+02 0.  0.
    9000005    2    3    3    0    0 -0.16141252894E+02  0.15191085949E+02 -0.13743740561E+02  0.30016410699E+02  0.14858848183E+02 0.  0.
         22    1    3    3    0    0  0.16141252894E+02 -0.15191085949E+02  0.77486814940E+02  0.80594761783E+02  0.00000000000E+00 0. -1.
         22    1    4    4    0    0 -0.61524943765E+01  0.14721259905E+02 -0.11762225818E+02  0.19822175371E+02  0.00000000000E+00 0. -1.
         22    1    4    4    0    0 -0.99887585179E+01  0.46982604372E+00 -0.19815147437E+01  0.10194235328E+02  0.00000000000E+00 0. -1.
<mgrwt>
<rscale>  0 0.90397190E+02</rscale>
<asrwt>0</asrwt>
<pdfrwt beam="2">  1        1 0.36052383E-02 0.90397190E+02</pdfrwt>
<pdfrwt beam="1">  1       -1 0.13411865E-01 0.90397190E+02</pdfrwt>
<totfact> 0.85266104E+04</totfact>
</mgrwt>
</event>
<event>
 7    1  0.3345055E-009  0.9173716E+02  0.7818608E-02  0.1298699E+00
         -1   -1    0    0    0  501 -0.00000000000E+00  0.00000000000E+00  0.33809611009E+01  0.33809648575E+01  0.50400000000E-02 0.  1.
          1   -1    0    0  501    0  0.00000000000E+00 -0.00000000000E+00 -0.62228615848E+03  0.62228615850E+03  0.50400000000E-02 0. -1.
         23    2    1    2    0    0 -0.35527136788E-14  0.00000000000E+00 -0.61890519738E+03  0.62566712336E+03  0.91737156638E+02 0.  0.
    9000005    2    3    3    0    0 -0.26273948092E+02 -0.26211017816E+02 -0.48977614022E+03  0.49131068992E+03  0.11322044769E+02 0.  0.
         22    1    3    3    0    0  0.26273948092E+02  0.26211017816E+02 -0.12912905716E+03  0.13435643344E+03  0.00000000000E+00 0.  1.
         22    1    4    4    0    0 -0.19231715897E+02 -0.21730756289E+02 -0.31449975293E+03  0.31583568395E+03  0.00000000000E+00 0. -1.
         22    1    4    4    0    0 -0.70422321955E+01 -0.44802615275E+01 -0.17527638729E+03  0.17547500597E+03  0.00000000000E+00 0. -1.
<mgrwt>
<rscale>  0 0.91737157E+02</rscale>
<asrwt>0</asrwt>
<pdfrwt beam="2">  1        1 0.95736242E-01 0.91737157E+02</pdfrwt>
<pdfrwt beam="1">  1       -1 0.52014865E-03 0.91737157E+02</pdfrwt>
<totfact> 0.13957655E+05</totfact>
</mgrwt>
</event>
<event>
 7    1  0.3345055E-009  0.9136008E+02  0.7818608E-02  0.1299591E+00
          1   -1    0    0  501    0  0.00000000000E+00  0.00000000000E+00  0.68861853953E+02  0.68861854137E+02  0.50400000000E-02 0. -1.
         -1   -1    0    0    0  501 -0.00000000000E+00 -0.00000000000E+00 -0.30302207993E+02  0.30302208412E+02  0.50400000000E-02 0.  1.
         23    2    1    2    0    0  0.00000000000E+00  0.17763568394E-14  0.38559645960E+02  0.99164062549E+02  0.91360084308E+02 0.  0.
    9000005    2    3    3    0    0 -0.20874802301E+01 -0.15853811082E+02 -0.25627438638E+02  0.33015119030E+02  0.13324097489E+02 0.  0.
         22    1    3    3    0    0  0.20874802301E+01  0.15853811082E+02  0.64187084598E+02  0.66148943519E+02  0.00000000000E+00 0. -1.
         22    1    4    4    0    0 -0.48309082214E+01 -0.16583609365E+01 -0.12433586124E+02  0.13441796723E+02  0.00000000000E+00 0.  1.
         22    1    4    4    0    0  0.27434279914E+01 -0.14195450145E+02 -0.13193852514E+02  0.19573322307E+02  0.00000000000E+00 0.  1.
<mgrwt>
<rscale>  0 0.91360084E+02</rscale>
<asrwt>0</asrwt>
<pdfrwt beam="1">  1        1 0.10594131E-01 0.91360084E+02</pdfrwt>
<pdfrwt beam="2">  1       -1 0.46618782E-02 0.91360084E+02</pdfrwt>
<totfact> 0.97873562E+04</totfact>
</mgrwt>
</event>
<event>
 7    1  0.3345055E-009  0.9207688E+02  0.7818608E-02  0.1297899E+00
         -1   -1    0    0    0  501 -0.00000000000E+00  0.00000000000E+00  0.90620046502E+01  0.90620060517E+01  0.50400000000E-02 0.  1.
          1   -1    0    0  501    0  0.00000000000E+00 -0.00000000000E+00 -0.23389284026E+03  0.23389284032E+03  0.50400000000E-02 0. -1.
         23    2    1    2    0    0  0.00000000000E+00  0.00000000000E+00 -0.22483083561E+03  0.24295484637E+03  0.92076884894E+02 0.  0.
    9000005    2    3    3    0    0 -0.33802872814E+02  0.14865197341E+01 -0.30437374750E+02  0.45638700102E+02  0.34078165993E+01 0.  0.
         22    1    3    3    0    0  0.33802872814E+02 -0.14865197341E+01 -0.19439346086E+03  0.19731614627E+03  0.00000000000E+00 0. -1.
         22    1    4    4    0    0 -0.14240569414E+02 -0.97534279873E+00 -0.13479058167E+02  0.19632374280E+02  0.00000000000E+00 0.  1.
         22    1    4    4    0    0 -0.19562303400E+02  0.24618625329E+01 -0.16958316583E+02  0.26006325822E+02  0.00000000000E+00 0.  1.
<mgrwt>
<rscale>  0 0.92076885E+02</rscale>
<asrwt>0</asrwt>
<pdfrwt beam="2">  1        1 0.35983509E-01 0.92076885E+02</pdfrwt>
<pdfrwt beam="1">  1       -1 0.13941549E-02 0.92076885E+02</pdfrwt>
<totfact> 0.11890512E+05</totfact>
</mgrwt>
</event>
<event>
 7    1  0.3345055E-009  0.9579713E+02  0.7818608E-02  0.1289391E+00
          1   -1    0    0  501    0  0.00000000000E+00  0.00000000000E+00  0.60458986504E+02  0.60458986714E+02  0.50400000000E-02 0. -1.
         -1   -1    0    0    0  501 -0.00000000000E+00 -0.00000000000E+00 -0.37947585805E+02  0.37947586139E+02  0.50400000000E-02 0.  1.
         23    2    1    2    0    0  0.35527136788E-14 -0.11102230246E-15  0.22511400699E+02  0.98406572853E+02  0.95797131582E+02 0.  0.
    9000005    2    3    3    0    0 -0.31659970334E+02  0.95594339835E+00  0.47590223129E+02  0.58005893604E+02  0.98278586704E+01 0.  0.
         22    1    3    3    0    0  0.31659970334E+02 -0.95594339835E+00 -0.25078822430E+02  0.40400679249E+02  0.00000000000E+00 0.  1.
         22    1    4    4    0    0 -0.27029807159E+01 -0.22410547237E+01  0.89477167887E+01  0.96119751745E+01  0.00000000000E+00 0. -1.
         22    1    4    4    0    0 -0.28956989618E+02  0.31969981220E+01  0.38642506340E+02  0.48393918430E+02  0.00000000000E+00 0. -1.
<mgrwt>
<rscale>  0 0.95797132E+02</rscale>
<asrwt>0</asrwt>
<pdfrwt beam="1">  1        1 0.93013824E-02 0.95797132E+02</pdfrwt>
<pdfrwt beam="2">  1       -1 0.58380903E-02 0.95797132E+02</pdfrwt>
<totfact> 0.84071047E+04</totfact>
</mgrwt>
</event>
<event>
 7    1  0.3345055E-009  0.9296616E+02  0.7818608E-02  0.1295824E+00
         -1   -1    0    0    0  501 -0.00000000000E+00  0.00000000000E+00  0.42158379014E+02  0.42158379315E+02  0.50400000000E-02 0.  1.
          1   -1    0    0  501    0  0.00000000000E+00 -0.00000000000E+00 -0.51251422558E+02  0.51251422806E+02  0.50400000000E-02 0. -1.
         23    2    1    2    0    0  0.00000000000E+00  0.00000000000E+00 -0.90930435445E+01  0.93409802121E+02  0.92966164228E+02 0.  0.
    9000005    2    3    3    0    0 -0.33092153031E+02 -0.16001321393E+02 -0.33013482068E+02  0.49554126802E+02  0.38195034138E+01 0.  0.
         22    1    3    3    0    0  0.33092153031E+02  0.16001321393E+02  0.23920438523E+02  0.43855675319E+02  0.00000000000E+00 0.  1.
         22    1    4    4    0    0 -0.19092195637E+02 -0.11285199929E+02 -0.20197351324E+02  0.29996677686E+02  0.00000000000E+00 0. -1.
         22    1    4    4    0    0 -0.13999957394E+02 -0.47161214643E+01 -0.12816130744E+02  0.19557449116E+02  0.00000000000E+00 0. -1.
<mgrwt>
<rscale>  0 0.92966164E+02</rscale>
<asrwt>0</asrwt>
<pdfrwt beam="2">  1        1 0.78848343E-02 0.92966164E+02</pdfrwt>
<pdfrwt beam="1">  1       -1 0.64859045E-02 0.92966164E+02</pdfrwt>
<totfact> 0.89129413E+04</totfact>
</mgrwt>
</event>
<event>
 7    1  0.3345055E-009  0.9202152E+02  0.7818608E-02  0.1298029E+00
         -1   -1    0    0    0  501 -0.00000000000E+00  0.00000000000E+00  0.90084036420E+02  0.90084036561E+02  0.50400000000E-02 0.  1.
          1   -1    0    0  501    0  0.00000000000E+00 -0.00000000000E+00 -0.23500166764E+02  0.23500167305E+02  0.50400000000E-02 0. -1.
         23    2    1    2    0    0  0.17763568394E-14 -0.71054273576E-14  0.66583869656E+02  0.11358420387E+03  0.92021517426E+02 0.  0.
    9000005    2    3    3    0    0 -0.13898933507E+02  0.39704909995E+02  0.54535197419E+02  0.69825424940E+02  0.11482246303E+02 0.  0.
         22    1    3    3    0    0  0.13898933507E+02 -0.39704909995E+02  0.12048672237E+02  0.43758778926E+02  0.00000000000E+00 0. -1.
         22    1    4    4    0    0 -0.11345625110E+02  0.25563941480E+02  0.43465288037E+02  0.51686261011E+02  0.00000000000E+00 0. -1.
         22    1    4    4    0    0 -0.25533083974E+01  0.14140968516E+02  0.11069909381E+02  0.18139163929E+02  0.00000000000E+00 0. -1.
<mgrwt>
<rscale>  0 0.92021517E+02</rscale>
<asrwt>0</asrwt>
<pdfrwt beam="2">  1        1 0.36154103E-02 0.92021517E+02</pdfrwt>
<pdfrwt beam="1">  1       -1 0.13859083E-01 0.92021517E+02</pdfrwt>
<totfact> 0.80985110E+04</totfact>
</mgrwt>
</event>
<event>
 7    1  0.3345055E-009  0.8900859E+02  0.7818608E-02  0.1305270E+00
         -1   -1    0    0    0  501 -0.00000000000E+00  0.00000000000E+00  0.21393622340E+02  0.21393622934E+02  0.50400000000E-02 0.  1.
          1   -1    0    0  501    0  0.00000000000E+00 -0.00000000000E+00 -0.92580507953E+02  0.92580508090E+02  0.50400000000E-02 0. -1.
         23    2    1    2    0    0 -0.88817841970E-15  0.00000000000E+00 -0.71186885613E+02  0.11397413102E+03  0.89008594300E+02 0.  0.
    9000005    2    3    3    0    0 -0.20483683795E+01  0.43652044377E+02 -0.38477202735E+02  0.59388234079E+02  0.11694888856E+02 0.  0.
         22    1    3    3    0    0  0.20483683795E+01 -0.43652044377E+02 -0.32709682877E+02  0.54585896945E+02  0.00000000000E+00 0. -1.
         22    1    4    4    0    0 -0.59538406672E+01  0.12619917955E+02 -0.12358855455E+02  0.18640060516E+02  0.00000000000E+00 0. -1.
         22    1    4    4    0    0  0.39054722877E+01  0.31032126422E+02 -0.26118347281E+02  0.40748173563E+02  0.00000000000E+00 0. -1.
<mgrwt>
<rscale>  0 0.89008594E+02</rscale>
<asrwt>0</asrwt>
<pdfrwt beam="2">  1        1 0.14243155E-01 0.89008594E+02</pdfrwt>
<pdfrwt beam="1">  1       -1 0.32913266E-02 0.89008594E+02</pdfrwt>
<totfact> 0.11012628E+05</totfact>
</mgrwt>
</event>
<event>
 7    1  0.3345055E-009  0.1026385E+03  0.7818608E-02  0.1274843E+00
          1   -1    0    0  501    0  0.00000000000E+00  0.00000000000E+00  0.16202013047E+03  0.16202013055E+03  0.50400000000E-02 0. -1.
         -1   -1    0    0    0  501 -0.00000000000E+00 -0.00000000000E+00 -0.16255181970E+02  0.16255182751E+02  0.50400000000E-02 0.  1.
         23    2    1    2    0    0  0.35527136788E-14  0.00000000000E+00  0.14576494850E+03  0.17827531330E+03  0.10263852650E+03 0.  0.
    9000005    2    3    3    0    0 -0.22395807791E+02  0.45600050276E+02  0.68783174282E+02  0.86041207062E+02  0.95408310270E+01 0.  0.
         22    1    3    3    0    0  0.22395807791E+02 -0.45600050276E+02  0.76981774220E+02  0.92234106240E+02  0.00000000000E+00 0. -1.
         22    1    4    4    0    0 -0.19612094851E+02  0.39352299455E+02  0.53165097660E+02  0.68991052652E+02  0.00000000000E+00 0.  1.
         22    1    4    4    0    0 -0.27837129403E+01  0.62477508207E+01  0.15618076621E+02  0.17050154410E+02  0.00000000000E+00 0.  1.
<mgrwt>
<rscale>  0 0.10263853E+03</rscale>
<asrwt>0</asrwt>
<pdfrwt beam="1">  1        1 0.24926173E-01 0.10263853E+03</pdfrwt>
<pdfrwt beam="2">  1       -1 0.25007973E-02 0.10263853E+03</pdfrwt>
<totfact> 0.82490480E+04</totfact>
</mgrwt>
</event>
<event>
 7    1  0.3345055E-009  0.9028226E+02  0.7818608E-02  0.1302170E+00
         -1   -1    0    0    0  501 -0.00000000000E+00  0.00000000000E+00  0.41336394083E+01  0.41336424809E+01  0.50400000000E-02 0.  1.
          1   -1    0    0  501    0  0.00000000000E+00 -0.00000000000E+00 -0.49296049915E+03  0.49296049918E+03  0.50400000000E-02 0. -1.
         23    2    1    2    0    0  0.17763568394E-14  0.00000000000E+00 -0.48882685975E+03  0.49709414166E+03  0.90282262181E+02 0.  0.
    9000005    2    3    3    0    0  0.13596944554E+02  0.26157996480E+02 -0.43082493612E+03  0.43203001310E+03  0.13064798313E+02 0.  0.
         22    1    3    3    0    0 -0.13596944554E+02 -0.26157996480E+02 -0.58001923622E+02  0.65064128558E+02  0.00000000000E+00 0.  1.
         22    1    4    4    0    0  0.14643341598E+02  0.25080227410E+02 -0.35365738132E+03  0.35484783869E+03  0.00000000000E+00 0.  1.
         22    1    4    4    0    0 -0.10463970440E+01  0.10777690702E+01 -0.77167554799E+02  0.77182174410E+02  0.00000000000E+00 0.  1.
<mgrwt>
<rscale>  0 0.90282262E+02</rscale>
<asrwt>0</asrwt>
<pdfrwt beam="2">  1        1 0.75840031E-01 0.90282262E+02</pdfrwt>
<pdfrwt beam="1">  1       -1 0.63594515E-03 0.90282262E+02</pdfrwt>
<totfact> 0.14270654E+05</totfact>
</mgrwt>
</event>
<event>
 7    1  0.3345055E-009  0.9103251E+02  0.7818608E-02  0.1300370E+00
          1   -1    0    0  501    0  0.00000000000E+00  0.00000000000E+00  0.20973611585E+02  0.20973612190E+02  0.50400000000E-02 0. -1.
         -1   -1    0    0    0  501 -0.00000000000E+00 -0.00000000000E+00 -0.98777895625E+02  0.98777895753E+02  0.50400000000E-02 0.  1.
         23    2    1    2    0    0  0.00000000000E+00  0.00000000000E+00 -0.77804284040E+02  0.11975150794E+03  0.91032505402E+02 0.  0.
    9000005    2    3    3    0    0 -0.42181949766E+02 -0.53243302932E+01 -0.17851127894E+02  0.46252893596E+02  0.36058313589E+01 0.  0.
         22    1    3    3    0    0  0.42181949766E+02  0.53243302932E+01 -0.59953156146E+02  0.73498614348E+02  0.00000000000E+00 0.  1.
         22    1    4    4    0    0 -0.29740144674E+02 -0.34990840448E+01 -0.10782520144E+02  0.31827386557E+02  0.00000000000E+00 0.  1.
         22    1    4    4    0    0 -0.12441805092E+02 -0.18252462484E+01 -0.70686077500E+01  0.14425507039E+02  0.00000000000E+00 0.  1.
<mgrwt>
<rscale>  0 0.91032505E+02</rscale>
<asrwt>0</asrwt>
<pdfrwt beam="1">  1        1 0.32267096E-02 0.91032505E+02</pdfrwt>
<pdfrwt beam="2">  1       -1 0.15196599E-01 0.91032505E+02</pdfrwt>
<totfact> 0.81889992E+04</totfact>
</mgrwt>
</event>
<event>
 7    1  0.3345055E-009  0.9147658E+02  0.7818608E-02  0.1299315E+00
         -1   -1    0    0    0  501 -0.00000000000E+00  0.00000000000E+00  0.16642049311E+03  0.16642049318E+03  0.50400000000E-02 0.  1.
          1   -1    0    0  501    0  0.00000000000E+00 -0.00000000000E+00 -0.12570514916E+02  0.12570515927E+02  0.50400000000E-02 0. -1.
         23    2    1    2    0    0  0.00000000000E+00  0.00000000000E+00  0.15384997819E+03  0.17899100911E+03  0.91476584724E+02 0.  0.
    9000005    2    3    3    0    0 -0.76629278260E+00  0.35467946995E+02  0.22683225029E+02  0.43111357934E+02  0.92465137489E+01 0.  0.
         22    1    3    3    0    0  0.76629278260E+00 -0.35467946995E+02  0.13116675316E+03  0.13587965117E+03  0.00000000000E+00 0.  1.
         22    1    4    4    0    0 -0.95076901820E+00  0.25755398600E+02  0.21015350862E+02  0.33254916788E+02  0.00000000000E+00 0.  1.
         22    1    4    4    0    0  0.18447623561E+00  0.97125483957E+01  0.16678741671E+01  0.98564411456E+01  0.00000000000E+00 0.  1.
<mgrwt>
<rscale>  0 0.91476585E+02</rscale>
<asrwt>0</asrwt>
<pdfrwt beam="2">  1        1 0.19339256E-02 0.91476585E+02</pdfrwt>
<pdfrwt beam="1">  1       -1 0.25603152E-01 0.91476585E+02</pdfrwt>
<totfact> 0.72309292E+04</totfact>
</mgrwt>
</event>
<event>
 7    1  0.3345055E-009  0.9152700E+02  0.7818608E-02  0.1299195E+00
         -1   -1    0    0    0  501 -0.00000000000E+00  0.00000000000E+00  0.32167413403E+02  0.32167413798E+02  0.50400000000E-02 0.  1.
          1   -1    0    0  501    0  0.00000000000E+00 -0.00000000000E+00 -0.65106193312E+02  0.65106193507E+02  0.50400000000E-02 0. -1.
         23    2    1    2    0    0  0.00000000000E+00  0.00000000000E+00 -0.32938779909E+02  0.97273607305E+02  0.91526998510E+02 0.  0.
    9000005    2    3    3    0    0 -0.18527549453E+02 -0.40107391496E+02 -0.55847121137E+01  0.45310947959E+02  0.83677986431E+01 0.  0.
         22    1    3    3    0    0  0.18527549453E+02  0.40107391496E+02 -0.27354067795E+02  0.51962659346E+02  0.00000000000E+00 0. -1.
         22    1    4    4    0    0 -0.14484031013E+02 -0.21963128999E+02 -0.20526072551E+01  0.26389001239E+02  0.00000000000E+00 0. -1.
         22    1    4    4    0    0 -0.40435184399E+01 -0.18144262497E+02 -0.35321048586E+01  0.18921946720E+02  0.00000000000E+00 0. -1.
<mgrwt>
<rscale>  0 0.91526999E+02</rscale>
<asrwt>0</asrwt>
<pdfrwt beam="2">  1        1 0.10016337E-01 0.91526999E+02</pdfrwt>
<pdfrwt beam="1">  1       -1 0.49488329E-02 0.91526999E+02</pdfrwt>
<totfact> 0.96545161E+04</totfact>
</mgrwt>
</event>
<event>
 7    1  0.3345055E-009  0.9221215E+02  0.7818608E-02  0.1297581E+00
         -1   -1    0    0    0  501 -0.00000000000E+00  0.00000000000E+00  0.57286633540E+01  0.57286655710E+01  0.50400000000E-02 0.  1.
          1   -1    0    0  501    0  0.00000000000E+00 -0.00000000000E+00 -0.37107607755E+03  0.37107607758E+03  0.50400000000E-02 0. -1.
         23    2    1    2    0    0 -0.88817841970E-15  0.00000000000E+00 -0.36534741420E+03  0.37680474316E+03  0.92212154321E+02 0.  0.
    9000005    2    3    3    0    0 -0.68029165040E+01 -0.16652167551E+02 -0.35593810471E+03  0.35650426380E+03  0.89320414192E+01 0.  0.
         22    1    3    3    0    0  0.68029165040E+01  0.16652167551E+02 -0.94093094838E+01  0.20300479356E+02  0.00000000000E+00 0.  1.
         22    1    4    4    0    0 -0.46603836901E+01 -0.17613408846E+01 -0.10071815044E+03  0.10084129772E+03  0.00000000000E+00 0.  1.
         22    1    4    4    0    0 -0.21425328139E+01 -0.14890826667E+02 -0.25521995427E+03  0.25566296608E+03  0.00000000000E+00 0.  1.
<mgrwt>
<rscale>  0 0.92212154E+02</rscale>
<asrwt>0</asrwt>
<pdfrwt beam="2">  1        1 0.57088609E-01 0.92212154E+02</pdfrwt>
<pdfrwt beam="1">  1       -1 0.88133329E-03 0.92212154E+02</pdfrwt>
<totfact> 0.12925056E+05</totfact>
</mgrwt>
</event>
<event>
 7    1  0.3345055E-009  0.9146220E+02  0.7818608E-02  0.1299349E+00
         -1   -1    0    0    0  501 -0.00000000000E+00  0.00000000000E+00  0.28370796359E+02  0.28370796807E+02  0.50400000000E-02 0.  1.
          1   -1    0    0  501    0  0.00000000000E+00 -0.00000000000E+00 -0.73714296404E+02  0.73714296576E+02  0.50400000000E-02 0. -1.
         23    2    1    2    0    0  0.00000000000E+00  0.00000000000E+00 -0.45343500045E+02  0.10208509338E+03  0.91462195987E+02 0.  0.
    9000005    2    3    3    0    0  0.26535257989E+02  0.23557464888E+01  0.16532050842E+02  0.34718534501E+02  0.14913030368E+02 0.  0.
         22    1    3    3    0    0 -0.26535257989E+02 -0.23557464888E+01 -0.61875550887E+02  0.67366558882E+02  0.00000000000E+00 0. -1.
         22    1    4    4    0    0  0.45550911372E+00  0.26576273275E+01  0.60237517373E+01  0.65997012476E+01  0.00000000000E+00 0. -1.
         22    1    4    4    0    0  0.26079748876E+02 -0.30188083874E+00  0.10508299105E+02  0.28118833254E+02  0.00000000000E+00 0. -1.
<mgrwt>
<rscale>  0 0.91462196E+02</rscale>
<asrwt>0</asrwt>
<pdfrwt beam="2">  1        1 0.11340661E-01 0.91462196E+02</pdfrwt>
<pdfrwt beam="1">  1       -1 0.43647380E-02 0.91462196E+02</pdfrwt>
<totfact> 0.98607861E+04</totfact>
</mgrwt>
</event>
<event>
 7    1  0.3345055E-009  0.9749095E+02  0.7818608E-02  0.1285662E+00
          1   -1    0    0  501    0  0.00000000000E+00  0.00000000000E+00  0.71353230460E+02  0.71353230638E+02  0.50400000000E-02 0. -1.
         -1   -1    0    0    0  501 -0.00000000000E+00 -0.00000000000E+00 -0.33300823123E+02  0.33300823504E+02  0.50400000000E-02 0.  1.
         23    2    1    2    0    0  0.00000000000E+00  0.00000000000E+00  0.38052407337E+02  0.10465405414E+03  0.97490950063E+02 0.  0.
    9000005    2    3    3    0    0  0.17004655336E+02 -0.26483410465E+02  0.58468226174E+02  0.67139590374E+02  0.99328641770E+01 0.  0.
         22    1    3    3    0    0 -0.17004655336E+02  0.26483410465E+02 -0.20415818837E+02  0.37514463767E+02  0.00000000000E+00 0.  1.
         22    1    4    4    0    0  0.13572407304E+02 -0.12477427499E+02  0.29642600595E+02  0.34908168199E+02  0.00000000000E+00 0. -1.
         22    1    4    4    0    0  0.34322480326E+01 -0.14005982966E+02  0.28825625579E+02  0.32231422175E+02  0.00000000000E+00 0. -1.
<mgrwt>
<rscale>  0 0.97490950E+02</rscale>
<asrwt>0</asrwt>
<pdfrwt beam="1">  1        1 0.10977420E-01 0.97490950E+02</pdfrwt>
<pdfrwt beam="2">  1       -1 0.51232037E-02 0.97490950E+02</pdfrwt>
<totfact> 0.82198631E+04</totfact>
</mgrwt>
</event>
<event>
 7    1  0.3345055E-009  0.9236235E+02  0.7818608E-02  0.1297230E+00
          1   -1    0    0  501    0  0.00000000000E+00  0.00000000000E+00  0.60788663217E+02  0.60788663426E+02  0.50400000000E-02 0. -1.
         -1   -1    0    0    0  501 -0.00000000000E+00 -0.00000000000E+00 -0.35083861673E+02  0.35083862035E+02  0.50400000000E-02 0.  1.
         23    2    1    2    0    0  0.00000000000E+00  0.00000000000E+00  0.25704801544E+02  0.95872525461E+02  0.92362353347E+02 0.  0.
    9000005    2    3    3    0    0 -0.22802382490E+02 -0.39073874766E+02  0.19566972195E+02  0.50217413090E+02  0.96023872108E+01 0.  0.
         22    1    3    3    0    0  0.22802382490E+02  0.39073874766E+02  0.61378293490E+01  0.45655112371E+02  0.00000000000E+00 0.  1.
         22    1    4    4    0    0 -0.35557613762E+01 -0.95611083011E+01  0.85237326725E+01  0.13293315974E+02  0.00000000000E+00 0. -1.
         22    1    4    4    0    0 -0.19246621114E+02 -0.29512766465E+02  0.11043239523E+02  0.36924097117E+02  0.00000000000E+00 0. -1.
<mgrwt>
<rscale>  0 0.92362353E+02</rscale>
<asrwt>0</asrwt>
<pdfrwt beam="1">  1        1 0.93521021E-02 0.92362353E+02</pdfrwt>
<pdfrwt beam="2">  1       -1 0.53975172E-02 0.92362353E+02</pdfrwt>
<totfact> 0.93158381E+04</totfact>
</mgrwt>
</event>
<event>
 7    1  0.3345055E-009  0.9327657E+02  0.7818608E-02  0.1295106E+00
         -1   -1    0    0    0  501 -0.00000000000E+00  0.00000000000E+00  0.30393752181E+02  0.30393752599E+02  0.50400000000E-02 0.  1.
          1   -1    0    0  501    0  0.00000000000E+00 -0.00000000000E+00 -0.71565022463E+02  0.71565022641E+02  0.50400000000E-02 0. -1.
         23    2    1    2    0    0  0.88817841970E-15  0.00000000000E+00 -0.41171270282E+02  0.10195877524E+03  0.93276569147E+02 0.  0.
    9000005    2    3    3    0    0 -0.76377490738E+01  0.45141124734E+02 -0.15794060590E+02  0.49613201168E+02  0.10768520190E+02 0.  0.
         22    1    3    3    0    0  0.76377490738E+01 -0.45141124734E+02 -0.25377209692E+02  0.52345574072E+02  0.00000000000E+00 0.  1.
         22    1    4    4    0    0 -0.58385528970E+01  0.23466685005E+02 -0.13624938009E+02  0.27756313530E+02  0.00000000000E+00 0.  1.
         22    1    4    4    0    0 -0.17991961768E+01  0.21674439729E+02 -0.21691225815E+01  0.21856887638E+02  0.00000000000E+00 0.  1.
<mgrwt>
<rscale>  0 0.93276569E+02</rscale>
<asrwt>0</asrwt>
<pdfrwt beam="2">  1        1 0.11010003E-01 0.93276569E+02</pdfrwt>
<pdfrwt beam="1">  1       -1 0.46759619E-02 0.93276569E+02</pdfrwt>
<totfact> 0.92969028E+04</totfact>
</mgrwt>
</event>
<event>
 7    1  0.3345055E-009  0.9179909E+02  0.7818608E-02  0.1298553E+00
          1   -1    0    0  501    0  0.00000000000E+00  0.00000000000E+00  0.68964411976E+01  0.68964430392E+01  0.50400000000E-02 0. -1.
         -1   -1    0    0    0  501 -0.00000000000E+00 -0.00000000000E+00 -0.30548625001E+03  0.30548625006E+03  0.50400000000E-02 0.  1.
         23    2    1    2    0    0  0.00000000000E+00  0.00000000000E+00 -0.29858980882E+03  0.31238269310E+03  0.91799090497E+02 0.  0.
    9000005    2    3    3    0    0  0.17530941103E+02  0.26278619352E+02 -0.26086067522E+03  0.26317509965E+03  0.14660882194E+02 0.  0.
         22    1    3    3    0    0 -0.17530941103E+02 -0.26278619352E+02 -0.37729133595E+02  0.49207593447E+02  0.00000000000E+00 0. -1.
         22    1    4    4    0    0  0.77342633896E+01  0.17872511496E+02 -0.10574836796E+03  0.10752656799E+03  0.00000000000E+00 0.  1.
         22    1    4    4    0    0  0.97966777133E+01  0.84061078557E+01 -0.15511230726E+03  0.15564853166E+03  0.00000000000E+00 0.  1.
<mgrwt>
<rscale>  0 0.91799090E+02</rscale>
<asrwt>0</asrwt>
<pdfrwt beam="1">  1        1 0.10609913E-02 0.91799090E+02</pdfrwt>
<pdfrwt beam="2">  1       -1 0.46997874E-01 0.91799090E+02</pdfrwt>
<totfact> 0.59090816E+04</totfact>
</mgrwt>
</event>
<event>
 7    1  0.3345055E-009  0.8970786E+02  0.7818608E-02  0.1303561E+00
         -1   -1    0    0    0  501 -0.00000000000E+00  0.00000000000E+00  0.74078905073E+01  0.74078922218E+01  0.50400000000E-02 0.  1.
          1   -1    0    0  501    0  0.00000000000E+00 -0.00000000000E+00 -0.27158537852E+03  0.27158537857E+03  0.50400000000E-02 0. -1.
         23    2    1    2    0    0  0.00000000000E+00  0.00000000000E+00 -0.26417748802E+03  0.27899327079E+03  0.89707859035E+02 0.  0.
    9000005    2    3    3    0    0 -0.23833278763E+02  0.30084434371E+02 -0.66727852160E+02  0.77847907764E+02  0.11601384455E+02 0.  0.
         22    1    3    3    0    0  0.23833278763E+02 -0.30084434371E+02 -0.19744963586E+03  0.20114536303E+03  0.00000000000E+00 0. -1.
         22    1    4    4    0    0 -0.15083685100E+02  0.25221467344E+02 -0.55538314532E+02  0.62834260975E+02  0.00000000000E+00 0.  1.
         22    1    4    4    0    0 -0.87495936630E+01  0.48629670271E+01 -0.11189537628E+02  0.15013646789E+02  0.00000000000E+00 0.  1.
<mgrwt>
<rscale>  0 0.89707859E+02</rscale>
<asrwt>0</asrwt>
<pdfrwt beam="2">  1        1 0.41782358E-01 0.89707859E+02</pdfrwt>
<pdfrwt beam="1">  1       -1 0.11396758E-02 0.89707859E+02</pdfrwt>
<totfact> 0.13124453E+05</totfact>
</mgrwt>
</event>
<event>
 7    1  0.3345055E-009  0.9060558E+02  0.7818608E-02  0.1301392E+00
         -1   -1    0    0    0  501 -0.00000000000E+00  0.00000000000E+00  0.98116241464E+02  0.98116241594E+02  0.50400000000E-02 0.  1.
          1   -1    0    0  501    0  0.00000000000E+00 -0.00000000000E+00 -0.20917463493E+02  0.20917464100E+02  0.50400000000E-02 0. -1.
         23    2    1    2    0    0  0.00000000000E+00  0.00000000000E+00  0.77198777972E+02  0.11903370569E+03  0.90605583552E+02 0.  0.
    9000005    2    3    3    0    0 -0.34315695982E+02 -0.26497367958E+02  0.54049661464E+02  0.69885368036E+02  0.91061112284E+01 0.  0.
         22    1    3    3    0    0  0.34315695982E+02  0.26497367958E+02  0.23149116507E+02  0.49148337657E+02  0.00000000000E+00 0. -1.
         22    1    4    4    0    0 -0.18492190107E+01 -0.50695883249E+01  0.62541424871E+01  0.82604258354E+01  0.00000000000E+00 0.  1.
         22    1    4    4    0    0 -0.32466476971E+02 -0.21427779633E+02  0.47795518977E+02  0.61624942201E+02  0.00000000000E+00 0.  1.
<mgrwt>
<rscale>  0 0.90605584E+02</rscale>
<asrwt>0</asrwt>
<pdfrwt beam="2">  1        1 0.32180714E-02 0.90605584E+02</pdfrwt>
<pdfrwt beam="1">  1       -1 0.15094806E-01 0.90605584E+02</pdfrwt>
<totfact> 0.82988513E+04</totfact>
</mgrwt>
</event>
<event>
 7    1  0.4509787E-009  0.9093862E+02  0.7818608E-02  0.1300594E+00
         -1   -1    0    0    0  501 -0.00000000000E+00  0.00000000000E+00  0.22217723429E+03  0.22217723434E+03  0.50400000000E-02 0.  1.
          1   -1    0    0  501    0  0.00000000000E+00 -0.00000000000E+00 -0.93054453353E+01  0.93054467002E+01  0.50400000000E-02 0. -1.
         23    2    1    2    0    0 -0.35527136788E-14  0.33306690739E-15  0.21287178895E+03  0.23148268104E+03  0.90938622663E+02 0.  0.
    9000005    2    3    3    0    0 -0.20340868660E+02 -0.75733229341E+00  0.20920770955E+03  0.21080056394E+03  0.15958932646E+02 0.  0.
         22    1    3    3    0    0  0.20340868660E+02  0.75733229341E+00  0.36640793986E+01  0.20682117104E+02  0.00000000000E+00 0. -1.
         22    1    4    4    0    0 -0.59780196502E+01  0.44066641632E+01  0.12502584255E+03  0.12524622434E+03  0.00000000000E+00 0.  1.
         22    1    4    4    0    0 -0.14362849010E+02 -0.51639964566E+01  0.84181867005E+02  0.85554339595E+02  0.00000000000E+00 0.  1.
<mgrwt>
<rscale>  0 0.90938623E+02</rscale>
<asrwt>0</asrwt>
<pdfrwt beam="2">  1        1 0.14316071E-02 0.90938623E+02</pdfrwt>
<pdfrwt beam="1">  1       -1 0.34181113E-01 0.90938623E+02</pdfrwt>
<totfact> 0.67747526E+04</totfact>
</mgrwt>
</event>
<event>
 7    1  0.3345055E-009  0.9033153E+02  0.7818608E-02  0.1302051E+00
         -1   -1    0    0    0  501 -0.00000000000E+00  0.00000000000E+00  0.46724913815E+01  0.46724940997E+01  0.50400000000E-02 0.  1.
          1   -1    0    0  501    0  0.00000000000E+00 -0.00000000000E+00 -0.43658631392E+03  0.43658631394E+03  0.50400000000E-02 0. -1.
         23    2    1    2    0    0  0.00000000000E+00  0.00000000000E+00 -0.43191382253E+03  0.44125880804E+03  0.90331531487E+02 0.  0.
    9000005    2    3    3    0    0  0.41284918013E+02  0.17244868085E+02 -0.20762087902E+03  0.21254686161E+03  0.82406944801E+01 0.  0.
         22    1    3    3    0    0 -0.41284918013E+02 -0.17244868085E+02 -0.22429294351E+03  0.22871194643E+03  0.00000000000E+00 0. -1.
         22    1    4    4    0    0  0.26733834314E+02  0.83799774120E+01 -0.14291282145E+03  0.14563308845E+03  0.00000000000E+00 0. -1.
         22    1    4    4    0    0  0.14551083699E+02  0.88648906732E+01 -0.64708057576E+02  0.66913773161E+02  0.00000000000E+00 0. -1.
<mgrwt>
<rscale>  0 0.90331531E+02</rscale>
<asrwt>0</asrwt>
<pdfrwt beam="2">  1        1 0.67167093E-01 0.90331531E+02</pdfrwt>
<pdfrwt beam="1">  1       -1 0.71884538E-03 0.90331531E+02</pdfrwt>
<totfact> 0.14017146E+05</totfact>
</mgrwt>
</event>
<event>
 7    1  0.3345055E-009  0.9125348E+02  0.7818608E-02  0.1299844E+00
          1   -1    0    0  501    0  0.00000000000E+00  0.00000000000E+00  0.18159436279E+02  0.18159436978E+02  0.50400000000E-02 0. -1.
         -1   -1    0    0    0  501 -0.00000000000E+00 -0.00000000000E+00 -0.11464009607E+03  0.11464009618E+03  0.50400000000E-02 0.  1.
         23    2    1    2    0    0 -0.71054273576E-14  0.00000000000E+00 -0.96480659787E+02  0.13279953315E+03  0.91253483732E+02 0.  0.
    9000005    2    3    3    0    0 -0.34481565687E+02  0.37315950334E+01 -0.89913336692E+02  0.97500341856E+02  0.14798830126E+02 0.  0.
         22    1    3    3    0    0  0.34481565687E+02 -0.37315950334E+01 -0.65673230946E+01  0.35299191299E+02  0.00000000000E+00 0. -1.
         22    1    4    4    0    0 -0.30984956662E+00  0.35191458287E+01 -0.80679543755E+01  0.88075128114E+01  0.00000000000E+00 0. -1.
         22    1    4    4    0    0 -0.34171716121E+02  0.21244920470E+00 -0.81845382317E+02  0.88692829044E+02  0.00000000000E+00 0. -1.
<mgrwt>
<rscale>  0 0.91253484E+02</rscale>
<asrwt>0</asrwt>
<pdfrwt beam="1">  1        1 0.27937596E-02 0.91253484E+02</pdfrwt>
<pdfrwt beam="2">  1       -1 0.17636938E-01 0.91253484E+02</pdfrwt>
<totfact> 0.79086711E+04</totfact>
</mgrwt>
</event>
<event>
 7    1  0.3345055E-009  0.9121606E+02  0.7818608E-02  0.1299933E+00
         -1   -1    0    0    0  501 -0.00000000000E+00  0.00000000000E+00  0.10606102868E+02  0.10606104066E+02  0.50400000000E-02 0.  1.
          1   -1    0    0  501    0  0.00000000000E+00 -0.00000000000E+00 -0.19612222125E+03  0.19612222131E+03  0.50400000000E-02 0. -1.
         23    2    1    2    0    0  0.00000000000E+00 -0.71054273576E-14 -0.18551611838E+03  0.20672832538E+03  0.91216064019E+02 0.  0.
    9000005    2    3    3    0    0  0.24711744503E+02 -0.36891817828E+02 -0.10201670694E+03  0.11215651008E+03  0.14142054953E+02 0.  0.
         22    1    3    3    0    0 -0.24711744503E+02  0.36891817828E+02 -0.83499411435E+02  0.94571815299E+02  0.00000000000E+00 0.  1.
         22    1    4    4    0    0  0.71644776405E-01 -0.26108886064E+01 -0.12341650379E+01  0.28887775320E+01  0.00000000000E+00 0.  1.
         22    1    4    4    0    0  0.24640099727E+02 -0.34280929221E+02 -0.10078254191E+03  0.10926773255E+03  0.00000000000E+00 0.  1.
<mgrwt>
<rscale>  0 0.91216064E+02</rscale>
<asrwt>0</asrwt>
<pdfrwt beam="2">  1        1 0.30172647E-01 0.91216064E+02</pdfrwt>
<pdfrwt beam="1">  1       -1 0.16317084E-02 0.91216064E+02</pdfrwt>
<totfact> 0.11782157E+05</totfact>
</mgrwt>
</event>
<event>
 7    1  0.3345055E-009  0.9162793E+02  0.7818608E-02  0.1298957E+00
         -1   -1    0    0    0  501 -0.00000000000E+00  0.00000000000E+00  0.14522979687E+01  0.14523067140E+01  0.50400000000E-02 0.  1.
          1   -1    0    0  501    0  0.00000000000E+00 -0.00000000000E+00 -0.14452356778E+04  0.14452356778E+04  0.50400000000E-02 0. -1.
         23    2    1    2    0    0  0.22204460493E-15  0.00000000000E+00 -0.14437833799E+04  0.14466879845E+04  0.91627925250E+02 0.  0.
    9000005    2    3    3    0    0 -0.14049257185E+01 -0.27318746482E+02 -0.12966310461E+04  0.12970146835E+04  0.15707695560E+02 0.  0.
         22    1    3    3    0    0  0.14049257185E+01  0.27318746482E+02 -0.14715233374E+03  0.14967330106E+03  0.00000000000E+00 0.  1.
         22    1    4    4    0    0  0.25398041518E+01 -0.22316722685E+02 -0.72427246054E+03  0.72462064821E+03  0.00000000000E+00 0. -1.
         22    1    4    4    0    0 -0.39447298703E+01 -0.50020237968E+01 -0.57235858557E+03  0.57239403527E+03  0.00000000000E+00 0. -1.
<mgrwt>
<rscale>  0 0.91627925E+02</rscale>
<asrwt>0</asrwt>
<pdfrwt beam="2">  1        1 0.22234280E+00 0.91627925E+02</pdfrwt>
<pdfrwt beam="1">  1       -1 0.22343229E-03 0.91627925E+02</pdfrwt>
<totfact> 0.11230634E+05</totfact>
</mgrwt>
</event>
<event>
 7    1  0.3345055E-009  0.9378090E+02  0.7818608E-02  0.1293946E+00
         -1   -1    0    0    0  501 -0.00000000000E+00  0.00000000000E+00  0.29026971352E+02  0.29026971789E+02  0.50400000000E-02 0.  1.
          1   -1    0    0  501    0  0.00000000000E+00 -0.00000000000E+00 -0.75747286037E+02  0.75747286204E+02  0.50400000000E-02 0. -1.
         23    2    1    2    0    0  0.00000000000E+00  0.00000000000E+00 -0.46720314685E+02  0.10477425799E+03  0.93780900688E+02 0.  0.
    9000005    2    3    3    0    0 -0.21877179890E+02  0.15741412079E+01 -0.69344877152E+02  0.73262994177E+02  0.88127979724E+01 0.  0.
         22    1    3    3    0    0  0.21877179890E+02 -0.15741412079E+01  0.22624562467E+02  0.31511263816E+02  0.00000000000E+00 0.  1.
         22    1    4    4    0    0 -0.17066755947E+02  0.42723199008E+01 -0.58617202962E+02  0.61200517636E+02  0.00000000000E+00 0.  1.
         22    1    4    4    0    0 -0.48104239425E+01 -0.26981786929E+01 -0.10727674191E+02  0.12062476541E+02  0.00000000000E+00 0.  1.
<mgrwt>
<rscale>  0 0.93780901E+02</rscale>
<asrwt>0</asrwt>
<pdfrwt beam="2">  1        1 0.11653429E-01 0.93780901E+02</pdfrwt>
<pdfrwt beam="1">  1       -1 0.44656880E-02 0.93780901E+02</pdfrwt>
<totfact> 0.92419355E+04</totfact>
</mgrwt>
</event>
<event>
 7    1  0.3345055E-009  0.9483656E+02  0.7818608E-02  0.1291545E+00
         -1   -1    0    0    0  501 -0.00000000000E+00  0.00000000000E+00  0.23657875731E+03  0.23657875736E+03  0.50400000000E-02 0.  1.
          1   -1    0    0  501    0  0.00000000000E+00 -0.00000000000E+00 -0.95042051330E+01  0.95042064693E+01  0.50400000000E-02 0. -1.
         23    2    1    2    0    0  0.00000000000E+00  0.35527136788E-14  0.22707455218E+03  0.24608296383E+03  0.94836558576E+02 0.  0.
    9000005    2    3    3    0    0  0.74945999844E+01  0.27787418072E+02  0.21093943074E+03  0.21308824038E+03  0.91019291976E+01 0.  0.
         22    1    3    3    0    0 -0.74945999844E+01 -0.27787418072E+02  0.16135121439E+02  0.32994723456E+02  0.00000000000E+00 0.  1.
         22    1    4    4    0    0  0.70274285256E+01  0.17791097566E+02  0.10968594048E+03  0.11134142735E+03  0.00000000000E+00 0. -1.
         22    1    4    4    0    0  0.46717145872E+00  0.99963205060E+01  0.10125349025E+03  0.10174681303E+03  0.00000000000E+00 0. -1.
<mgrwt>
<rscale>  0 0.94836559E+02</rscale>
<asrwt>0</asrwt>
<pdfrwt beam="2">  1        1 0.14621854E-02 0.94836559E+02</pdfrwt>
<pdfrwt beam="1">  1       -1 0.36396734E-01 0.94836559E+02</pdfrwt>
<totfact> 0.59510582E+04</totfact>
</mgrwt>
</event>
<event>
 7    1  0.3345055E-009  0.8850472E+02  0.7818608E-02  0.1306514E+00
          1   -1    0    0  501    0  0.00000000000E+00  0.00000000000E+00  0.27065368860E+03  0.27065368865E+03  0.50400000000E-02 0. -1.
         -1   -1    0    0    0  501 -0.00000000000E+00 -0.00000000000E+00 -0.72353384327E+01  0.72353401881E+01  0.50400000000E-02 0.  1.
         23    2    1    2    0    0  0.00000000000E+00  0.00000000000E+00  0.26341835017E+03  0.27788902883E+03  0.88504718191E+02 0.  0.
    9000005    2    3    3    0    0 -0.32260174979E+02  0.67394332658E+01  0.22388122039E+03  0.22641744948E+03  0.74780836165E+01 0.  0.
         22    1    3    3    0    0  0.32260174979E+02 -0.67394332658E+01  0.39537129777E+02  0.51471579356E+02  0.00000000000E+00 0.  1.
         22    1    4    4    0    0 -0.41474857620E+01  0.30854686148E+01  0.46292121594E+02  0.46579848394E+02  0.00000000000E+00 0.  1.
         22    1    4    4    0    0 -0.28112689217E+02  0.36539646510E+01  0.17758909880E+03  0.17983760109E+03  0.00000000000E+00 0.  1.
<mgrwt>
<rscale>  0 0.88504718E+02</rscale>
<asrwt>0</asrwt>
<pdfrwt beam="1">  1        1 0.41639035E-01 0.88504718E+02</pdfrwt>
<pdfrwt beam="2">  1       -1 0.11131290E-02 0.88504718E+02</pdfrwt>
<totfact> 0.13595390E+05</totfact>
</mgrwt>
</event>
<event>
 7    1  0.3345055E-009  0.8905163E+02  0.7818608E-02  0.1305165E+00
          1   -1    0    0  501    0  0.00000000000E+00  0.00000000000E+00  0.11256539246E+03  0.11256539257E+03  0.50400000000E-02 0. -1.
         -1   -1    0    0    0  501 -0.00000000000E+00 -0.00000000000E+00 -0.17612411297E+02  0.17612412018E+02  0.50400000000E-02 0.  1.
         23    2    1    2    0    0  0.00000000000E+00 -0.35527136788E-14  0.94952981165E+02  0.13017780459E+03  0.89051626468E+02 0.  0.
    9000005    2    3    3    0    0  0.37702817397E+02  0.23245334166E+02  0.47074134697E+02  0.64953331124E+02  0.64119471653E+01 0.  0.
         22    1    3    3    0    0 -0.37702817397E+02 -0.23245334166E+02  0.47878846468E+02  0.65224473469E+02  0.00000000000E+00 0.  1.
         22    1    4    4    0    0  0.92315885232E+01  0.90001955697E+01  0.14574026397E+02  0.19458365614E+02  0.00000000000E+00 0. -1.
         22    1    4    4    0    0  0.28471228874E+02  0.14245138596E+02  0.32500108300E+02  0.45494965510E+02  0.00000000000E+00 0. -1.
<mgrwt>
<rscale>  0 0.89051626E+02</rscale>
<asrwt>0</asrwt>
<pdfrwt beam="1">  1        1 0.17317752E-01 0.89051626E+02</pdfrwt>
<pdfrwt beam="2">  1       -1 0.27096019E-02 0.89051626E+02</pdfrwt>
<totfact> 0.11359204E+05</totfact>
</mgrwt>
</event>
<event>
 7    1  0.3345055E-009  0.9426673E+02  0.7818608E-02  0.1292836E+00
          1   -1    0    0  501    0  0.00000000000E+00  0.00000000000E+00  0.55868365901E+02  0.55868366128E+02  0.50400000000E-02 0. -1.
         -1   -1    0    0    0  501 -0.00000000000E+00 -0.00000000000E+00 -0.39764079858E+02  0.39764080178E+02  0.50400000000E-02 0.  1.
         23    2    1    2    0    0  0.71054273576E-14  0.00000000000E+00  0.16104286043E+02  0.95632446306E+02  0.94266731976E+02 0.  0.
    9000005    2    3    3    0    0 -0.37574088122E+02 -0.28243204779E+02  0.54720991987E+01  0.47439769357E+02  0.33312358945E+01 0.  0.
         22    1    3    3    0    0  0.37574088122E+02  0.28243204779E+02  0.10632186844E+02  0.48192676949E+02  0.00000000000E+00 0. -1.
         22    1    4    4    0    0 -0.12973562585E+02 -0.99267582847E+01  0.31468806244E+00  0.16338692872E+02  0.00000000000E+00 0.  1.
         22    1    4    4    0    0 -0.24600525537E+02 -0.18316446494E+02  0.51574111362E+01  0.31101076485E+02  0.00000000000E+00 0.  1.
<mgrwt>
<rscale>  0 0.94266732E+02</rscale>
<asrwt>0</asrwt>
<pdfrwt beam="1">  1        1 0.85951332E-02 0.94266732E+02</pdfrwt>
<pdfrwt beam="2">  1       -1 0.61175508E-02 0.94266732E+02</pdfrwt>
<totfact> 0.86870188E+04</totfact>
</mgrwt>
</event>
<event>
 7    1  0.3345055E-009  0.9195977E+02  0.7818608E-02  0.1298174E+00
          1   -1    0    0  501    0  0.00000000000E+00  0.00000000000E+00  0.56987693686E+01  0.56987715973E+01  0.50400000000E-02 0. -1.
         -1   -1    0    0    0  501 -0.00000000000E+00 -0.00000000000E+00 -0.37098352612E+03  0.37098352615E+03  0.50400000000E-02 0.  1.
         23    2    1    2    0    0 -0.71054273576E-14  0.35527136788E-14 -0.36528475675E+03  0.37668229775E+03  0.91959773403E+02 0.  0.
    9000005    2    3    3    0    0 -0.32844541024E+02  0.19551680576E+02 -0.28229159548E+03  0.28530999940E+03  0.15881397595E+02 0.  0.
         22    1    3    3    0    0  0.32844541024E+02 -0.19551680576E+02 -0.82993161265E+02  0.91372298347E+02  0.00000000000E+00 0. -1.
         22    1    4    4    0    0 -0.20348956153E+02  0.70663434659E+01 -0.10811884184E+03  0.11024380793E+03  0.00000000000E+00 0. -1.
         22    1    4    4    0    0 -0.12495584872E+02  0.12485337110E+02 -0.17417275364E+03  0.17506619147E+03  0.00000000000E+00 0. -1.
<mgrwt>
<rscale>  0 0.91959773E+02</rscale>
<asrwt>0</asrwt>
<pdfrwt beam="1">  1        1 0.87673421E-03 0.91959773E+02</pdfrwt>
<pdfrwt beam="2">  1       -1 0.57074370E-01 0.91959773E+02</pdfrwt>
<totfact> 0.54062625E+04</totfact>
</mgrwt>
</event>
<event>
 7    1  0.3345055E-009  0.9514205E+02  0.7818608E-02  0.1290856E+00
          1   -1    0    0  501    0  0.00000000000E+00  0.00000000000E+00  0.74150418232E+03  0.74150418233E+03  0.50400000000E-02 0. -1.
         -1   -1    0    0    0  501 -0.00000000000E+00 -0.00000000000E+00 -0.30519056266E+01  0.30519097881E+01  0.50400000000E-02 0.  1.
         23    2    1    2    0    0  0.35527136788E-14 -0.22204460493E-15  0.73845227669E+03  0.74455609212E+03  0.95142048365E+02 0.  0.
    9000005    2    3    3    0    0 -0.27300552252E+02 -0.15532732213E+01  0.67291020399E+03  0.67353851610E+03  0.99124778858E+01 0.  0.
         22    1    3    3    0    0  0.27300552252E+02  0.15532732213E+01  0.65542072695E+02  0.71017576023E+02  0.00000000000E+00 0.  1.
         22    1    4    4    0    0 -0.18171300203E+02  0.33709796768E+01  0.38874316768E+03  0.38918223247E+03  0.00000000000E+00 0.  1.
         22    1    4    4    0    0 -0.91292520486E+01 -0.49242528981E+01  0.28416703632E+03  0.28435628363E+03  0.00000000000E+00 0.  1.
<mgrwt>
<rscale>  0 0.95142048E+02</rscale>
<asrwt>0</asrwt>
<pdfrwt beam="1">  1        1 0.11407759E+00 0.95142048E+02</pdfrwt>
<pdfrwt beam="2">  1       -1 0.46952417E-03 0.95142048E+02</pdfrwt>
<totfact> 0.12683031E+05</totfact>
</mgrwt>
</event>
<event>
 7    1  0.3345055E-009  0.9148793E+02  0.7818608E-02  0.1299288E+00
          1   -1    0    0  501    0  0.00000000000E+00  0.00000000000E+00  0.10168520904E+03  0.10168520917E+03  0.50400000000E-02 0. -1.
         -1   -1    0    0    0  501 -0.00000000000E+00 -0.00000000000E+00 -0.20578315732E+02  0.20578316349E+02  0.50400000000E-02 0.  1.
         23    2    1    2    0    0  0.00000000000E+00  0.00000000000E+00  0.81106893310E+02  0.12226352552E+03  0.91487931058E+02 0.  0.
    9000005    2    3    3    0    0 -0.41738309754E+01 -0.42371056149E+02  0.60909835756E+02  0.75139769320E+02  0.11101782626E+02 0.  0.
         22    1    3    3    0    0  0.41738309754E+01  0.42371056149E+02  0.20197057554E+02  0.47123756196E+02  0.00000000000E+00 0.  1.
         22    1    4    4    0    0 -0.45114452300E+01 -0.55853781621E+01  0.89056784456E+01  0.11439435994E+02  0.00000000000E+00 0.  1.
         22    1    4    4    0    0  0.33761425459E+00 -0.36785677987E+02  0.52004157311E+02  0.63700333327E+02  0.00000000000E+00 0.  1.
<mgrwt>
<rscale>  0 0.91487931E+02</rscale>
<asrwt>0</asrwt>
<pdfrwt beam="1">  1        1 0.15643878E-01 0.91487931E+02</pdfrwt>
<pdfrwt beam="2">  1       -1 0.31658948E-02 0.91487931E+02</pdfrwt>
<totfact> 0.10377419E+05</totfact>
</mgrwt>
</event>
<event>
 7    1  0.3345055E-009  0.9246572E+02  0.7818608E-02  0.1296988E+00
         -1   -1    0    0    0  501 -0.00000000000E+00  0.00000000000E+00  0.24196509114E+01  0.24196561604E+01  0.50400000000E-02 0.  1.
          1   -1    0    0  501    0  0.00000000000E+00 -0.00000000000E+00 -0.88338160839E+03  0.88338160841E+03  0.50400000000E-02 0. -1.
         23    2    1    2    0    0  0.00000000000E+00  0.00000000000E+00 -0.88096195748E+03  0.88580126457E+03  0.92465722190E+02 0.  0.
    9000005    2    3    3    0    0 -0.31257563471E+02  0.18162406395E+02 -0.70827872829E+03  0.70937449244E+03  0.15700487022E+02 0.  0.
         22    1    3    3    0    0  0.31257563471E+02 -0.18162406395E+02 -0.17268322919E+03  0.17642677213E+03  0.00000000000E+00 0.  1.
         22    1    4    4    0    0 -0.12217707791E+02  0.75922266736E+01 -0.15462489234E+03  0.15529253563E+03  0.00000000000E+00 0.  1.
         22    1    4    4    0    0 -0.19039855681E+02  0.10570179722E+02 -0.55365383595E+03  0.55408195681E+03  0.00000000000E+00 0.  1.
<mgrwt>
<rscale>  0 0.92465722E+02</rscale>
<asrwt>0</asrwt>
<pdfrwt beam="2">  1        1 0.13590461E+00 0.92465722E+02</pdfrwt>
<pdfrwt beam="1">  1       -1 0.37225510E-03 0.92465722E+02</pdfrwt>
<totfact> 0.13451756E+05</totfact>
</mgrwt>
</event>
<event>
 7    1  0.3345055E-009  0.9079401E+02  0.7818608E-02  0.1300940E+00
          1   -1    0    0  501    0  0.00000000000E+00  0.00000000000E+00  0.15930271073E+03  0.15930271081E+03  0.50400000000E-02 0. -1.
         -1   -1    0    0    0  501 -0.00000000000E+00 -0.00000000000E+00 -0.12936929484E+02  0.12936930466E+02  0.50400000000E-02 0.  1.
         23    2    1    2    0    0  0.00000000000E+00  0.00000000000E+00  0.14636578124E+03  0.17223964127E+03  0.90794009202E+02 0.  0.
    9000005    2    3    3    0    0 -0.37104905619E+02  0.21064316862E+02  0.10067769824E+03  0.10972659948E+03  0.91350010669E+01 0.  0.
         22    1    3    3    0    0  0.37104905619E+02 -0.21064316862E+02  0.45688083007E+02  0.62513041798E+02  0.00000000000E+00 0.  1.
         22    1    4    4    0    0 -0.36883074200E+02  0.18984258991E+02  0.96957360481E+02  0.10545848948E+03  0.00000000000E+00 0. -1.
         22    1    4    4    0    0 -0.22183141964E+00  0.20800578717E+01  0.37203377553E+01  0.42681099965E+01  0.00000000000E+00 0. -1.
<mgrwt>
<rscale>  0 0.90794009E+02</rscale>
<asrwt>0</asrwt>
<pdfrwt beam="1">  1        1 0.24508110E-01 0.90794009E+02</pdfrwt>
<pdfrwt beam="2">  1       -1 0.19902969E-02 0.90794009E+02</pdfrwt>
<totfact> 0.11467989E+05</totfact>
</mgrwt>
</event>
<event>
 7    1  0.3345055E-009  0.9003511E+02  0.7818608E-02  0.1302767E+00
          1   -1    0    0  501    0  0.00000000000E+00  0.00000000000E+00  0.22783810784E+02  0.22783811341E+02  0.50400000000E-02 0. -1.
         -1   -1    0    0    0  501 -0.00000000000E+00 -0.00000000000E+00 -0.88948255114E+02  0.88948255257E+02  0.50400000000E-02 0.  1.
         23    2    1    2    0    0 -0.35527136788E-14  0.00000000000E+00 -0.66164444330E+02  0.11173206660E+03  0.90035109889E+02 0.  0.
    9000005    2    3    3    0    0  0.31589739136E+02  0.18798891130E+02 -0.18196936520E+01  0.37627027186E+02  0.78212507579E+01 0.  0.
         22    1    3    3    0    0 -0.31589739136E+02 -0.18798891130E+02 -0.64344750678E+02  0.74105039412E+02  0.00000000000E+00 0.  1.
         22    1    4    4    0    0  0.13182460150E+02  0.11688226783E+02 -0.29433065038E+01  0.17862109452E+02  0.00000000000E+00 0.  1.
         22    1    4    4    0    0  0.18407278987E+02  0.71106643476E+01  0.11236128518E+01  0.19764917733E+02  0.00000000000E+00 0.  1.
<mgrwt>
<rscale>  0 0.90035110E+02</rscale>
<asrwt>0</asrwt>
<pdfrwt beam="1">  1        1 0.35052017E-02 0.90035110E+02</pdfrwt>
<pdfrwt beam="2">  1       -1 0.13684347E-01 0.90035110E+02</pdfrwt>
<totfact> 0.85845131E+04</totfact>
</mgrwt>
</event>
<event>
 7    1  0.3345055E-009  0.9072816E+02  0.7818608E-02  0.1301098E+00
         -1   -1    0    0    0  501 -0.00000000000E+00  0.00000000000E+00  0.24354912595E+02  0.24354913116E+02  0.50400000000E-02 0.  1.
          1   -1    0    0  501    0  0.00000000000E+00 -0.00000000000E+00 -0.84496286718E+02  0.84496286869E+02  0.50400000000E-02 0. -1.
         23    2    1    2    0    0  0.00000000000E+00  0.00000000000E+00 -0.60141374124E+02  0.10885119998E+03  0.90728159116E+02 0.  0.
    9000005    2    3    3    0    0 -0.14120559928E+02  0.36375426159E+02 -0.55854778523E+02  0.69596432851E+02  0.14189620882E+02 0.  0.
         22    1    3    3    0    0  0.14120559928E+02 -0.36375426159E+02 -0.42865956006E+01  0.39254767134E+02  0.00000000000E+00 0.  1.
         22    1    4    4    0    0 -0.87510615132E+01  0.16264357782E+02 -0.15188424842E+02  0.23912311909E+02  0.00000000000E+00 0. -1.
         22    1    4    4    0    0 -0.53694984149E+01  0.20111068377E+02 -0.40666353681E+02  0.45684120942E+02  0.00000000000E+00 0. -1.
<mgrwt>
<rscale>  0 0.90728159E+02</rscale>
<asrwt>0</asrwt>
<pdfrwt beam="2">  1        1 0.12999429E-01 0.90728159E+02</pdfrwt>
<pdfrwt beam="1">  1       -1 0.37469097E-02 0.90728159E+02</pdfrwt>
<totfact> 0.10300452E+05</totfact>
</mgrwt>
</event>
<event>
 7    1  0.3345055E-009  0.1067760E+03  0.7818608E-02  0.1266659E+00
          1   -1    0    0  501    0  0.00000000000E+00  0.00000000000E+00  0.38763530665E+03  0.38763530668E+03  0.50400000000E-02 0. -1.
         -1   -1    0    0    0  501 -0.00000000000E+00 -0.00000000000E+00 -0.73529885700E+01  0.73529902973E+01  0.50400000000E-02 0.  1.
         23    2    1    2    0    0 -0.71054273576E-14 -0.35527136788E-14  0.38028231808E+03  0.39498829698E+03  0.10677599593E+03 0.  0.
    9000005    2    3    3    0    0 -0.33312283568E+02 -0.22825995429E+02  0.31671033134E+03  0.31967474042E+03  0.15992854054E+02 0.  0.
         22    1    3    3    0    0  0.33312283568E+02  0.22825995429E+02  0.63571986743E+02  0.75313556564E+02  0.00000000000E+00 0.  1.
         22    1    4    4    0    0 -0.12005146495E+02 -0.14062605497E+02  0.95937329032E+02  0.97702873640E+02  0.00000000000E+00 0. -1.
         22    1    4    4    0    0 -0.21307137073E+02 -0.87633899316E+01  0.22077300231E+03  0.22197186678E+03  0.00000000000E+00 0. -1.
<mgrwt>
<rscale>  0 0.10677600E+03</rscale>
<asrwt>0</asrwt>
<pdfrwt beam="1">  1        1 0.59636207E-01 0.10677600E+03</pdfrwt>
<pdfrwt beam="2">  1       -1 0.11312290E-02 0.10677600E+03</pdfrwt>
<totfact> 0.87911039E+04</totfact>
</mgrwt>
</event>
<event>
 7    1  0.3345055E-009  0.9077512E+02  0.7818608E-02  0.1300985E+00
         -1   -1    0    0    0  501 -0.00000000000E+00  0.00000000000E+00  0.87590009573E+02  0.87590009718E+02  0.50400000000E-02 0.  1.
          1   -1    0    0  501    0  0.00000000000E+00 -0.00000000000E+00 -0.23519011139E+02  0.23519011679E+02  0.50400000000E-02 0. -1.
         23    2    1    2    0    0  0.00000000000E+00  0.17763568394E-14  0.64070998434E+02  0.11110902140E+03  0.90775116610E+02 0.  0.
    9000005    2    3    3    0    0  0.41873661857E+02  0.96293126634E+01  0.47689979096E+02  0.65125709052E+02  0.10995301436E+02 0.  0.
         22    1    3    3    0    0 -0.41873661857E+02 -0.96293126634E+01  0.16381019339E+02  0.45983312345E+02  0.00000000000E+00 0. -1.
         22    1    4    4    0    0  0.25238432647E+01  0.36380045426E+01  0.63214706639E+01  0.77178917608E+01  0.00000000000E+00 0.  1.
         22    1    4    4    0    0  0.39349818592E+02  0.59913081208E+01  0.41368508432E+02  0.57407817291E+02  0.00000000000E+00 0.  1.
<mgrwt>
<rscale>  0 0.90775117E+02</rscale>
<asrwt>0</asrwt>
<pdfrwt beam="2">  1        1 0.36183095E-02 0.90775117E+02</pdfrwt>
<pdfrwt beam="1">  1       -1 0.13475386E-01 0.90775117E+02</pdfrwt>
<totfact> 0.84289575E+04</totfact>
</mgrwt>
</event>
<event>
 7    1  0.3345055E-009  0.9132945E+02  0.7818608E-02  0.1299664E+00
          1   -1    0    0  501    0  0.00000000000E+00  0.00000000000E+00  0.27885977232E+02  0.27885977688E+02  0.50400000000E-02 0. -1.
         -1   -1    0    0    0  501 -0.00000000000E+00 -0.00000000000E+00 -0.74778340815E+02  0.74778340985E+02  0.50400000000E-02 0.  1.
         23    2    1    2    0    0 -0.44408920985E-15  0.00000000000E+00 -0.46892363583E+02  0.10266431867E+03  0.91329450705E+02 0.  0.
    9000005    2    3    3    0    0 -0.25104404042E+01  0.26436649597E+02 -0.64330700045E+02  0.70894925674E+02  0.13507507729E+02 0.  0.
         22    1    3    3    0    0  0.25104404042E+01 -0.26436649597E+02  0.17438336462E+02  0.31769392999E+02  0.00000000000E+00 0. -1.
         22    1    4    4    0    0 -0.23183062387E+01  0.59030276899E+01 -0.48931341457E+01  0.80101836116E+01  0.00000000000E+00 0. -1.
         22    1    4    4    0    0 -0.19213416544E+00  0.20533621907E+02 -0.59437565899E+02  0.62884742062E+02  0.00000000000E+00 0. -1.
<mgrwt>
<rscale>  0 0.91329451E+02</rscale>
<asrwt>0</asrwt>
<pdfrwt beam="1">  1        1 0.42901504E-02 0.91329451E+02</pdfrwt>
<pdfrwt beam="2">  1       -1 0.11504360E-01 0.91329451E+02</pdfrwt>
<totfact> 0.85245278E+04</totfact>
</mgrwt>
</event>
<event>
 7    1  0.3345055E-009  0.8940189E+02  0.7818608E-02  0.1304307E+00
         -1   -1    0    0    0  501 -0.00000000000E+00  0.00000000000E+00  0.91660659063E+01  0.91660672920E+01  0.50400000000E-02 0.  1.
          1   -1    0    0  501    0  0.00000000000E+00 -0.00000000000E+00 -0.21799694229E+03  0.21799694235E+03  0.50400000000E-02 0. -1.
         23    2    1    2    0    0  0.00000000000E+00 -0.71054273576E-14 -0.20883087639E+03  0.22716300964E+03  0.89401890460E+02 0.  0.
    9000005    2    3    3    0    0 -0.11370407255E+01 -0.37092571932E+02 -0.50073218831E+02  0.64125757499E+02  0.15087537128E+02 0.  0.
         22    1    3    3    0    0  0.11370407255E+01  0.37092571932E+02 -0.15875765756E+03  0.16303725215E+03  0.00000000000E+00 0. -1.
         22    1    4    4    0    0 -0.11792778582E+01 -0.12150355741E+00  0.65515733315E+00  0.13545074797E+01  0.00000000000E+00 0. -1.
         22    1    4    4    0    0  0.42237132707E-01 -0.36971068375E+02 -0.50728376164E+02  0.62771250019E+02  0.00000000000E+00 0. -1.
<mgrwt>
<rscale>  0 0.89401890E+02</rscale>
<asrwt>0</asrwt>
<pdfrwt beam="2">  1        1 0.33537987E-01 0.89401890E+02</pdfrwt>
<pdfrwt beam="1">  1       -1 0.14101643E-02 0.89401890E+02</pdfrwt>
<totfact> 0.12690534E+05</totfact>
</mgrwt>
</event>
<event>
 7    1  0.3345055E-009  0.9178661E+02  0.7818608E-02  0.1298582E+00
          1   -1    0    0  501    0  0.00000000000E+00  0.00000000000E+00  0.12811145477E+03  0.12811145487E+03  0.50400000000E-02 0.  1.
         -1   -1    0    0    0  501 -0.00000000000E+00 -0.00000000000E+00 -0.16440337420E+02  0.16440338193E+02  0.50400000000E-02 0. -1.
         23    2    1    2    0    0  0.00000000000E+00  0.88817841970E-15  0.11167111735E+03  0.14455179306E+03  0.91786613551E+02 0.  0.
    9000005    2    3    3    0    0  0.40232036763E+02 -0.43790691254E+01  0.22062998009E+02  0.46228814668E+02  0.35403948772E+01 0.  0.
         22    1    3    3    0    0 -0.40232036763E+02  0.43790691254E+01  0.89608119341E+02  0.98322978394E+02  0.00000000000E+00 0. -1.
         22    1    4    4    0    0  0.17190361946E+02 -0.35415462092E+01  0.88954531746E+01  0.19676894587E+02  0.00000000000E+00 0.  1.
         22    1    4    4    0    0  0.23041674817E+02 -0.83752291621E+00  0.13167544835E+02  0.26551920081E+02  0.00000000000E+00 0.  1.
<mgrwt>
<rscale>  0 0.91786614E+02</rscale>
<asrwt>0</asrwt>
<pdfrwt beam="1">  1        1 0.19709454E-01 0.91786614E+02</pdfrwt>
<pdfrwt beam="2">  1       -1 0.25292828E-02 0.91786614E+02</pdfrwt>
<totfact> 0.10703179E+05</totfact>
</mgrwt>
</event>
<event>
 7    1  0.3345055E-009  0.9007732E+02  0.7818608E-02  0.1302665E+00
         -1   -1    0    0    0  501 -0.00000000000E+00  0.00000000000E+00  0.58426632211E+02  0.58426632429E+02  0.50400000000E-02 0.  1.
          1   -1    0    0  501    0  0.00000000000E+00 -0.00000000000E+00 -0.34718431952E+02  0.34718432317E+02  0.50400000000E-02 0. -1.
         23    2    1    2    0    0  0.00000000000E+00  0.00000000000E+00  0.23708200260E+02  0.93145064746E+02  0.90077324155E+02 0.  0.
    9000005    2    3    3    0    0 -0.24972757721E+02 -0.28181232001E+02 -0.12435159744E+02  0.40951550421E+02  0.10226231896E+02 0.  0.
         22    1    3    3    0    0  0.24972757721E+02  0.28181232001E+02  0.36143360003E+02  0.52193514325E+02  0.00000000000E+00 0.  1.
         22    1    4    4    0    0 -0.21842163397E+02 -0.19692166747E+02 -0.12367867962E+02  0.31903380558E+02  0.00000000000E+00 0.  1.
         22    1    4    4    0    0 -0.31305943233E+01 -0.84890652537E+01 -0.67291781579E-01  0.90481698637E+01  0.00000000000E+00 0.  1.
<mgrwt>
<rscale>  0 0.90077324E+02</rscale>
<asrwt>0</asrwt>
<pdfrwt beam="2">  1        1 0.53412973E-02 0.90077324E+02</pdfrwt>
<pdfrwt beam="1">  1       -1 0.89887126E-02 0.90077324E+02</pdfrwt>
<totfact> 0.91823783E+04</totfact>
</mgrwt>
</event>
<event>
 7    1  0.3345055E-009  0.9104975E+02  0.7818608E-02  0.1300329E+00
          1   -1    0    0  501    0  0.00000000000E+00  0.00000000000E+00  0.33181064952E+02  0.33181065335E+02  0.50400000000E-02 0. -1.
         -1   -1    0    0    0  501 -0.00000000000E+00 -0.00000000000E+00 -0.62460752748E+02  0.62460752952E+02  0.50400000000E-02 0.  1.
         23    2    1    2    0    0  0.00000000000E+00  0.00000000000E+00 -0.29279687796E+02  0.95641818287E+02  0.91049751717E+02 0.  0.
    9000005    2    3    3    0    0  0.13918553775E+02 -0.27793826036E+02 -0.49260112247E+02  0.58689954110E+02  0.71922979617E+01 0.  0.
         22    1    3    3    0    0 -0.13918553775E+02  0.27793826036E+02  0.19980424451E+02  0.36951864177E+02  0.00000000000E+00 0. -1.
         22    1    4    4    0    0  0.27852082571E+01 -0.86519768465E+01 -0.20230954771E+02  0.22178945406E+02  0.00000000000E+00 0. -1.
         22    1    4    4    0    0  0.11133345518E+02 -0.19141849190E+02 -0.29029157476E+02  0.36511008704E+02  0.00000000000E+00 0. -1.
<mgrwt>
<rscale>  0 0.91049752E+02</rscale>
<asrwt>0</asrwt>
<pdfrwt beam="1">  1        1 0.51047793E-02 0.91049752E+02</pdfrwt>
<pdfrwt beam="2">  1       -1 0.96093466E-02 0.91049752E+02</pdfrwt>
<totfact> 0.88437806E+04</totfact>
</mgrwt>
</event>
<event>
 7    1  0.3345055E-009  0.8767084E+02  0.7818608E-02  0.1308592E+00
          1   -1    0    0  501    0  0.00000000000E+00  0.00000000000E+00  0.35226571836E+02  0.35226572196E+02  0.50400000000E-02 0. -1.
         -1   -1    0    0    0  501 -0.00000000000E+00 -0.00000000000E+00 -0.54548142551E+02  0.54548142784E+02  0.50400000000E-02 0.  1.
         23    2    1    2    0    0  0.00000000000E+00  0.00000000000E+00 -0.19321570716E+02  0.89774714980E+02  0.87670840961E+02 0.  0.
    9000005    2    3    3    0    0  0.16922043252E+02 -0.18191449608E+02  0.27196618706E+02  0.37037381584E+02  0.38506076062E+01 0.  0.
         22    1    3    3    0    0 -0.16922043252E+02  0.18191449608E+02 -0.46518189421E+02  0.52737333396E+02  0.00000000000E+00 0.  1.
         22    1    4    4    0    0  0.22509589860E+01 -0.46289848572E+01  0.50636236503E+01  0.72204294635E+01  0.00000000000E+00 0. -1.
         22    1    4    4    0    0  0.14671084266E+02 -0.13562464751E+02  0.22132995055E+02  0.29816952121E+02  0.00000000000E+00 0. -1.
<mgrwt>
<rscale>  0 0.87670841E+02</rscale>
<asrwt>0</asrwt>
<pdfrwt beam="1">  1        1 0.54194726E-02 0.87670841E+02</pdfrwt>
<pdfrwt beam="2">  1       -1 0.83920220E-02 0.87670841E+02</pdfrwt>
<totfact> 0.99353786E+04</totfact>
</mgrwt>
</event>
<event>
 7    1  0.3345055E-009  0.8958645E+02  0.7818608E-02  0.1303856E+00
          1   -1    0    0  501    0  0.00000000000E+00  0.00000000000E+00  0.21984296529E+03  0.21984296534E+03  0.50400000000E-02 0.  1.
         -1   -1    0    0    0  501 -0.00000000000E+00 -0.00000000000E+00 -0.91266633511E+01  0.91266647427E+01  0.50400000000E-02 0. -1.
         23    2    1    2    0    0  0.00000000000E+00  0.00000000000E+00  0.21071630193E+03  0.22896963009E+03  0.89586447640E+02 0.  0.
    9000005    2    3    3    0    0 -0.82981354174E+01 -0.23806726497E+02  0.19908899761E+03  0.20120610215E+03  0.14554974823E+02 0.  0.
         22    1    3    3    0    0  0.82981354174E+01  0.23806726497E+02  0.11627304321E+02  0.27763527940E+02  0.00000000000E+00 0. -1.
         22    1    4    4    0    0 -0.67931670942E+01 -0.21970045737E+02  0.12617825146E+03  0.12825670029E+03  0.00000000000E+00 0. -1.
         22    1    4    4    0    0 -0.15049683232E+01 -0.18366807603E+01  0.72910746152E+02  0.72949401850E+02  0.00000000000E+00 0. -1.
<mgrwt>
<rscale>  0 0.89586448E+02</rscale>
<asrwt>0</asrwt>
<pdfrwt beam="1">  1        1 0.33821991E-01 0.89586448E+02</pdfrwt>
<pdfrwt beam="2">  1       -1 0.14041023E-02 0.89586448E+02</pdfrwt>
<totfact> 0.12641538E+05</totfact>
</mgrwt>
</event>
<event>
 7    1  0.3345055E-009  0.6726258E+02  0.7818608E-02  0.1369657E+00
          1   -1    0    0  501    0  0.00000000000E+00  0.00000000000E+00  0.86089740371E+02  0.86089740518E+02  0.50400000000E-02 0. -1.
         -1   -1    0    0    0  501 -0.00000000000E+00 -0.00000000000E+00 -0.13138192938E+02  0.13138193905E+02  0.50400000000E-02 0.  1.
         23    2    1    2    0    0 -0.17763568394E-14 -0.35527136788E-14  0.72951547433E+02  0.99227934423E+02  0.67262580214E+02 0.  0.
    9000005    2    3    3    0    0  0.11025308280E+02  0.29294059837E+02  0.23716550230E+02  0.40885974274E+02  0.11379313387E+02 0.  0.
         22    1    3    3    0    0 -0.11025308280E+02 -0.29294059837E+02  0.49234997203E+02  0.58341960149E+02  0.00000000000E+00 0. -1.
         22    1    4    4    0    0  0.11720455088E+02  0.26817656876E+02  0.24530954103E+02  0.38188002003E+02  0.00000000000E+00 0.  1.
         22    1    4    4    0    0 -0.69514680776E+00  0.24764029609E+01 -0.81440387296E+00  0.26979722714E+01  0.00000000000E+00 0.  1.
<mgrwt>
<rscale>  0 0.67262580E+02</rscale>
<asrwt>0</asrwt>
<pdfrwt beam="1">  1        1 0.13244576E-01 0.67262580E+02</pdfrwt>
<pdfrwt beam="2">  1       -1 0.20212605E-02 0.67262580E+02</pdfrwt>
<totfact> 0.23047568E+05</totfact>
</mgrwt>
</event>
<event>
 7    1  0.3345055E-009  0.9094402E+02  0.7818608E-02  0.1300582E+00
          1   -1    0    0  501    0  0.00000000000E+00  0.00000000000E+00  0.53308303386E+03  0.53308303388E+03  0.50400000000E-02 0. -1.
         -1   -1    0    0    0  501 -0.00000000000E+00 -0.00000000000E+00 -0.38787630786E+01  0.38787663530E+01  0.50400000000E-02 0.  1.
         23    2    1    2    0    0  0.00000000000E+00  0.00000000000E+00  0.52920427078E+03  0.53696180023E+03  0.90944019596E+02 0.  0.
    9000005    2    3    3    0    0  0.22330980047E+02  0.35106387696E+02  0.36864563010E+03  0.37109978462E+03  0.91825065495E+01 0.  0.
         22    1    3    3    0    0 -0.22330980047E+02 -0.35106387696E+02  0.16055864068E+03  0.16586201561E+03  0.00000000000E+00 0.  1.
         22    1    4    4    0    0  0.66178737906E+01  0.49890040847E+01  0.93083752417E+02  0.93451973651E+02  0.00000000000E+00 0.  1.
         22    1    4    4    0    0  0.15713106256E+02  0.30117383611E+02  0.27556187768E+03  0.27764781097E+03  0.00000000000E+00 0.  1.
<mgrwt>
<rscale>  0 0.90944020E+02</rscale>
<asrwt>0</asrwt>
<pdfrwt beam="1">  1        1 0.82012811E-01 0.90944020E+02</pdfrwt>
<pdfrwt beam="2">  1       -1 0.59673277E-03 0.90944020E+02</pdfrwt>
<totfact> 0.14119577E+05</totfact>
</mgrwt>
</event>
<event>
 7    1  0.3345055E-009  0.8904776E+02  0.7818608E-02  0.1305174E+00
         -1   -1    0    0    0  501 -0.00000000000E+00  0.00000000000E+00  0.10592501154E+01  0.10592621057E+01  0.50400000000E-02 0.  1.
          1   -1    0    0  501    0  0.00000000000E+00 -0.00000000000E+00 -0.18714791255E+04  0.18714791255E+04  0.50400000000E-02 0. -1.
         23    2    1    2    0    0  0.22204460493E-15  0.00000000000E+00 -0.18704198753E+04  0.18725383876E+04  0.89047756000E+02 0.  0.
    9000005    2    3    3    0    0 -0.16924242261E+01  0.12057048405E+02 -0.18351107075E+04  0.18351890361E+04  0.11800550974E+02 0.  0.
         22    1    3    3    0    0  0.16924242261E+01 -0.12057048405E+02 -0.35309167876E+02  0.37349351428E+02  0.00000000000E+00 0.  1.
         22    1    4    4    0    0  0.30773956757E+01 -0.52434746835E+00 -0.52371024762E+03  0.52371955164E+03  0.00000000000E+00 0.  1.
         22    1    4    4    0    0 -0.47698199018E+01  0.12581395873E+02 -0.13114004599E+04  0.13114694845E+04  0.00000000000E+00 0.  1.
<mgrwt>
<rscale>  0 0.89047756E+02</rscale>
<asrwt>0</asrwt>
<pdfrwt beam="2">  1        1 0.28791722E+00 0.89047756E+02</pdfrwt>
<pdfrwt beam="1">  1       -1 0.16296398E-03 0.89047756E+02</pdfrwt>
<totfact> 0.93222962E+04</totfact>
</mgrwt>
</event>
<event>
 7    1  0.3345055E-009  0.9151038E+02  0.7818608E-02  0.1299235E+00
         -1   -1    0    0    0  501 -0.00000000000E+00  0.00000000000E+00  0.21273312224E+02  0.21273312821E+02  0.50400000000E-02 0.  1.
          1   -1    0    0  501    0  0.00000000000E+00 -0.00000000000E+00 -0.98411443031E+02  0.98411443160E+02  0.50400000000E-02 0. -1.
         23    2    1    2    0    0  0.00000000000E+00 -0.35527136788E-14 -0.77138130808E+02  0.11968475598E+03  0.91510379683E+02 0.  0.
    9000005    2    3    3    0    0  0.15104820230E+02  0.23144857028E+02 -0.86250443018E+02  0.90583652310E+02  0.15553597715E+01 0.  0.
         22    1    3    3    0    0 -0.15104820230E+02 -0.23144857028E+02  0.91123122105E+01  0.29101103671E+02  0.00000000000E+00 0.  1.
         22    1    4    4    0    0  0.24219914343E+01  0.31691051266E+01 -0.11006102574E+02  0.11706560711E+02  0.00000000000E+00 0.  1.
         22    1    4    4    0    0  0.12682828796E+02  0.19975751901E+02 -0.75244340444E+02  0.78877091599E+02  0.00000000000E+00 0.  1.
<mgrwt>
<rscale>  0 0.91510380E+02</rscale>
<asrwt>0</asrwt>
<pdfrwt beam="2">  1        1 0.15140222E-01 0.91510380E+02</pdfrwt>
<pdfrwt beam="1">  1       -1 0.32728174E-02 0.91510380E+02</pdfrwt>
<totfact> 0.10314102E+05</totfact>
</mgrwt>
</event>
<event>
 7    1  0.3345055E-009  0.9080174E+02  0.7818608E-02  0.1300922E+00
          1   -1    0    0  501    0  0.00000000000E+00  0.00000000000E+00  0.72521411954E+02  0.72521412129E+02  0.50400000000E-02 0. -1.
         -1   -1    0    0    0  501 -0.00000000000E+00 -0.00000000000E+00 -0.28422491175E+02  0.28422491622E+02  0.50400000000E-02 0.  1.
         23    2    1    2    0    0  0.00000000000E+00  0.35527136788E-14  0.44098920779E+02  0.10094390375E+03  0.90801744976E+02 0.  0.
    9000005    2    3    3    0    0 -0.21418688137E+02 -0.18140831570E+02 -0.17120074607E+02  0.33596926331E+02  0.69142268396E+01 0.  0.
         22    1    3    3    0    0  0.21418688137E+02  0.18140831570E+02  0.61218995386E+02  0.67346977420E+02  0.00000000000E+00 0. -1.
         22    1    4    4    0    0 -0.21253047098E+02 -0.17853672783E+02 -0.17706251414E+02  0.32923501969E+02  0.00000000000E+00 0. -1.
         22    1    4    4    0    0 -0.16564103913E+00 -0.28715878720E+00  0.58617680662E+00  0.67342436215E+00  0.00000000000E+00 0. -1.
<mgrwt>
<rscale>  0 0.90801745E+02</rscale>
<asrwt>0</asrwt>
<pdfrwt beam="1">  1        1 0.11157140E-01 0.90801745E+02</pdfrwt>
<pdfrwt beam="2">  1       -1 0.43726910E-02 0.90801745E+02</pdfrwt>
<totfact> 0.10034120E+05</totfact>
</mgrwt>
</event>
<event>
 7    1  0.3345055E-009  0.9115079E+02  0.7818608E-02  0.1300089E+00
         -1   -1    0    0    0  501 -0.00000000000E+00  0.00000000000E+00  0.11975549948E+02  0.11975551009E+02  0.50400000000E-02 0.  1.
          1   -1    0    0  501    0  0.00000000000E+00 -0.00000000000E+00 -0.17344644337E+03  0.17344644344E+03  0.50400000000E-02 0. -1.
         23    2    1    2    0    0  0.00000000000E+00  0.00000000000E+00 -0.16147089342E+03  0.18542199445E+03  0.91150790475E+02 0.  0.
    9000005    2    3    3    0    0  0.11077279990E+02  0.37847089994E+02 -0.12641163539E+03  0.13265590755E+03  0.79107454499E+01 0.  0.
         22    1    3    3    0    0 -0.11077279990E+02 -0.37847089994E+02 -0.35059258032E+02  0.52766086900E+02  0.00000000000E+00 0.  1.
         22    1    4    4    0    0  0.29174656471E+01  0.22217176040E+02 -0.76916824120E+02  0.80114370432E+02  0.00000000000E+00 0.  1.
         22    1    4    4    0    0  0.81598143431E+01  0.15629913954E+02 -0.49494811267E+02  0.52541537118E+02  0.00000000000E+00 0.  1.
<mgrwt>
<rscale>  0 0.91150790E+02</rscale>
<asrwt>0</asrwt>
<pdfrwt beam="2">  1        1 0.26684066E-01 0.91150790E+02</pdfrwt>
<pdfrwt beam="1">  1       -1 0.18423925E-02 0.91150790E+02</pdfrwt>
<totfact> 0.11529951E+05</totfact>
</mgrwt>
</event>
<event>
 7    1  0.3345055E-009  0.9265958E+02  0.7818608E-02  0.1296536E+00
          1   -1    0    0  501    0  0.00000000000E+00  0.00000000000E+00  0.54281277594E+02  0.54281277828E+02  0.50400000000E-02 0. -1.
         -1   -1    0    0    0  501 -0.00000000000E+00 -0.00000000000E+00 -0.39543089504E+02  0.39543089826E+02  0.50400000000E-02 0.  1.
         23    2    1    2    0    0  0.71054273576E-14  0.22204460493E-15  0.14738188089E+02  0.93824367653E+02  0.92659580063E+02 0.  0.
    9000005    2    3    3    0    0 -0.35692059350E+02 -0.10475618307E+01 -0.21281342667E+02  0.43105267875E+02  0.11408246422E+02 0.  0.
         22    1    3    3    0    0  0.35692059350E+02  0.10475618307E+01  0.36019530756E+02  0.50719099778E+02  0.00000000000E+00 0. -1.
         22    1    4    4    0    0 -0.89456953666E+01 -0.46891693027E+01 -0.31195115842E+01  0.10570956762E+02  0.00000000000E+00 0.  1.
         22    1    4    4    0    0 -0.26746363983E+02  0.36416074720E+01 -0.18161831083E+02  0.32534311113E+02  0.00000000000E+00 0.  1.
<mgrwt>
<rscale>  0 0.92659580E+02</rscale>
<asrwt>0</asrwt>
<pdfrwt beam="1">  1        1 0.83509658E-02 0.92659580E+02</pdfrwt>
<pdfrwt beam="2">  1       -1 0.60835523E-02 0.92659580E+02</pdfrwt>
<totfact> 0.90747963E+04</totfact>
</mgrwt>
</event>
<event>
 7    1  0.3345055E-009  0.9173556E+02  0.7818608E-02  0.1298702E+00
          1   -1    0    0  501    0  0.00000000000E+00  0.00000000000E+00  0.82846112059E+02  0.82846112212E+02  0.50400000000E-02 0. -1.
         -1   -1    0    0    0  501 -0.00000000000E+00 -0.00000000000E+00 -0.25394710774E+02  0.25394711275E+02  0.50400000000E-02 0.  1.
         23    2    1    2    0    0 -0.35527136788E-14  0.00000000000E+00  0.57451401284E+02  0.10824082349E+03  0.91735556681E+02 0.  0.
    9000005    2    3    3    0    0  0.29928965326E+02  0.99066342568E+01 -0.91183690685E+01  0.34583381958E+02  0.10907854299E+02 0.  0.
         22    1    3    3    0    0 -0.29928965326E+02 -0.99066342568E+01  0.66569770353E+02  0.73657441529E+02  0.00000000000E+00 0. -1.
         22    1    4    4    0    0  0.22579259298E+02  0.10184177587E+02 -0.10826880866E+02  0.27032605736E+02  0.00000000000E+00 0.  1.
         22    1    4    4    0    0  0.73497060278E+01 -0.27754333046E+00  0.17085117978E+01  0.75507762222E+01  0.00000000000E+00 0.  1.
<mgrwt>
<rscale>  0 0.91735557E+02</rscale>
<asrwt>0</asrwt>
<pdfrwt beam="1">  1        1 0.12745556E-01 0.91735557E+02</pdfrwt>
<pdfrwt beam="2">  1       -1 0.39068786E-02 0.91735557E+02</pdfrwt>
<totfact> 0.99618656E+04</totfact>
</mgrwt>
</event>
<event>
 7    1  0.3345055E-009  0.8689119E+02  0.7818608E-02  0.1310560E+00
          1   -1    0    0  501    0  0.00000000000E+00  0.00000000000E+00  0.21148506123E+03  0.21148506129E+03  0.50400000000E-02 0. -1.
         -1   -1    0    0    0  501 -0.00000000000E+00 -0.00000000000E+00 -0.89250717439E+01  0.89250731669E+01  0.50400000000E-02 0.  1.
         23    2    1    2    0    0  0.00000000000E+00  0.00000000000E+00  0.20255998949E+03  0.22041013446E+03  0.86891185001E+02 0.  0.
    9000005    2    3    3    0    0  0.23958405010E+02 -0.26254849091E+02  0.16329729306E+03  0.16744900152E+03  0.10480454087E+02 0.  0.
         22    1    3    3    0    0 -0.23958405010E+02  0.26254849091E+02  0.39262696431E+02  0.52961132942E+02  0.00000000000E+00 0.  1.
         22    1    4    4    0    0  0.41656933701E+01 -0.11184910151E+02  0.44334418036E+02  0.45912915818E+02  0.00000000000E+00 0. -1.
         22    1    4    4    0    0  0.19792711640E+02 -0.15069938941E+02  0.11896287502E+03  0.12153608570E+03  0.00000000000E+00 0. -1.
<mgrwt>
<rscale>  0 0.86891185E+02</rscale>
<asrwt>0</asrwt>
<pdfrwt beam="1">  1        1 0.32536161E-01 0.86891185E+02</pdfrwt>
<pdfrwt beam="2">  1       -1 0.13730882E-02 0.86891185E+02</pdfrwt>
<totfact> 0.13612083E+05</totfact>
</mgrwt>
</event>
<event>
 7    1  0.3345055E-009  0.9665489E+02  0.7818608E-02  0.1287492E+00
          1   -1    0    0  501    0  0.00000000000E+00  0.00000000000E+00  0.75721841655E+03  0.75721841657E+03  0.50400000000E-02 0. -1.
         -1   -1    0    0    0  501 -0.00000000000E+00 -0.00000000000E+00 -0.30843682192E+01  0.30843723370E+01  0.50400000000E-02 0.  1.
         23    2    1    2    0    0 -0.71054273576E-14  0.00000000000E+00  0.75413404833E+03  0.76030278890E+03  0.96654891046E+02 0.  0.
    9000005    2    3    3    0    0  0.43206583215E+02  0.99477020269E+01  0.51234253571E+03  0.51447988276E+03  0.15129780568E+02 0.  0.
         22    1    3    3    0    0 -0.43206583215E+02 -0.99477020269E+01  0.24179151262E+03  0.24582290615E+03  0.00000000000E+00 0.  1.
         22    1    4    4    0    0  0.27420304531E+02  0.12108151293E+02  0.38030901938E+03  0.38148844105E+03  0.00000000000E+00 0. -1.
         22    1    4    4    0    0  0.15786278684E+02 -0.21604492660E+01  0.13203351633E+03  0.13299144171E+03  0.00000000000E+00 0. -1.
<mgrwt>
<rscale>  0 0.96654891E+02</rscale>
<asrwt>0</asrwt>
<pdfrwt beam="1">  1        1 0.11649530E+00 0.96654891E+02</pdfrwt>
<pdfrwt beam="2">  1       -1 0.47451785E-03 0.96654891E+02</pdfrwt>
<totfact> 0.12150752E+05</totfact>
</mgrwt>
</event>
<event>
 7    1  0.3345055E-009  0.9095962E+02  0.7818608E-02  0.1300544E+00
         -1   -1    0    0    0  501 -0.00000000000E+00  0.00000000000E+00  0.36938509289E+02  0.36938509633E+02  0.50400000000E-02 0.  1.
          1   -1    0    0  501    0  0.00000000000E+00 -0.00000000000E+00 -0.55996118323E+02  0.55996118550E+02  0.50400000000E-02 0. -1.
         23    2    1    2    0    0  0.00000000000E+00  0.35527136788E-14 -0.19057609034E+02  0.92934628183E+02  0.90959621005E+02 0.  0.
    9000005    2    3    3    0    0 -0.32109525414E+02 -0.30265701910E+02  0.77343630435E+00  0.44557932413E+02  0.61462836574E+01 0.  0.
         22    1    3    3    0    0  0.32109525414E+02  0.30265701910E+02 -0.19831045339E+02  0.48376695770E+02  0.00000000000E+00 0. -1.
         22    1    4    4    0    0 -0.26964965353E+02 -0.22334993399E+02  0.17302292886E+01  0.35056454185E+02  0.00000000000E+00 0. -1.
         22    1    4    4    0    0 -0.51445600610E+01 -0.79307085111E+01 -0.95679298423E+00  0.95014782284E+01  0.00000000000E+00 0. -1.
<mgrwt>
<rscale>  0 0.90959621E+02</rscale>
<asrwt>0</asrwt>
<pdfrwt beam="2">  1        1 0.86147875E-02 0.90959621E+02</pdfrwt>
<pdfrwt beam="1">  1       -1 0.56828476E-02 0.90959621E+02</pdfrwt>
<totfact> 0.96007224E+04</totfact>
</mgrwt>
</event>
<event>
 7    1  0.3345055E-009  0.9167024E+02  0.7818608E-02  0.1298857E+00
         -1   -1    0    0    0  501 -0.00000000000E+00  0.00000000000E+00  0.86055421384E+02  0.86055421531E+02  0.50400000000E-02 0.  1.
          1   -1    0    0  501    0  0.00000000000E+00 -0.00000000000E+00 -0.24412853097E+02  0.24412853617E+02  0.50400000000E-02 0. -1.
         23    2    1    2    0    0  0.00000000000E+00 -0.35527136788E-14  0.61642568287E+02  0.11046827515E+03  0.91670243751E+02 0.  0.
    9000005    2    3    3    0    0 -0.35336300992E+02  0.28460386357E+02  0.26666081561E+02  0.53179512000E+02  0.76375932980E+01 0.  0.
         22    1    3    3    0    0  0.35336300992E+02 -0.28460386357E+02  0.34976486726E+02  0.57288763148E+02  0.00000000000E+00 0. -1.
         22    1    4    4    0    0 -0.20765377964E+02  0.19725101453E+02  0.13376407823E+02  0.31610264718E+02  0.00000000000E+00 0. -1.
         22    1    4    4    0    0 -0.14570923028E+02  0.87352849038E+01  0.13289673738E+02  0.21569247282E+02  0.00000000000E+00 0. -1.
<mgrwt>
<rscale>  0 0.91670244E+02</rscale>
<asrwt>0</asrwt>
<pdfrwt beam="2">  1        1 0.37558237E-02 0.91670244E+02</pdfrwt>
<pdfrwt beam="1">  1       -1 0.13239295E-01 0.91670244E+02</pdfrwt>
<totfact> 0.82447245E+04</totfact>
</mgrwt>
</event>
<event>
 7    1  0.3345055E-009  0.8793190E+02  0.7818608E-02  0.1307939E+00
          1   -1    0    0  501    0  0.00000000000E+00  0.00000000000E+00  0.81882440636E+03  0.81882440638E+03  0.50400000000E-02 0. -1.
         -1   -1    0    0    0  501 -0.00000000000E+00 -0.00000000000E+00 -0.23607048670E+01  0.23607102471E+01  0.50400000000E-02 0.  1.
         23    2    1    2    0    0  0.00000000000E+00 -0.71054273576E-14  0.81646370150E+03  0.82118511663E+03  0.87931904943E+02 0.  0.
    9000005    2    3    3    0    0  0.83107860525E+01 -0.36827444219E+02  0.60696384362E+03  0.60831069294E+03  0.14541728292E+02 0.  0.
         22    1    3    3    0    0 -0.83107860525E+01  0.36827444219E+02  0.20949985787E+03  0.21287442369E+03  0.00000000000E+00 0.  1.
         22    1    4    4    0    0  0.11160380643E+02 -0.33832682311E+02  0.57094293488E+03  0.57205335361E+03  0.00000000000E+00 0. -1.
         22    1    4    4    0    0 -0.28495945905E+01 -0.29947619076E+01  0.36020908745E+02  0.36257339326E+02  0.00000000000E+00 0. -1.
<mgrwt>
<rscale>  0 0.87931905E+02</rscale>
<asrwt>0</asrwt>
<pdfrwt beam="1">  1        1 0.12597316E+00 0.87931905E+02</pdfrwt>
<pdfrwt beam="2">  1       -1 0.36318528E-03 0.87931905E+02</pdfrwt>
<totfact> 0.15513552E+05</totfact>
</mgrwt>
</event>
<event>
 7    1  0.3345055E-009  0.9145470E+02  0.7818608E-02  0.1299367E+00
         -1   -1    0    0    0  501 -0.00000000000E+00  0.00000000000E+00  0.12094082386E+01  0.12094187402E+01  0.50400000000E-02 0.  1.
          1   -1    0    0  501    0  0.00000000000E+00 -0.00000000000E+00 -0.17289293914E+04  0.17289293915E+04  0.50400000000E-02 0. -1.
         23    2    1    2    0    0  0.00000000000E+00  0.35527136788E-14 -0.17277199832E+04  0.17301388102E+04  0.91454700063E+02 0.  0.
    9000005    2    3    3    0    0 -0.10892029953E+02  0.17907522598E+02 -0.16300283012E+04  0.16302239443E+04  0.14090080075E+02 0.  0.
         22    1    3    3    0    0  0.10892029953E+02 -0.17907522598E+02 -0.97691682052E+02  0.99914865882E+02  0.00000000000E+00 0.  1.
         22    1    4    4    0    0 -0.84713432756E+01  0.53697511468E+01 -0.38662121287E+03  0.38675128976E+03  0.00000000000E+00 0.  1.
         22    1    4    4    0    0 -0.24206866769E+01  0.12537771451E+02 -0.12434070883E+04  0.12434726546E+04  0.00000000000E+00 0.  1.
<mgrwt>
<rscale>  0 0.91454700E+02</rscale>
<asrwt>0</asrwt>
<pdfrwt beam="2">  1        1 0.26598716E+00 0.91454700E+02</pdfrwt>
<pdfrwt beam="1">  1       -1 0.18606500E-03 0.91454700E+02</pdfrwt>
<totfact> 0.95624156E+04</totfact>
</mgrwt>
</event>
<event>
 7    1  0.3345055E-009  0.8944006E+02  0.7818608E-02  0.1304213E+00
         -1   -1    0    0    0  501 -0.00000000000E+00  0.00000000000E+00  0.22525100018E+03  0.22525100024E+03  0.50400000000E-02 0.  1.
          1   -1    0    0  501    0  0.00000000000E+00 -0.00000000000E+00 -0.88784547937E+01  0.88784562242E+01  0.50400000000E-02 0. -1.
         23    2    1    2    0    0  0.00000000000E+00  0.00000000000E+00  0.21637254539E+03  0.23412945646E+03  0.89440058060E+02 0.  0.
    9000005    2    3    3    0    0 -0.14799819393E+02 -0.35017331341E+02  0.54076336983E+02  0.67440202427E+02  0.13367218618E+02 0.  0.
         22    1    3    3    0    0  0.14799819393E+02  0.35017331341E+02  0.16229620841E+03  0.16668925404E+03  0.00000000000E+00 0.  1.
         22    1    4    4    0    0 -0.19485667386E+01 -0.18923991153E+02  0.19842374765E+02  0.27488801171E+02  0.00000000000E+00 0.  1.
         22    1    4    4    0    0 -0.12851252654E+02 -0.16093340188E+02  0.34233962217E+02  0.39951401256E+02  0.00000000000E+00 0.  1.
<mgrwt>
<rscale>  0 0.89440058E+02</rscale>
<asrwt>0</asrwt>
<pdfrwt beam="2">  1        1 0.13659163E-02 0.89440058E+02</pdfrwt>
<pdfrwt beam="1">  1       -1 0.34653999E-01 0.89440058E+02</pdfrwt>
<totfact> 0.70442787E+04</totfact>
</mgrwt>
</event>
<event>
 7    1  0.3345055E-009  0.9072679E+02  0.7818608E-02  0.1301101E+00
         -1   -1    0    0    0  501 -0.00000000000E+00  0.00000000000E+00  0.33067336497E+03  0.33067336501E+03  0.50400000000E-02 0.  1.
          1   -1    0    0  501    0  0.00000000000E+00 -0.00000000000E+00 -0.62231715365E+01  0.62231735774E+01  0.50400000000E-02 0. -1.
         23    2    1    2    0    0  0.00000000000E+00  0.00000000000E+00  0.32445019344E+03  0.33689653859E+03  0.90726785968E+02 0.  0.
    9000005    2    3    3    0    0 -0.11051595405E+02 -0.43709663435E+02  0.15047554469E+03  0.15717494599E+03  0.53293207466E+01 0.  0.
         22    1    3    3    0    0  0.11051595405E+02  0.43709663435E+02  0.17397464875E+03  0.17972159260E+03  0.00000000000E+00 0. -1.
         22    1    4    4    0    0 -0.58189273971E+01 -0.18718267009E+02  0.57077003754E+02  0.60349132499E+02  0.00000000000E+00 0.  1.
         22    1    4    4    0    0 -0.52326680078E+01 -0.24991396426E+02  0.93398540935E+02  0.96825813493E+02  0.00000000000E+00 0.  1.
<mgrwt>
<rscale>  0 0.90726786E+02</rscale>
<asrwt>0</asrwt>
<pdfrwt beam="2">  1        1 0.95741116E-03 0.90726786E+02</pdfrwt>
<pdfrwt beam="1">  1       -1 0.50872826E-01 0.90726786E+02</pdfrwt>
<totfact> 0.58974194E+04</totfact>
</mgrwt>
</event>
<event>
 7    1  0.3345055E-009  0.8614305E+02  0.7818608E-02  0.1312470E+00
          1   -1    0    0  501    0  0.00000000000E+00  0.00000000000E+00  0.83373323535E+03  0.83373323537E+03  0.50400000000E-02 0. -1.
         -1   -1    0    0    0  501 -0.00000000000E+00 -0.00000000000E+00 -0.22251167584E+01  0.22251224663E+01  0.50400000000E-02 0.  1.
         23    2    1    2    0    0  0.00000000000E+00  0.00000000000E+00  0.83150811859E+03  0.83595835783E+03  0.86143048151E+02 0.  0.
    9000005    2    3    3    0    0 -0.15417016774E+02 -0.55248173841E+01  0.80195649433E+03  0.80217216968E+03  0.88183330219E+01 0.  0.
         22    1    3    3    0    0  0.15417016774E+02  0.55248173841E+01  0.29551624263E+02  0.33786188153E+02  0.00000000000E+00 0.  1.
         22    1    4    4    0    0 -0.49835618766E+01 -0.39839524812E+01  0.15720227626E+03  0.15733169874E+03  0.00000000000E+00 0.  1.
         22    1    4    4    0    0 -0.10433454898E+02 -0.15408649028E+01  0.64475421807E+03  0.64484047094E+03  0.00000000000E+00 0.  1.
<mgrwt>
<rscale>  0 0.86143048E+02</rscale>
<asrwt>0</asrwt>
<pdfrwt beam="1">  1        1 0.12826669E+00 0.86143048E+02</pdfrwt>
<pdfrwt beam="2">  1       -1 0.34232599E-03 0.86143048E+02</pdfrwt>
<totfact> 0.16343631E+05</totfact>
</mgrwt>
</event>
<event>
 7    1  0.3345055E-009  0.9053225E+02  0.7818608E-02  0.1301568E+00
         -1   -1    0    0    0  501 -0.00000000000E+00  0.00000000000E+00  0.28278150524E+01  0.28278195438E+01  0.50400000000E-02 0.  1.
          1   -1    0    0  501    0  0.00000000000E+00 -0.00000000000E+00 -0.72459490028E+03  0.72459490029E+03  0.50400000000E-02 0. -1.
         23    2    1    2    0    0  0.88817841970E-15 -0.35527136788E-14 -0.72176708522E+03  0.72742271984E+03  0.90532248527E+02 0.  0.
    9000005    2    3    3    0    0  0.53963163770E+01 -0.24924632776E+02 -0.66066795237E+03  0.66121500439E+03  0.85311892707E+01 0.  0.
         22    1    3    3    0    0 -0.53963163770E+01  0.24924632776E+02 -0.61099132850E+02  0.66207715445E+02  0.00000000000E+00 0.  1.
         22    1    4    4    0    0 -0.21685933385E+01 -0.62600279154E+01 -0.19283278352E+03  0.19294655516E+03  0.00000000000E+00 0.  1.
         22    1    4    4    0    0  0.75649097155E+01 -0.18664604860E+02 -0.46783516885E+03  0.46826844923E+03  0.00000000000E+00 0.  1.
<mgrwt>
<rscale>  0 0.90532249E+02</rscale>
<asrwt>0</asrwt>
<pdfrwt beam="2">  1        1 0.11147599E+00 0.90532249E+02</pdfrwt>
<pdfrwt beam="1">  1       -1 0.43504940E-03 0.90532249E+02</pdfrwt>
<totfact> 0.14477636E+05</totfact>
</mgrwt>
</event>
<event>
 7    1  0.3345055E-009  0.9123183E+02  0.7818608E-02  0.1299896E+00
          1   -1    0    0  501    0  0.00000000000E+00  0.00000000000E+00  0.29409908811E+02  0.29409909243E+02  0.50400000000E-02 0. -1.
         -1   -1    0    0    0  501 -0.00000000000E+00 -0.00000000000E+00 -0.70752068794E+02  0.70752068973E+02  0.50400000000E-02 0.  1.
         23    2    1    2    0    0  0.00000000000E+00  0.00000000000E+00 -0.41342159982E+02  0.10016197822E+03  0.91231834840E+02 0.  0.
    9000005    2    3    3    0    0 -0.86633819555E+01 -0.40494956051E+02 -0.38828674014E+02  0.58674470890E+02  0.14836844546E+02 0.  0.
         22    1    3    3    0    0  0.86633819555E+01  0.40494956051E+02 -0.25134859684E+01  0.41487507326E+02  0.00000000000E+00 0.  1.
         22    1    4    4    0    0  0.20689036086E+00 -0.22988728162E+01  0.12322216108E+01  0.26164842718E+01  0.00000000000E+00 0. -1.
         22    1    4    4    0    0 -0.88702723163E+01 -0.38196083234E+02 -0.40060895625E+02  0.56057986618E+02  0.00000000000E+00 0. -1.
<mgrwt>
<rscale>  0 0.91231835E+02</rscale>
<asrwt>0</asrwt>
<pdfrwt beam="1">  1        1 0.45246014E-02 0.91231835E+02</pdfrwt>
<pdfrwt beam="2">  1       -1 0.10884934E-01 0.91231835E+02</pdfrwt>
<totfact> 0.86256699E+04</totfact>
</mgrwt>
</event>
<event>
 7    1  0.3345055E-009  0.1075367E+03  0.7818608E-02  0.1265201E+00
         -1   -1    0    0    0  501 -0.00000000000E+00  0.00000000000E+00  0.11519116056E+02  0.11519117158E+02  0.50400000000E-02 0.  1.
          1   -1    0    0  501    0  0.00000000000E+00 -0.00000000000E+00 -0.25097730802E+03  0.25097730808E+03  0.50400000000E-02 0. -1.
         23    2    1    2    0    0  0.00000000000E+00 -0.71054273576E-14 -0.23945819197E+03  0.26249642523E+03  0.10753672656E+03 0.  0.
    9000005    2    3    3    0    0  0.21583205609E+02  0.44437659584E+02 -0.16882985651E+03  0.17630534609E+03  0.11811615398E+02 0.  0.
         22    1    3    3    0    0 -0.21583205609E+02 -0.44437659584E+02 -0.70628335462E+02  0.86191079143E+02  0.00000000000E+00 0.  1.
         22    1    4    4    0    0  0.52259930790E+01  0.19456589057E+02 -0.83705563993E+02  0.86095826291E+02  0.00000000000E+00 0. -1.
         22    1    4    4    0    0  0.16357212530E+02  0.24981070527E+02 -0.85124292514E+02  0.90209519800E+02  0.00000000000E+00 0. -1.
<mgrwt>
<rscale>  0 0.10753673E+03</rscale>
<asrwt>0</asrwt>
<pdfrwt beam="2">  1        1 0.38611890E-01 0.10753673E+03</pdfrwt>
<pdfrwt beam="1">  1       -1 0.17721720E-02 0.10753673E+03</pdfrwt>
<totfact> 0.79317184E+04</totfact>
</mgrwt>
</event>
<event>
 7    1  0.3345055E-009  0.9070872E+02  0.7818608E-02  0.1301144E+00
         -1   -1    0    0    0  501 -0.00000000000E+00  0.00000000000E+00  0.51208086053E+02  0.51208086301E+02  0.50400000000E-02 0.  1.
          1   -1    0    0  501    0  0.00000000000E+00 -0.00000000000E+00 -0.40169791873E+02  0.40169792189E+02  0.50400000000E-02 0. -1.
         23    2    1    2    0    0  0.71054273576E-14  0.00000000000E+00  0.11038294181E+02  0.91377878490E+02  0.90708724712E+02 0.  0.
    9000005    2    3    3    0    0  0.31990697264E+02  0.27173743225E+02 -0.87358830037E+01  0.44979224247E+02  0.13601394403E+02 0.  0.
         22    1    3    3    0    0 -0.31990697264E+02 -0.27173743225E+02  0.19774177185E+02  0.46398654243E+02  0.00000000000E+00 0.  1.
         22    1    4    4    0    0  0.37604628542E+01 -0.10342109384E+01 -0.23786468405E+01  0.45682199963E+01  0.00000000000E+00 0.  1.
         22    1    4    4    0    0  0.28230234410E+02  0.28207954163E+02 -0.63572361632E+01  0.40411004250E+02  0.00000000000E+00 0.  1.
<mgrwt>
<rscale>  0 0.90708725E+02</rscale>
<asrwt>0</asrwt>
<pdfrwt beam="2">  1        1 0.61799680E-02 0.90708725E+02</pdfrwt>
<pdfrwt beam="1">  1       -1 0.78781671E-02 0.90708725E+02</pdfrwt>
<totfact> 0.92049438E+04</totfact>
</mgrwt>
</event>
<event>
 7    1  0.3345055E-009  0.9195085E+02  0.7818608E-02  0.1298195E+00
          1   -1    0    0  501    0  0.00000000000E+00  0.00000000000E+00  0.62700155762E+01  0.62700176019E+01  0.50400000000E-02 0.  1.
         -1   -1    0    0    0  501 -0.00000000000E+00 -0.00000000000E+00 -0.33711870197E+03  0.33711870201E+03  0.50400000000E-02 0. -1.
         23    2    1    2    0    0  0.00000000000E+00  0.00000000000E+00 -0.33084868639E+03  0.34338871961E+03  0.91950853539E+02 0.  0.
    9000005    2    3    3    0    0 -0.27961070564E+02 -0.22228365502E+02 -0.27150463078E+03  0.27412373108E+03  0.12374720336E+02 0.  0.
         22    1    3    3    0    0  0.27961070564E+02  0.22228365502E+02 -0.59344055609E+02  0.69264988530E+02  0.00000000000E+00 0.  1.
         22    1    4    4    0    0 -0.28568233769E+02 -0.19665243840E+02 -0.23773493076E+03  0.24025145806E+03  0.00000000000E+00 0. -1.
         22    1    4    4    0    0  0.60716320560E+00 -0.25631216617E+01 -0.33769700026E+02  0.33872273022E+02  0.00000000000E+00 0. -1.
<mgrwt>
<rscale>  0 0.91950854E+02</rscale>
<asrwt>0</asrwt>
<pdfrwt beam="1">  1        1 0.96461820E-03 0.91950854E+02</pdfrwt>
<pdfrwt beam="2">  1       -1 0.51864402E-01 0.91950854E+02</pdfrwt>
<totfact> 0.56469485E+04</totfact>
</mgrwt>
</event>
<event>
 7    1  0.3345055E-009  0.9196460E+02  0.7818608E-02  0.1298163E+00
          1   -1    0    0  501    0  0.00000000000E+00  0.00000000000E+00  0.23496086692E+03  0.23496086698E+03  0.50400000000E-02 0. -1.
         -1   -1    0    0    0  501 -0.00000000000E+00 -0.00000000000E+00 -0.89988251568E+01  0.89988265681E+01  0.50400000000E-02 0.  1.
         23    2    1    2    0    0  0.88817841970E-15  0.17763568394E-14  0.22596204177E+03  0.24395969354E+03  0.91964600556E+02 0.  0.
    9000005    2    3    3    0    0 -0.42181419446E+01 -0.15386574876E+02  0.22702826310E+03  0.22796981438E+03  0.13185773185E+02 0.  0.
         22    1    3    3    0    0  0.42181419446E+01  0.15386574876E+02 -0.10662213304E+01  0.15989879168E+02  0.00000000000E+00 0.  1.
         22    1    4    4    0    0 -0.12182636313E+01 -0.16284837794E+02  0.15168981078E+03  0.15256630953E+03  0.00000000000E+00 0.  1.
         22    1    4    4    0    0 -0.29998783133E+01  0.89826291800E+00  0.75338452317E+02  0.75403504850E+02  0.00000000000E+00 0.  1.
<mgrwt>
<rscale>  0 0.91964601E+02</rscale>
<asrwt>0</asrwt>
<pdfrwt beam="1">  1        1 0.36147824E-01 0.91964601E+02</pdfrwt>
<pdfrwt beam="2">  1       -1 0.13844348E-02 0.91964601E+02</pdfrwt>
<totfact> 0.11940088E+05</totfact>
</mgrwt>
</event>
<event>
 7    1  0.3345055E-009  0.8920613E+02  0.7818608E-02  0.1304786E+00
          1   -1    0    0  501    0  0.00000000000E+00  0.00000000000E+00  0.10426195716E+02  0.10426196934E+02  0.50400000000E-02 0. -1.
         -1   -1    0    0    0  501 -0.00000000000E+00 -0.00000000000E+00 -0.19081104841E+03  0.19081104848E+03  0.50400000000E-02 0.  1.
         23    2    1    2    0    0  0.00000000000E+00  0.00000000000E+00 -0.18038485269E+03  0.20123724541E+03  0.89206131285E+02 0.  0.
    9000005    2    3    3    0    0  0.29510886006E+02  0.17641679574E+02 -0.27670195913E+02  0.44700068845E+02  0.70947277533E+01 0.  0.
         22    1    3    3    0    0 -0.29510886006E+02 -0.17641679574E+02 -0.15271465678E+03  0.15653717657E+03  0.00000000000E+00 0.  1.
         22    1    4    4    0    0  0.96023193172E+01  0.93258453182E+01 -0.86465897650E+01  0.15935477455E+02  0.00000000000E+00 0.  1.
         22    1    4    4    0    0  0.19908566689E+02  0.83158342556E+01 -0.19023606148E+02  0.28764591390E+02  0.00000000000E+00 0.  1.
<mgrwt>
<rscale>  0 0.89206131E+02</rscale>
<asrwt>0</asrwt>
<pdfrwt beam="1">  1        1 0.16040304E-02 0.89206131E+02</pdfrwt>
<pdfrwt beam="2">  1       -1 0.29355543E-01 0.89206131E+02</pdfrwt>
<totfact> 0.74462291E+04</totfact>
</mgrwt>
</event>
<event>
 7    1  0.3345055E-009  0.8962194E+02  0.7818608E-02  0.1303770E+00
          1   -1    0    0  501    0  0.00000000000E+00  0.00000000000E+00  0.38115089099E+03  0.38115089103E+03  0.50400000000E-02 0. -1.
         -1   -1    0    0    0  501 -0.00000000000E+00 -0.00000000000E+00 -0.52683136692E+01  0.52683160800E+01  0.50400000000E-02 0.  1.
         23    2    1    2    0    0  0.00000000000E+00  0.00000000000E+00  0.37588257732E+03  0.38641920711E+03  0.89621937522E+02 0.  0.
    9000005    2    3    3    0    0  0.29323355300E+02 -0.11979463904E+02  0.32206240694E+03  0.32396940757E+03  0.15120064767E+02 0.  0.
         22    1    3    3    0    0 -0.29323355300E+02  0.11979463904E+02  0.53820170385E+02  0.62449799533E+02  0.00000000000E+00 0.  1.
         22    1    4    4    0    0  0.12234457290E+02 -0.66894980096E+00  0.69069824198E+02  0.70148200645E+02  0.00000000000E+00 0.  1.
         22    1    4    4    0    0  0.17088898010E+02 -0.11310514103E+02  0.25299258274E+03  0.25382120693E+03  0.00000000000E+00 0.  1.
<mgrwt>
<rscale>  0 0.89621938E+02</rscale>
<asrwt>0</asrwt>
<pdfrwt beam="1">  1        1 0.58638617E-01 0.89621938E+02</pdfrwt>
<pdfrwt beam="2">  1       -1 0.81050973E-03 0.89621938E+02</pdfrwt>
<totfact> 0.14005527E+05</totfact>
</mgrwt>
</event>
<event>
 7    1  0.3345055E-009  0.9083179E+02  0.7818608E-02  0.1300850E+00
         -1   -1    0    0    0  501 -0.00000000000E+00  0.00000000000E+00  0.24401079190E+02  0.24401079711E+02  0.50400000000E-02 0.  1.
          1   -1    0    0  501    0  0.00000000000E+00 -0.00000000000E+00 -0.84529198268E+02  0.84529198418E+02  0.50400000000E-02 0. -1.
         23    2    1    2    0    0  0.00000000000E+00  0.00000000000E+00 -0.60128119078E+02  0.10893027813E+03  0.90831793935E+02 0.  0.
    9000005    2    3    3    0    0  0.10099809777E+02  0.42012068974E+02 -0.19757661317E+02  0.49796582517E+02  0.14910209679E+02 0.  0.
         22    1    3    3    0    0 -0.10099809777E+02 -0.42012068974E+02 -0.40370457761E+02  0.59133695613E+02  0.00000000000E+00 0.  1.
         22    1    4    4    0    0  0.91256767365E+01  0.42243240776E+02 -0.21122969159E+02  0.48103525788E+02  0.00000000000E+00 0. -1.
         22    1    4    4    0    0  0.97413304060E+00 -0.23117180242E+00  0.13653078420E+01  0.16930567287E+01  0.00000000000E+00 0. -1.
<mgrwt>
<rscale>  0 0.90831794E+02</rscale>
<asrwt>0</asrwt>
<pdfrwt beam="2">  1        1 0.13004492E-01 0.90831794E+02</pdfrwt>
<pdfrwt beam="1">  1       -1 0.37540123E-02 0.90831794E+02</pdfrwt>
<totfact> 0.10268973E+05</totfact>
</mgrwt>
</event>
<event>
 7    1  0.3345055E-009  0.9262351E+02  0.7818608E-02  0.1296620E+00
         -1   -1    0    0    0  501 -0.00000000000E+00  0.00000000000E+00  0.41805191583E+01  0.41805221964E+01  0.50400000000E-02 0.  1.
          1   -1    0    0  501    0  0.00000000000E+00 -0.00000000000E+00 -0.51304101125E+03  0.51304101127E+03  0.50400000000E-02 0. -1.
         23    2    1    2    0    0 -0.17763568394E-14 -0.71054273576E-14 -0.50886049209E+03  0.51722153347E+03  0.92623508217E+02 0.  0.
    9000005    2    3    3    0    0 -0.13749996349E+02 -0.38269892808E+02 -0.37096596038E+03  0.37345592920E+03  0.14140021213E+02 0.  0.
         22    1    3    3    0    0  0.13749996349E+02  0.38269892808E+02 -0.13789453172E+03  0.14376560427E+03  0.00000000000E+00 0.  1.
         22    1    4    4    0    0 -0.13341603467E+02 -0.32250260620E+02 -0.34665470951E+03  0.34840718322E+03  0.00000000000E+00 0. -1.
         22    1    4    4    0    0 -0.40839288163E+00 -0.60196321878E+01 -0.24311250867E+02  0.25048745979E+02  0.00000000000E+00 0. -1.
<mgrwt>
<rscale>  0 0.92623508E+02</rscale>
<asrwt>0</asrwt>
<pdfrwt beam="2">  1        1 0.78929337E-01 0.92623508E+02</pdfrwt>
<pdfrwt beam="1">  1       -1 0.64315744E-03 0.92623508E+02</pdfrwt>
<totfact> 0.13396457E+05</totfact>
</mgrwt>
</event>
<event>
 7    1  0.3345055E-009  0.9063329E+02  0.7818608E-02  0.1301325E+00
         -1   -1    0    0    0  501 -0.00000000000E+00  0.00000000000E+00  0.24150878746E+03  0.24150878751E+03  0.50400000000E-02 0.  1.
          1   -1    0    0  501    0  0.00000000000E+00 -0.00000000000E+00 -0.85032025330E+01  0.85032040267E+01  0.50400000000E-02 0. -1.
         23    2    1    2    0    0  0.17763568394E-14  0.00000000000E+00  0.23300558493E+03  0.25001199154E+03  0.90633290276E+02 0.  0.
    9000005    2    3    3    0    0  0.13570692634E+02 -0.35544572452E+02  0.18206418012E+03  0.18643049224E+03  0.12703638259E+02 0.  0.
         22    1    3    3    0    0 -0.13570692634E+02  0.35544572452E+02  0.50941404809E+02  0.63581499301E+02  0.00000000000E+00 0. -1.
         22    1    4    4    0    0  0.59824426222E+01 -0.33425338271E+01  0.25181942885E+02  0.26097747021E+02  0.00000000000E+00 0.  1.
         22    1    4    4    0    0  0.75882500122E+01 -0.32202038625E+02  0.15688223723E+03  0.16033274522E+03  0.00000000000E+00 0.  1.
<mgrwt>
<rscale>  0 0.90633290E+02</rscale>
<asrwt>0</asrwt>
<pdfrwt beam="2">  1        1 0.13081849E-02 0.90633290E+02</pdfrwt>
<pdfrwt beam="1">  1       -1 0.37155203E-01 0.90633290E+02</pdfrwt>
<totfact> 0.66547512E+04</totfact>
</mgrwt>
</event>
<event>
 7    1  0.3345055E-009  0.9167907E+02  0.7818608E-02  0.1298836E+00
          1   -1    0    0  501    0  0.00000000000E+00  0.00000000000E+00  0.52085181098E+02  0.52085181342E+02  0.50400000000E-02 0. -1.
         -1   -1    0    0    0  501 -0.00000000000E+00 -0.00000000000E+00 -0.40342816621E+02  0.40342816936E+02  0.50400000000E-02 0.  1.
         23    2    1    2    0    0  0.00000000000E+00 -0.17763568394E-14  0.11742364476E+02  0.92427998278E+02  0.91679069270E+02 0.  0.
    9000005    2    3    3    0    0  0.18355201012E+02 -0.10624897127E+02 -0.34898075814E+02  0.41191951263E+02  0.53943776450E+01 0.  0.
         22    1    3    3    0    0 -0.18355201012E+02  0.10624897127E+02  0.46640440291E+02  0.51236047014E+02  0.00000000000E+00 0. -1.
         22    1    4    4    0    0  0.13417191750E+02 -0.62429180239E+01 -0.19848576850E+02  0.24758050466E+02  0.00000000000E+00 0.  1.
         22    1    4    4    0    0  0.49380092622E+01 -0.43819791030E+01 -0.15049498965E+02  0.16433900797E+02  0.00000000000E+00 0.  1.
<mgrwt>
<rscale>  0 0.91679069E+02</rscale>
<asrwt>0</asrwt>
<pdfrwt beam="1">  1        1 0.80131049E-02 0.91679069E+02</pdfrwt>
<pdfrwt beam="2">  1       -1 0.62065872E-02 0.91679069E+02</pdfrwt>
<totfact> 0.92903750E+04</totfact>
</mgrwt>
</event>
<event>
 7    1  0.3345055E-009  0.9222640E+02  0.7818608E-02  0.1297548E+00
          1   -1    0    0  501    0  0.00000000000E+00  0.00000000000E+00  0.85297587148E+03  0.85297587149E+03  0.50400000000E-02 0. -1.
         -1   -1    0    0    0  501 -0.00000000000E+00 -0.00000000000E+00 -0.24929486370E+01  0.24929537317E+01  0.50400000000E-02 0.  1.
         23    2    1    2    0    0  0.35527136788E-14  0.35527136788E-14  0.85048292284E+03  0.85546882523E+03  0.92226400163E+02 0.  0.
    9000005    2    3    3    0    0 -0.19573196097E+02 -0.21704462928E+02  0.75603322925E+03  0.75660053741E+03  0.19838746346E+01 0.  0.
         22    1    3    3    0    0  0.19573196097E+02  0.21704462928E+02  0.94449693587E+02  0.98868287813E+02  0.00000000000E+00 0.  1.
         22    1    4    4    0    0 -0.15361170655E+02 -0.17390068066E+02  0.57934767009E+03  0.57981212722E+03  0.00000000000E+00 0.  1.
         22    1    4    4    0    0 -0.42120254417E+01 -0.43143948613E+01  0.17668555917E+03  0.17678841020E+03  0.00000000000E+00 0.  1.
<mgrwt>
<rscale>  0 0.92226400E+02</rscale>
<asrwt>0</asrwt>
<pdfrwt beam="1">  1        1 0.13122696E+00 0.92226400E+02</pdfrwt>
<pdfrwt beam="2">  1       -1 0.38353123E-03 0.92226400E+02</pdfrwt>
<totfact> 0.13613056E+05</totfact>
</mgrwt>
</event>
<event>
 7    1  0.3345055E-009  0.9127934E+02  0.7818608E-02  0.1299783E+00
          1   -1    0    0  501    0  0.00000000000E+00  0.00000000000E+00  0.30400653864E+03  0.30400653869E+03  0.50400000000E-02 0. -1.
         -1   -1    0    0    0  501 -0.00000000000E+00 -0.00000000000E+00 -0.68517577685E+01  0.68517596221E+01  0.50400000000E-02 0.  1.
         23    2    1    2    0    0 -0.44408920985E-15  0.00000000000E+00  0.29715478088E+03  0.31085829831E+03  0.91279339556E+02 0.  0.
    9000005    2    3    3    0    0  0.23435588098E+01 -0.17546468816E+02  0.29180327478E+03  0.29236480071E+03  0.38281443585E+01 0.  0.
         22    1    3    3    0    0 -0.23435588098E+01  0.17546468816E+02  0.53515060997E+01  0.18493497597E+02  0.00000000000E+00 0.  1.
         22    1    4    4    0    0  0.12035327672E+01 -0.80597822469E+01  0.16556919931E+03  0.16576962431E+03  0.00000000000E+00 0.  1.
         22    1    4    4    0    0  0.11400260426E+01 -0.94866865695E+01  0.12623407546E+03  0.12659517641E+03  0.00000000000E+00 0.  1.
<mgrwt>
<rscale>  0 0.91279340E+02</rscale>
<asrwt>0</asrwt>
<pdfrwt beam="1">  1        1 0.46770226E-01 0.91279340E+02</pdfrwt>
<pdfrwt beam="2">  1       -1 0.10541170E-02 0.91279340E+02</pdfrwt>
<totfact> 0.12806153E+05</totfact>
</mgrwt>
</event>
<event>
 6    1  0.3345055E-009  0.4724143E+02  0.7818608E-02  0.1460815E+00
          1   -1    0    0  501    0  0.00000000000E+00  0.00000000000E+00  0.17078991818E+02  0.17078992562E+02  0.50400000000E-02 0. -1.
         -1   -1    0    0    0  501 -0.00000000000E+00 -0.00000000000E+00 -0.32668091914E+02  0.32668092303E+02  0.50400000000E-02 0.  1.
    9000005    2    1    2    0    0 -0.78910379945E+01 -0.20728102775E+02 -0.72580896940E+01  0.26054713528E+02  0.11586436283E+02 0.  0.
         22    1    1    2    0    0  0.78910379945E+01  0.20728102775E+02 -0.83310104020E+01  0.23692371337E+02  0.00000000000E+00 0.  1.
         22    1    3    3    0    0 -0.17920048558E+01  0.66720483666E+00 -0.27587615116E+01  0.33566663187E+01  0.00000000000E+00 0.  1.
         22    1    3    3    0    0 -0.60990331387E+01 -0.21395307611E+02 -0.44993281824E+01  0.22698047209E+02  0.00000000000E+00 0.  1.
<mgrwt>
<rscale>  0 0.47241427E+02</rscale>
<asrwt>0</asrwt>
<pdfrwt beam="1">  1        1 0.26275373E-02 0.47241427E+02</pdfrwt>
<pdfrwt beam="2">  1       -1 0.50258604E-02 0.47241427E+02</pdfrwt>
<totfact> 0.48994080E+05</totfact>
</mgrwt>
</event>
<event>
 7    1  0.3345055E-009  0.8770197E+02  0.7818608E-02  0.1308514E+00
          1   -1    0    0  501    0  0.00000000000E+00  0.00000000000E+00  0.20195372363E+03  0.20195372369E+03  0.50400000000E-02 0. -1.
         -1   -1    0    0    0  501 -0.00000000000E+00 -0.00000000000E+00 -0.95215307830E+01  0.95215321169E+01  0.50400000000E-02 0.  1.
         23    2    1    2    0    0  0.71054273576E-14  0.35527136788E-14  0.19243219284E+03  0.21147525581E+03  0.87701966773E+02 0.  0.
    9000005    2    3    3    0    0  0.34525784927E+02  0.24241660916E+02  0.69141957238E+02  0.81167273915E+02  0.52752398417E+01 0.  0.
         22    1    3    3    0    0 -0.34525784927E+02 -0.24241660916E+02  0.12329023561E+03  0.13030798189E+03  0.00000000000E+00 0. -1.
         22    1    4    4    0    0  0.58762360840E+00 -0.23286868954E+00  0.15262546701E+01  0.16519632713E+01  0.00000000000E+00 0. -1.
         22    1    4    4    0    0  0.33938161318E+02  0.24474529606E+02  0.67615702568E+02  0.79515310644E+02  0.00000000000E+00 0. -1.
<mgrwt>
<rscale>  0 0.87701967E+02</rscale>
<asrwt>0</asrwt>
<pdfrwt beam="1">  1        1 0.31069803E-01 0.87701967E+02</pdfrwt>
<pdfrwt beam="2">  1       -1 0.14648510E-02 0.87701967E+02</pdfrwt>
<totfact> 0.13161824E+05</totfact>
</mgrwt>
</event>
<event>
 7    1  0.3345055E-009  0.9684164E+02  0.7818608E-02  0.1287081E+00
         -1   -1    0    0    0  501 -0.00000000000E+00  0.00000000000E+00  0.25120409655E+03  0.25120409660E+03  0.50400000000E-02 0.  1.
          1   -1    0    0  501    0  0.00000000000E+00 -0.00000000000E+00 -0.93333498781E+01  0.93333512389E+01  0.50400000000E-02 0. -1.
         23    2    1    2    0    0  0.00000000000E+00  0.00000000000E+00  0.24187074667E+03  0.26053744783E+03  0.96841642029E+02 0.  0.
    9000005    2    3    3    0    0  0.16498893336E+02  0.44391388991E+02  0.12784150160E+03  0.13706486939E+03  0.14160508145E+02 0.  0.
         22    1    3    3    0    0 -0.16498893336E+02 -0.44391388991E+02  0.11402924507E+03  0.12347257845E+03  0.00000000000E+00 0.  1.
         22    1    4    4    0    0  0.15269166074E+02  0.21058474644E+02  0.70509741261E+02  0.75154709763E+02  0.00000000000E+00 0. -1.
         22    1    4    4    0    0  0.12297272618E+01  0.23332914348E+02  0.57331760338E+02  0.61910159623E+02  0.00000000000E+00 0. -1.
<mgrwt>
<rscale>  0 0.96841642E+02</rscale>
<asrwt>0</asrwt>
<pdfrwt beam="2">  1        1 0.14359000E-02 0.96841642E+02</pdfrwt>
<pdfrwt beam="1">  1       -1 0.38646787E-01 0.96841642E+02</pdfrwt>
<totfact> 0.55220604E+04</totfact>
</mgrwt>
</event>
<event>
 7    1  0.3345055E-009  0.9432303E+02  0.7818608E-02  0.1292708E+00
         -1   -1    0    0    0  501 -0.00000000000E+00  0.00000000000E+00  0.68083566588E+02  0.68083566774E+02  0.50400000000E-02 0.  1.
          1   -1    0    0  501    0  0.00000000000E+00 -0.00000000000E+00 -0.32668801499E+02  0.32668801888E+02  0.50400000000E-02 0. -1.
         23    2    1    2    0    0  0.00000000000E+00 -0.88817841970E-15  0.35414765089E+02  0.10075236866E+03  0.94323031147E+02 0.  0.
    9000005    2    3    3    0    0 -0.40930057068E+02  0.47002610815E+01 -0.53990446906E+01  0.42759876954E+02  0.10094323539E+02 0.  0.
         22    1    3    3    0    0  0.40930057068E+02 -0.47002610815E+01  0.40813809779E+02  0.57992491708E+02  0.00000000000E+00 0.  1.
         22    1    4    4    0    0 -0.22417416236E+02  0.52273420708E+01  0.13248911209E+01  0.23056907692E+02  0.00000000000E+00 0. -1.
         22    1    4    4    0    0 -0.18512640832E+02 -0.52708098928E+00 -0.67239358115E+01  0.19702969262E+02  0.00000000000E+00 0. -1.
<mgrwt>
<rscale>  0 0.94323031E+02</rscale>
<asrwt>0</asrwt>
<pdfrwt beam="2">  1        1 0.50259695E-02 0.94323031E+02</pdfrwt>
<pdfrwt beam="1">  1       -1 0.10474395E-01 0.94323031E+02</pdfrwt>
<totfact> 0.79723823E+04</totfact>
</mgrwt>
</event>
<event>
 7    1  0.3345055E-009  0.8645226E+02  0.7818608E-02  0.1311678E+00
          1   -1    0    0  501    0  0.00000000000E+00  0.00000000000E+00  0.22289162851E+02  0.22289163421E+02  0.50400000000E-02 0. -1.
         -1   -1    0    0    0  501 -0.00000000000E+00 -0.00000000000E+00 -0.83829898329E+02  0.83829898480E+02  0.50400000000E-02 0.  1.
         23    2    1    2    0    0  0.00000000000E+00  0.17763568394E-14 -0.61540735478E+02  0.10611906190E+03  0.86452259518E+02 0.  0.
    9000005    2    3    3    0    0 -0.21575824701E+02 -0.11777717553E+02 -0.73755213387E+02  0.78670486112E+02  0.12040890376E+02 0.  0.
         22    1    3    3    0    0  0.21575824701E+02  0.11777717553E+02  0.12214477909E+02  0.27448575789E+02  0.00000000000E+00 0. -1.
         22    1    4    4    0    0 -0.45087812083E+01  0.18023499538E+01 -0.76573870536E+01  0.90671467303E+01  0.00000000000E+00 0.  1.
         22    1    4    4    0    0 -0.17067043492E+02 -0.13580067507E+02 -0.66097826334E+02  0.69603339382E+02  0.00000000000E+00 0.  1.
<mgrwt>
<rscale>  0 0.86452260E+02</rscale>
<asrwt>0</asrwt>
<pdfrwt beam="1">  1        1 0.34291021E-02 0.86452260E+02</pdfrwt>
<pdfrwt beam="2">  1       -1 0.12896907E-01 0.86452260E+02</pdfrwt>
<totfact> 0.96229519E+04</totfact>
</mgrwt>
</event>
<event>
 7    1  0.3345055E-009  0.9080441E+02  0.7818608E-02  0.1300915E+00
          1   -1    0    0  501    0  0.00000000000E+00  0.00000000000E+00  0.34031289020E+03  0.34031289024E+03  0.50400000000E-02 0. -1.
         -1   -1    0    0    0  501 -0.00000000000E+00 -0.00000000000E+00 -0.60572485317E+01  0.60572506285E+01  0.50400000000E-02 0.  1.
         23    2    1    2    0    0  0.00000000000E+00  0.00000000000E+00  0.33425564167E+03  0.34637014087E+03  0.90804407913E+02 0.  0.
    9000005    2    3    3    0    0 -0.19869143438E+02 -0.37457333868E+02  0.22354440270E+03  0.22781714363E+03  0.11433119805E+02 0.  0.
         22    1    3    3    0    0  0.19869143438E+02  0.37457333868E+02  0.11071123897E+03  0.11855299724E+03  0.00000000000E+00 0. -1.
         22    1    4    4    0    0 -0.71121743826E+01 -0.98433146011E+01  0.92206558346E+02  0.93002813230E+02  0.00000000000E+00 0. -1.
         22    1    4    4    0    0 -0.12756969056E+02 -0.27614019266E+02  0.13133784436E+03  0.13481433039E+03  0.00000000000E+00 0. -1.
<mgrwt>
<rscale>  0 0.90804408E+02</rscale>
<asrwt>0</asrwt>
<pdfrwt beam="1">  1        1 0.52355844E-01 0.90804408E+02</pdfrwt>
<pdfrwt beam="2">  1       -1 0.93188430E-03 0.90804408E+02</pdfrwt>
<totfact> 0.13260380E+05</totfact>
</mgrwt>
</event>
<event>
 7    1  0.3345055E-009  0.9507907E+02  0.7818608E-02  0.1290998E+00
          1   -1    0    0  501    0  0.00000000000E+00  0.00000000000E+00  0.15437888114E+03  0.15437888122E+03  0.50400000000E-02 0. -1.
         -1   -1    0    0    0  501 -0.00000000000E+00 -0.00000000000E+00 -0.14639355033E+02  0.14639355900E+02  0.50400000000E-02 0.  1.
         23    2    1    2    0    0  0.00000000000E+00 -0.17763568394E-14  0.13973952611E+03  0.16901823712E+03  0.95079068797E+02 0.  0.
    9000005    2    3    3    0    0  0.25654829736E+02 -0.11300126751E+02  0.54608650022E+01  0.31844544376E+02  0.14085127142E+02 0.  0.
         22    1    3    3    0    0 -0.25654829736E+02  0.11300126751E+02  0.13427866110E+03  0.13717369275E+03  0.00000000000E+00 0. -1.
         22    1    4    4    0    0  0.17528910410E+02 -0.18507994667E+01  0.76080129136E+01  0.19198177500E+02  0.00000000000E+00 0. -1.
         22    1    4    4    0    0  0.81259193258E+01 -0.94493272844E+01 -0.21471479114E+01  0.12646366876E+02  0.00000000000E+00 0. -1.
<mgrwt>
<rscale>  0 0.95079069E+02</rscale>
<asrwt>0</asrwt>
<pdfrwt beam="1">  1        1 0.23750597E-01 0.95079069E+02</pdfrwt>
<pdfrwt beam="2">  1       -1 0.22522086E-02 0.95079069E+02</pdfrwt>
<totfact> 0.10064910E+05</totfact>
</mgrwt>
</event>
<event>
 7    1  0.3345055E-009  0.8303239E+02  0.7818608E-02  0.1320660E+00
         -1   -1    0    0    0  501 -0.00000000000E+00  0.00000000000E+00  0.16382918839E+02  0.16382919615E+02  0.50400000000E-02 0.  1.
          1   -1    0    0  501    0  0.00000000000E+00 -0.00000000000E+00 -0.10520679610E+03  0.10520679622E+03  0.50400000000E-02 0. -1.
         23    2    1    2    0    0  0.22204460493E-15  0.35527136788E-14 -0.88823877258E+02  0.12158971583E+03  0.83032390217E+02 0.  0.
    9000005    2    3    3    0    0  0.18111937020E+01  0.30352209493E+02 -0.85565894493E+02  0.91009469015E+02  0.60550892879E+01 0.  0.
         22    1    3    3    0    0 -0.18111937020E+01 -0.30352209493E+02 -0.32579827646E+01  0.30580246817E+02  0.00000000000E+00 0.  1.
         22    1    4    4    0    0  0.35036468444E+01  0.16092393443E+02 -0.50480150411E+02  0.53098834765E+02  0.00000000000E+00 0.  1.
         22    1    4    4    0    0 -0.16924531423E+01  0.14259816050E+02 -0.35085744082E+02  0.37910634250E+02  0.00000000000E+00 0.  1.
<mgrwt>
<rscale>  0 0.83032390E+02</rscale>
<asrwt>0</asrwt>
<pdfrwt beam="2">  1        1 0.16185661E-01 0.83032390E+02</pdfrwt>
<pdfrwt beam="1">  1       -1 0.25204492E-02 0.83032390E+02</pdfrwt>
<totfact> 0.13566942E+05</totfact>
</mgrwt>
</event>
<event>
 7    1  0.3345055E-009  0.8915236E+02  0.7818608E-02  0.1304917E+00
         -1   -1    0    0    0  501 -0.00000000000E+00  0.00000000000E+00  0.11675199834E+03  0.11675199845E+03  0.50400000000E-02 0.  1.
          1   -1    0    0  501    0  0.00000000000E+00 -0.00000000000E+00 -0.17019285645E+02  0.17019286391E+02  0.50400000000E-02 0. -1.
         23    2    1    2    0    0  0.88817841970E-15  0.00000000000E+00  0.99732712698E+02  0.13377128484E+03  0.89152356483E+02 0.  0.
    9000005    2    3    3    0    0 -0.46895947603E+01  0.34333141407E+02  0.90287502944E+02  0.97855148008E+02  0.14934520609E+02 0.  0.
         22    1    3    3    0    0  0.46895947603E+01 -0.34333141407E+02  0.94452097544E+01  0.35916136836E+02  0.00000000000E+00 0. -1.
         22    1    4    4    0    0 -0.47302682277E+01  0.34893814608E+02  0.90606712481E+02  0.97208693448E+02  0.00000000000E+00 0. -1.
         22    1    4    4    0    0  0.40673467441E-01 -0.56067320063E+00 -0.31920953666E+00  0.64645455924E+00  0.00000000000E+00 0. -1.
<mgrwt>
<rscale>  0 0.89152356E+02</rscale>
<asrwt>0</asrwt>
<pdfrwt beam="2">  1        1 0.26183518E-02 0.89152356E+02</pdfrwt>
<pdfrwt beam="1">  1       -1 0.17961845E-01 0.89152356E+02</pdfrwt>
<totfact> 0.83679937E+04</totfact>
</mgrwt>
</event>
<event>
 7    1  0.3345055E-009  0.8844876E+02  0.7818608E-02  0.1306652E+00
         -1   -1    0    0    0  501 -0.00000000000E+00  0.00000000000E+00  0.55169405597E+02  0.55169405828E+02  0.50400000000E-02 0.  1.
          1   -1    0    0  501    0  0.00000000000E+00 -0.00000000000E+00 -0.35450734260E+02  0.35450734618E+02  0.50400000000E-02 0. -1.
         23    2    1    2    0    0  0.00000000000E+00  0.00000000000E+00  0.19718671338E+02  0.90620140445E+02  0.88448764011E+02 0.  0.
    9000005    2    3    3    0    0 -0.22716008866E+02 -0.28138528960E+02 -0.13611174845E+02  0.41440139252E+02  0.14974217503E+02 0.  0.
         22    1    3    3    0    0  0.22716008866E+02  0.28138528960E+02  0.33329846182E+02  0.49180001193E+02  0.00000000000E+00 0.  1.
         22    1    4    4    0    0 -0.58968960707E+01 -0.17904144267E+01  0.20275378078E+01  0.64876711269E+01  0.00000000000E+00 0.  1.
         22    1    4    4    0    0 -0.16819112795E+02 -0.26348114533E+02 -0.15638712652E+02  0.34952468126E+02  0.00000000000E+00 0.  1.
<mgrwt>
<rscale>  0 0.88448764E+02</rscale>
<asrwt>0</asrwt>
<pdfrwt beam="2">  1        1 0.54539592E-02 0.88448764E+02</pdfrwt>
<pdfrwt beam="1">  1       -1 0.84876009E-02 0.88448764E+02</pdfrwt>
<totfact> 0.96998437E+04</totfact>
</mgrwt>
</event>
<event>
 7    1  0.3345055E-009  0.9176799E+02  0.7818608E-02  0.1298626E+00
         -1   -1    0    0    0  501 -0.00000000000E+00  0.00000000000E+00  0.10651578987E+02  0.10651580179E+02  0.50400000000E-02 0.  1.
          1   -1    0    0  501    0  0.00000000000E+00 -0.00000000000E+00 -0.19765526489E+03  0.19765526495E+03  0.50400000000E-02 0. -1.
         23    2    1    2    0    0  0.00000000000E+00  0.00000000000E+00 -0.18700368590E+03  0.20830684513E+03  0.91767985637E+02 0.  0.
    9000005    2    3    3    0    0  0.64401716358E+01 -0.42380306706E+02 -0.58943694166E+02  0.73262675725E+02  0.74494540286E+01 0.  0.
         22    1    3    3    0    0 -0.64401716358E+01  0.42380306706E+02 -0.12805999174E+03  0.13504416941E+03  0.00000000000E+00 0. -1.
         22    1    4    4    0    0  0.26196132176E+01 -0.19270475607E+02 -0.33042670302E+02  0.38340991956E+02  0.00000000000E+00 0.  1.
         22    1    4    4    0    0  0.38205584182E+01 -0.23109831099E+02 -0.25901023864E+02  0.34921683769E+02  0.00000000000E+00 0.  1.
<mgrwt>
<rscale>  0 0.91767986E+02</rscale>
<asrwt>0</asrwt>
<pdfrwt beam="2">  1        1 0.30408500E-01 0.91767986E+02</pdfrwt>
<pdfrwt beam="1">  1       -1 0.16387047E-02 0.91767986E+02</pdfrwt>
<totfact> 0.11610310E+05</totfact>
</mgrwt>
</event>
<event>
 7    1  0.3345055E-009  0.9109118E+02  0.7818608E-02  0.1300231E+00
          1   -1    0    0  501    0  0.00000000000E+00  0.00000000000E+00  0.10825236859E+03  0.10825236871E+03  0.50400000000E-02 0. -1.
         -1   -1    0    0    0  501 -0.00000000000E+00 -0.00000000000E+00 -0.19162635362E+02  0.19162636025E+02  0.50400000000E-02 0.  1.
         23    2    1    2    0    0  0.00000000000E+00  0.00000000000E+00  0.89089733230E+02  0.12741500473E+03  0.91091178851E+02 0.  0.
    9000005    2    3    3    0    0  0.35168590355E+02  0.50261962996E+01  0.66649274620E+01  0.37660110703E+02  0.10572146579E+02 0.  0.
         22    1    3    3    0    0 -0.35168590355E+02 -0.50261962996E+01  0.82424805768E+02  0.89754894032E+02  0.00000000000E+00 0.  1.
         22    1    4    4    0    0  0.29959636219E+02  0.25024377619E+01  0.90548689320E+01  0.31397972044E+02  0.00000000000E+00 0.  1.
         22    1    4    4    0    0  0.52089541358E+01  0.25237585377E+01 -0.23899414700E+01  0.62621386583E+01  0.00000000000E+00 0.  1.
<mgrwt>
<rscale>  0 0.91091179E+02</rscale>
<asrwt>0</asrwt>
<pdfrwt beam="1">  1        1 0.16654210E-01 0.91091179E+02</pdfrwt>
<pdfrwt beam="2">  1       -1 0.29480979E-02 0.91091179E+02</pdfrwt>
<totfact> 0.10612272E+05</totfact>
</mgrwt>
</event>
<event>
 7    1  0.3345055E-009  0.9075014E+02  0.7818608E-02  0.1301045E+00
          1   -1    0    0  501    0  0.00000000000E+00  0.00000000000E+00  0.11236072289E+03  0.11236072301E+03  0.50400000000E-02 0. -1.
         -1   -1    0    0    0  501 -0.00000000000E+00 -0.00000000000E+00 -0.18323990082E+02  0.18323990775E+02  0.50400000000E-02 0.  1.
         23    2    1    2    0    0  0.00000000000E+00  0.17763568394E-14  0.94036732812E+02  0.13068471378E+03  0.90750136630E+02 0.  0.
    9000005    2    3    3    0    0 -0.22650638764E+02  0.11261141638E+02  0.10079127562E+03  0.10450287664E+03  0.11050123908E+02 0.  0.
         22    1    3    3    0    0  0.22650638764E+02 -0.11261141638E+02 -0.67545428070E+01  0.26181837139E+02  0.00000000000E+00 0.  1.
         22    1    4    4    0    0 -0.15098396500E+01  0.41481976947E-01  0.84453983164E+00  0.17304866513E+01  0.00000000000E+00 0.  1.
         22    1    4    4    0    0 -0.21140799114E+02  0.11219659661E+02  0.99946735788E+02  0.10277238999E+03  0.00000000000E+00 0.  1.
<mgrwt>
<rscale>  0 0.90750137E+02</rscale>
<asrwt>0</asrwt>
<pdfrwt beam="1">  1        1 0.17286265E-01 0.90750137E+02</pdfrwt>
<pdfrwt beam="2">  1       -1 0.28190755E-02 0.90750137E+02</pdfrwt>
<totfact> 0.10789001E+05</totfact>
</mgrwt>
</event>
<event>
 7    1  0.3345055E-009  0.9358065E+02  0.7818608E-02  0.1294405E+00
          1   -1    0    0  501    0  0.00000000000E+00  0.00000000000E+00  0.21441750814E+03  0.21441750820E+03  0.50400000000E-02 0. -1.
         -1   -1    0    0    0  501 -0.00000000000E+00 -0.00000000000E+00 -0.10210614267E+02  0.10210615510E+02  0.50400000000E-02 0.  1.
         23    2    1    2    0    0  0.00000000000E+00  0.00000000000E+00  0.20420689387E+03  0.22462812371E+03  0.93580652145E+02 0.  0.
    9000005    2    3    3    0    0 -0.22252067967E+02  0.68622840322E+01  0.19884354664E+03  0.20073228799E+03  0.14575662322E+02 0.  0.
         22    1    3    3    0    0  0.22252067967E+02 -0.68622840322E+01  0.53633472327E+01  0.23895835715E+02  0.00000000000E+00 0.  1.
         22    1    4    4    0    0 -0.38191434812E+01  0.53435573896E+01  0.23021289143E+02  0.23939908444E+02  0.00000000000E+00 0.  1.
         22    1    4    4    0    0 -0.18432924486E+02  0.15187266426E+01  0.17582225750E+03  0.17679237955E+03  0.00000000000E+00 0.  1.
<mgrwt>
<rscale>  0 0.93580652E+02</rscale>
<asrwt>0</asrwt>
<pdfrwt beam="1">  1        1 0.32987309E-01 0.93580652E+02</pdfrwt>
<pdfrwt beam="2">  1       -1 0.15708638E-02 0.93580652E+02</pdfrwt>
<totfact> 0.11192252E+05</totfact>
</mgrwt>
</event>
<event>
 7    1  0.3345055E-009  0.9049262E+02  0.7818608E-02  0.1301663E+00
         -1   -1    0    0    0  501 -0.00000000000E+00  0.00000000000E+00  0.18039528921E+01  0.18039599326E+01  0.50400000000E-02 0.  1.
          1   -1    0    0  501    0  0.00000000000E+00 -0.00000000000E+00 -0.11348547861E+04  0.11348547861E+04  0.50400000000E-02 0. -1.
         23    2    1    2    0    0 -0.35527136788E-14  0.00000000000E+00 -0.11330508332E+04  0.11366587460E+04  0.90492620277E+02 0.  0.
    9000005    2    3    3    0    0  0.29361995396E+02  0.68750397476E+01 -0.98434230164E+03  0.98492338330E+03  0.15326814169E+02 0.  0.
         22    1    3    3    0    0 -0.29361995396E+02 -0.68750397476E+01 -0.14870853156E+03  0.15173536273E+03  0.00000000000E+00 0.  1.
         22    1    4    4    0    0  0.30237225130E+02  0.89207742081E+01 -0.93408060281E+03  0.93461245581E+03  0.00000000000E+00 0.  1.
         22    1    4    4    0    0 -0.87522973467E+00 -0.20457344604E+01 -0.50261698826E+02  0.50310927496E+02  0.00000000000E+00 0.  1.
<mgrwt>
<rscale>  0 0.90492620E+02</rscale>
<asrwt>0</asrwt>
<pdfrwt beam="2">  1        1 0.17459247E+00 0.90492620E+02</pdfrwt>
<pdfrwt beam="1">  1       -1 0.27753266E-03 0.90492620E+02</pdfrwt>
<totfact> 0.13305617E+05</totfact>
</mgrwt>
</event>
<event>
 7    1  0.3345055E-009  0.9058903E+02  0.7818608E-02  0.1301432E+00
          1   -1    0    0  501    0  0.00000000000E+00  0.00000000000E+00  0.29716305819E+03  0.29716305823E+03  0.50400000000E-02 0. -1.
         -1   -1    0    0    0  501 -0.00000000000E+00 -0.00000000000E+00 -0.69039290702E+01  0.69039309098E+01  0.50400000000E-02 0.  1.
         23    2    1    2    0    0 -0.71054273576E-14 -0.22204460493E-15  0.29025912912E+03  0.30406698914E+03  0.90589027199E+02 0.  0.
    9000005    2    3    3    0    0  0.43866691257E+02 -0.10417109788E+01  0.12722578722E+03  0.13523203324E+03  0.13263865081E+02 0.  0.
         22    1    3    3    0    0 -0.43866691257E+02  0.10417109788E+01  0.16303334190E+03  0.16883495590E+03  0.00000000000E+00 0. -1.
         22    1    4    4    0    0  0.20973360445E+02  0.61277958783E+01  0.60562538085E+02  0.64383637284E+02  0.00000000000E+00 0. -1.
         22    1    4    4    0    0  0.22893330812E+02 -0.71695068570E+01  0.66663249137E+02  0.70848395957E+02  0.00000000000E+00 0. -1.
<mgrwt>
<rscale>  0 0.90589027E+02</rscale>
<asrwt>0</asrwt>
<pdfrwt beam="1">  1        1 0.45717392E-01 0.90589027E+02</pdfrwt>
<pdfrwt beam="2">  1       -1 0.10621431E-02 0.90589027E+02</pdfrwt>
<totfact> 0.13011163E+05</totfact>
</mgrwt>
</event>
<event>
 7    1  0.3345055E-009  0.7895062E+02  0.7818608E-02  0.1332056E+00
         -1   -1    0    0    0  501 -0.00000000000E+00  0.00000000000E+00  0.51169179609E+02  0.51169179857E+02  0.50400000000E-02 0.  1.
          1   -1    0    0  501    0  0.00000000000E+00 -0.00000000000E+00 -0.30453881523E+02  0.30453881940E+02  0.50400000000E-02 0. -1.
         23    2    1    2    0    0 -0.88817841970E-15  0.00000000000E+00  0.20715298086E+02  0.81623061797E+02  0.78950621545E+02 0.  0.
    9000005    2    3    3    0    0 -0.55056407438E+01 -0.38477136797E+02  0.74918611091E+01  0.40566254547E+02  0.88707885225E+01 0.  0.
         22    1    3    3    0    0  0.55056407438E+01  0.38477136797E+02  0.13223436976E+02  0.41056807250E+02  0.00000000000E+00 0.  1.
         22    1    4    4    0    0 -0.32850568964E+01 -0.36860628979E+02  0.61680524649E+01  0.37517228559E+02  0.00000000000E+00 0.  1.
         22    1    4    4    0    0 -0.22205838474E+01 -0.16165078177E+01  0.13238086442E+01  0.30490259879E+01  0.00000000000E+00 0.  1.
<mgrwt>
<rscale>  0 0.78950622E+02</rscale>
<asrwt>0</asrwt>
<pdfrwt beam="2">  1        1 0.46852126E-02 0.78950622E+02</pdfrwt>
<pdfrwt beam="1">  1       -1 0.78721815E-02 0.78950622E+02</pdfrwt>
<totfact> 0.13057268E+05</totfact>
</mgrwt>
</event>
<event>
 7    1  0.3345055E-009  0.1028491E+03  0.7818608E-02  0.1274416E+00
         -1   -1    0    0    0  501 -0.00000000000E+00  0.00000000000E+00  0.96223656406E+01  0.96223669606E+01  0.50400000000E-02 0.  1.
          1   -1    0    0  501    0  0.00000000000E+00 -0.00000000000E+00 -0.27482681477E+03  0.27482681482E+03  0.50400000000E-02 0. -1.
         23    2    1    2    0    0  0.71054273576E-14 -0.17763568394E-14 -0.26520444913E+03  0.28444918178E+03  0.10284909905E+03 0.  0.
    9000005    2    3    3    0    0  0.43110376434E+02 -0.98083553797E+01 -0.65552355402E+02  0.79960387655E+02  0.11909823832E+02 0.  0.
         22    1    3    3    0    0 -0.43110376434E+02  0.98083553797E+01 -0.19965209373E+03  0.20448879412E+03  0.00000000000E+00 0.  1.
         22    1    4    4    0    0  0.21520866685E+02 -0.79019980446E+00 -0.23782577065E+02  0.32084000537E+02  0.00000000000E+00 0.  1.
         22    1    4    4    0    0  0.21589509749E+02 -0.90181555752E+01 -0.41769778337E+02  0.47876387118E+02  0.00000000000E+00 0.  1.
<mgrwt>
<rscale>  0 0.10284910E+03</rscale>
<asrwt>0</asrwt>
<pdfrwt beam="2">  1        1 0.42281042E-01 0.10284910E+03</pdfrwt>
<pdfrwt beam="1">  1       -1 0.14803643E-02 0.10284910E+03</pdfrwt>
<totfact> 0.91154869E+04</totfact>
</mgrwt>
</event>
<event>
 7    1  0.3345055E-009  0.7152425E+02  0.7818608E-02  0.1354985E+00
          1   -1    0    0  501    0  0.00000000000E+00  0.00000000000E+00  0.35836895213E+02  0.35836895567E+02  0.50400000000E-02 0. -1.
         -1   -1    0    0    0  501 -0.00000000000E+00 -0.00000000000E+00 -0.35687511574E+02  0.35687511929E+02  0.50400000000E-02 0.  1.
         23    2    1    2    0    0  0.00000000000E+00  0.00000000000E+00  0.14938363923E+00  0.71524407497E+02  0.71524251498E+02 0.  0.
    9000005    2    3    3    0    0 -0.20886359751E+02  0.18633769252E+02  0.20420123734E+02  0.36964889499E+02  0.12882710202E+02 0.  0.
         22    1    3    3    0    0  0.20886359751E+02 -0.18633769252E+02 -0.20270740095E+02  0.34559517997E+02  0.00000000000E+00 0.  1.
         22    1    4    4    0    0 -0.98044543175E+01  0.12755200323E+02  0.45178149497E+01  0.16710269647E+02  0.00000000000E+00 0.  1.
         22    1    4    4    0    0 -0.11081905434E+02  0.58785689295E+01  0.15902308784E+02  0.20254619853E+02  0.00000000000E+00 0.  1.
<mgrwt>
<rscale>  0 0.71524251E+02</rscale>
<asrwt>0</asrwt>
<pdfrwt beam="1">  1        1 0.55133686E-02 0.71524251E+02</pdfrwt>
<pdfrwt beam="2">  1       -1 0.54903864E-02 0.71524251E+02</pdfrwt>
<totfact> 0.17509967E+05</totfact>
</mgrwt>
</event>
<event>
 7    1  0.4262066E-009  0.9323311E+02  0.7818608E-02  0.1295206E+00
          1   -1    0    0  501    0  0.00000000000E+00  0.00000000000E+00  0.37156053889E+03  0.37156053893E+03  0.50400000000E-02 0. -1.
         -1   -1    0    0    0  501 -0.00000000000E+00 -0.00000000000E+00 -0.58485833404E+01  0.58485855120E+01  0.50400000000E-02 0.  1.
         23    2    1    2    0    0  0.00000000000E+00  0.00000000000E+00  0.36571195555E+03  0.37740912444E+03  0.93233109868E+02 0.  0.
    9000005    2    3    3    0    0 -0.10805013378E+02 -0.32725651654E+01  0.36570594960E+03  0.36611939313E+03  0.13232930924E+02 0.  0.
         22    1    3    3    0    0  0.10805013378E+02  0.32725651654E+01  0.60059545785E-02  0.11289731305E+02  0.00000000000E+00 0.  1.
         22    1    4    4    0    0 -0.75811238566E+01 -0.22589808685E+01  0.79314852303E+02  0.79708357337E+02  0.00000000000E+00 0.  1.
         22    1    4    4    0    0 -0.32238895214E+01 -0.10135842968E+01  0.28639109729E+03  0.28641103580E+03  0.00000000000E+00 0.  1.
<mgrwt>
<rscale>  0 0.93233110E+02</rscale>
<asrwt>0</asrwt>
<pdfrwt beam="1">  1        1 0.57163176E-01 0.93233110E+02</pdfrwt>
<pdfrwt beam="2">  1       -1 0.89978196E-03 0.93233110E+02</pdfrwt>
<totfact> 0.12554372E+05</totfact>
</mgrwt>
</event>
<event>
 7    1  0.3345055E-009  0.1035647E+03  0.7818608E-02  0.1272973E+00
          1   -1    0    0  501    0  0.00000000000E+00  0.00000000000E+00  0.77145510392E+03  0.77145510393E+03  0.50400000000E-02 0. -1.
         -1   -1    0    0    0  501 -0.00000000000E+00 -0.00000000000E+00 -0.34757853637E+01  0.34757890177E+01  0.50400000000E-02 0.  1.
         23    2    1    2    0    0  0.44408920985E-15  0.00000000000E+00  0.76797931855E+03  0.77493089295E+03  0.10356473881E+03 0.  0.
    9000005    2    3    3    0    0  0.39673615737E+01  0.36569645876E+02  0.65278674002E+03  0.65400773923E+03  0.15572927342E+02 0.  0.
         22    1    3    3    0    0 -0.39673615737E+01 -0.36569645876E+02  0.11519257853E+03  0.12092315372E+03  0.00000000000E+00 0.  1.
         22    1    4    4    0    0 -0.30925970160E+01  0.21551750677E+02  0.45726190133E+03  0.45777995645E+03  0.00000000000E+00 0.  1.
         22    1    4    4    0    0  0.70599585897E+01  0.15017895199E+02  0.19552483869E+03  0.19622778278E+03  0.00000000000E+00 0.  1.
<mgrwt>
<rscale>  0 0.10356474E+03</rscale>
<asrwt>0</asrwt>
<pdfrwt beam="1">  1        1 0.11868555E+00 0.10356474E+03</pdfrwt>
<pdfrwt beam="2">  1       -1 0.53473581E-03 0.10356474E+03</pdfrwt>
<totfact> 0.10095840E+05</totfact>
</mgrwt>
</event>
<event>
 6    1  0.3345055E-009  0.1979602E+03  0.7818608E-02  0.1151472E+00
         -1   -1    0    0    0  501 -0.00000000000E+00  0.00000000000E+00  0.20569824566E+03  0.20569824572E+03  0.50400000000E-02 0.  1.
          1   -1    0    0  501    0  0.00000000000E+00 -0.00000000000E+00 -0.47628291417E+02  0.47628291684E+02  0.50400000000E-02 0. -1.
    9000005    2    1    2    0    0  0.49936349445E+01 -0.84290957032E+02  0.14413474129E+03  0.16774562839E+03  0.15292820826E+02 0.  0.
         22    1    1    2    0    0 -0.49936349445E+01  0.84290957032E+02  0.13935212946E+02  0.85580909012E+02  0.00000000000E+00 0. -1.
         22    1    3    3    0    0 -0.47476013175E+01 -0.12678235497E+02  0.23180916238E+02  0.26844594451E+02  0.00000000000E+00 0. -1.
         22    1    3    3    0    0  0.97412362620E+01 -0.71612721536E+02  0.12095382505E+03  0.14090103394E+03  0.00000000000E+00 0. -1.
<mgrwt>
<rscale>  0 0.19796016E+03</rscale>
<asrwt>0</asrwt>
<pdfrwt beam="2">  1        1 0.73274293E-02 0.19796016E+03</pdfrwt>
<pdfrwt beam="1">  1       -1 0.31645885E-01 0.19796016E+03</pdfrwt>
<totfact> 0.88699061E+03</totfact>
</mgrwt>
</event>
<event>
 7    1  0.3345055E-009  0.9029903E+02  0.7818608E-02  0.1302129E+00
         -1   -1    0    0    0  501 -0.00000000000E+00  0.00000000000E+00  0.24634697342E+03  0.24634697347E+03  0.50400000000E-02 0.  1.
          1   -1    0    0  501    0  0.00000000000E+00 -0.00000000000E+00 -0.82748269000E+01  0.82748284349E+01  0.50400000000E-02 0. -1.
         23    2    1    2    0    0  0.00000000000E+00  0.00000000000E+00  0.23807214652E+03  0.25462180191E+03  0.90299031321E+02 0.  0.
    9000005    2    3    3    0    0  0.27942504056E+02  0.29680627177E+02  0.76829564388E+02  0.88306157858E+02  0.15279803308E+02 0.  0.
         22    1    3    3    0    0 -0.27942504056E+02 -0.29680627177E+02  0.16124258213E+03  0.16631564405E+03  0.00000000000E+00 0.  1.
         22    1    4    4    0    0  0.79968407494E+01  0.44676662944E+01  0.31000729560E+02  0.32325759656E+02  0.00000000000E+00 0.  1.
         22    1    4    4    0    0  0.19945663307E+02  0.25212960882E+02  0.45828834828E+02  0.55980398202E+02  0.00000000000E+00 0.  1.
<mgrwt>
<rscale>  0 0.90299031E+02</rscale>
<asrwt>0</asrwt>
<pdfrwt beam="2">  1        1 0.12730505E-02 0.90299031E+02</pdfrwt>
<pdfrwt beam="1">  1       -1 0.37899531E-01 0.90299031E+02</pdfrwt>
<totfact> 0.66750438E+04</totfact>
</mgrwt>
</event>
<event>
 7    1  0.3345055E-009  0.6199855E+02  0.7818608E-02  0.1389631E+00
         -1   -1    0    0    0  501 -0.00000000000E+00  0.00000000000E+00  0.13277216763E+02  0.13277217720E+02  0.50400000000E-02 0.  1.
          1   -1    0    0  501    0  0.00000000000E+00 -0.00000000000E+00 -0.72376247334E+02  0.72376247509E+02  0.50400000000E-02 0. -1.
         23    2    1    2    0    0  0.88817841970E-15  0.00000000000E+00 -0.59099030571E+02  0.85653465229E+02  0.61998553945E+02 0.  0.
    9000005    2    3    3    0    0  0.56521319685E+01 -0.10164310108E+02 -0.68719229788E+02  0.70560154501E+02  0.11006501028E+02 0.  0.
         22    1    3    3    0    0 -0.56521319685E+01  0.10164310108E+02  0.96201992167E+01  0.15093310728E+02  0.00000000000E+00 0.  1.
         22    1    4    4    0    0  0.57473661966E+01 -0.11948785812E+02 -0.49069630046E+02  0.50829462848E+02  0.00000000000E+00 0. -1.
         22    1    4    4    0    0 -0.95234228091E-01  0.17844757048E+01 -0.19649599742E+02  0.19730691653E+02  0.00000000000E+00 0. -1.
<mgrwt>
<rscale>  0 0.61998554E+02</rscale>
<asrwt>0</asrwt>
<pdfrwt beam="2">  1        1 0.11134807E-01 0.61998554E+02</pdfrwt>
<pdfrwt beam="1">  1       -1 0.20426489E-02 0.61998554E+02</pdfrwt>
<totfact> 0.27888098E+05</totfact>
</mgrwt>
</event>
<event>
 7    1  0.3345055E-009  0.8976905E+02  0.7818608E-02  0.1303412E+00
         -1   -1    0    0    0  501 -0.00000000000E+00  0.00000000000E+00  0.28531034975E+03  0.28531034979E+03  0.50400000000E-02 0.  1.
          1   -1    0    0  501    0  0.00000000000E+00 -0.00000000000E+00 -0.70611533524E+01  0.70611551511E+01  0.50400000000E-02 0. -1.
         23    2    1    2    0    0  0.00000000000E+00 -0.88817841970E-15  0.27824919640E+03  0.29237150494E+03  0.89769045936E+02 0.  0.
    9000005    2    3    3    0    0 -0.37409919618E+02  0.24362627510E+01  0.21594258837E+03  0.21965595732E+03  0.14563675838E+02 0.  0.
         22    1    3    3    0    0  0.37409919618E+02 -0.24362627510E+01  0.62306608028E+02  0.72715547622E+02  0.00000000000E+00 0. -1.
         22    1    4    4    0    0 -0.13763049769E+02 -0.60945164617E+01  0.84876512576E+02  0.86200852994E+02  0.00000000000E+00 0.  1.
         22    1    4    4    0    0 -0.23646869849E+02  0.85307792127E+01  0.13106607579E+03  0.13345510433E+03  0.00000000000E+00 0.  1.
<mgrwt>
<rscale>  0 0.89769046E+02</rscale>
<asrwt>0</asrwt>
<pdfrwt beam="2">  1        1 0.10863314E-02 0.89769046E+02</pdfrwt>
<pdfrwt beam="1">  1       -1 0.43893901E-01 0.89769046E+02</pdfrwt>
<totfact> 0.64332779E+04</totfact>
</mgrwt>
</event>
<event>
 7    1  0.3345055E-009  0.9117453E+02  0.7818608E-02  0.1300032E+00
          1   -1    0    0  501    0  0.00000000000E+00  0.00000000000E+00  0.40653237703E+03  0.40653237706E+03  0.50400000000E-02 0. -1.
         -1   -1    0    0    0  501 -0.00000000000E+00 -0.00000000000E+00 -0.51120119652E+01  0.51120144497E+01  0.50400000000E-02 0.  1.
         23    2    1    2    0    0  0.17763568394E-14  0.00000000000E+00  0.40142036506E+03  0.41164439151E+03  0.91174533581E+02 0.  0.
    9000005    2    3    3    0    0  0.14321925341E+02 -0.39646592744E+02  0.27539731619E+03  0.27875805396E+03  0.92412671046E+01 0.  0.
         22    1    3    3    0    0 -0.14321925341E+02  0.39646592744E+02  0.12602304887E+03  0.13288633755E+03  0.00000000000E+00 0.  1.
         22    1    4    4    0    0  0.27794830951E+01 -0.88854967064E+01  0.39420925905E+02  0.40505394421E+02  0.00000000000E+00 0.  1.
         22    1    4    4    0    0  0.11542442246E+02 -0.30761096037E+02  0.23597639029E+03  0.23825265953E+03  0.00000000000E+00 0.  1.
<mgrwt>
<rscale>  0 0.91174534E+02</rscale>
<asrwt>0</asrwt>
<pdfrwt beam="1">  1        1 0.62543457E-01 0.91174534E+02</pdfrwt>
<pdfrwt beam="2">  1       -1 0.78646339E-03 0.91174534E+02</pdfrwt>
<totfact> 0.13525619E+05</totfact>
</mgrwt>
</event>
<event>
 7    1  0.3345055E-009  0.9077725E+02  0.7818608E-02  0.1300980E+00
          1   -1    0    0  501    0  0.00000000000E+00  0.00000000000E+00  0.44665196632E+01  0.44665225067E+01  0.50400000000E-02 0. -1.
         -1   -1    0    0    0  501 -0.00000000000E+00 -0.00000000000E+00 -0.46123757062E+03  0.46123757065E+03  0.50400000000E-02 0.  1.
         23    2    1    2    0    0  0.00000000000E+00  0.00000000000E+00 -0.45677105096E+03  0.46570409316E+03  0.90777251492E+02 0.  0.
    9000005    2    3    3    0    0  0.23695150589E+02 -0.14492415037E+01 -0.42674416009E+03  0.42742649347E+03  0.43896114283E+01 0.  0.
         22    1    3    3    0    0 -0.23695150589E+02  0.14492415037E+01 -0.30026890872E+02  0.38277599687E+02  0.00000000000E+00 0. -1.
         22    1    4    4    0    0  0.15749518104E+02  0.68158917278E+00 -0.25688894600E+03  0.25737218665E+03  0.00000000000E+00 0.  1.
         22    1    4    4    0    0  0.79456324850E+01 -0.21308306765E+01 -0.16985521409E+03  0.17005430682E+03  0.00000000000E+00 0.  1.
<mgrwt>
<rscale>  0 0.90777251E+02</rscale>
<asrwt>0</asrwt>
<pdfrwt beam="1">  1        1 0.68715746E-03 0.90777251E+02</pdfrwt>
<pdfrwt beam="2">  1       -1 0.70959589E-01 0.90777251E+02</pdfrwt>
<totfact> 0.49927055E+04</totfact>
</mgrwt>
</event>
<event>
 7    1  0.3345055E-009  0.9488153E+02  0.7818608E-02  0.1291443E+00
          1   -1    0    0  501    0  0.00000000000E+00  0.00000000000E+00  0.23369552280E+02  0.23369552824E+02  0.50400000000E-02 0. -1.
         -1   -1    0    0    0  501 -0.00000000000E+00 -0.00000000000E+00 -0.96305914513E+02  0.96305914644E+02  0.50400000000E-02 0.  1.
         23    2    1    2    0    0  0.00000000000E+00  0.00000000000E+00 -0.72936362232E+02  0.11967546747E+03  0.94881529172E+02 0.  0.
    9000005    2    3    3    0    0  0.22242867521E+02  0.29928400526E+02 -0.73211817765E+02  0.82385653989E+02  0.60804119151E+01 0.  0.
         22    1    3    3    0    0 -0.22242867521E+02 -0.29928400526E+02  0.27545553301E+00  0.37289813480E+02  0.00000000000E+00 0. -1.
         22    1    4    4    0    0  0.75409357746E+01  0.15017337976E+02 -0.34411168848E+02  0.38295100127E+02  0.00000000000E+00 0.  1.
         22    1    4    4    0    0  0.14701931746E+02  0.14911062550E+02 -0.38800648917E+02  0.44090553861E+02  0.00000000000E+00 0.  1.
<mgrwt>
<rscale>  0 0.94881529E+02</rscale>
<asrwt>0</asrwt>
<pdfrwt beam="1">  1        1 0.35953158E-02 0.94881529E+02</pdfrwt>
<pdfrwt beam="2">  1       -1 0.14816294E-01 0.94881529E+02</pdfrwt>
<totfact> 0.73945758E+04</totfact>
</mgrwt>
</event>
<event>
 7    1  0.3345055E-009  0.9238772E+02  0.7818608E-02  0.1297170E+00
         -1   -1    0    0    0  501 -0.00000000000E+00  0.00000000000E+00  0.21599913059E+03  0.21599913065E+03  0.50400000000E-02 0.  1.
          1   -1    0    0  501    0  0.00000000000E+00 -0.00000000000E+00 -0.98790787047E+01  0.98790799903E+01  0.50400000000E-02 0. -1.
         23    2    1    2    0    0  0.00000000000E+00  0.00000000000E+00  0.20612005189E+03  0.22587821064E+03  0.92387717000E+02 0.  0.
    9000005    2    3    3    0    0 -0.44988547373E+02 -0.27308921045E+01  0.12414476120E+03  0.13232942417E+03  0.82296781325E+01 0.  0.
         22    1    3    3    0    0  0.44988547373E+02  0.27308921045E+01  0.81975290685E+02  0.93548786466E+02  0.00000000000E+00 0. -1.
         22    1    4    4    0    0 -0.35833293747E+02  0.90945021356E+00  0.93266631996E+02  0.99917549431E+02  0.00000000000E+00 0. -1.
         22    1    4    4    0    0 -0.91552536260E+01 -0.36403423181E+01  0.30878129205E+02  0.32411874743E+02  0.00000000000E+00 0. -1.
<mgrwt>
<rscale>  0 0.92387717E+02</rscale>
<asrwt>0</asrwt>
<pdfrwt beam="2">  1        1 0.15198584E-02 0.92387717E+02</pdfrwt>
<pdfrwt beam="1">  1       -1 0.33230635E-01 0.92387717E+02</pdfrwt>
<totfact> 0.65571921E+04</totfact>
</mgrwt>
</event>
<event>
 7    1  0.3345055E-009  0.9196197E+02  0.7818608E-02  0.1298169E+00
         -1   -1    0    0    0  501 -0.00000000000E+00  0.00000000000E+00  0.31545184837E+02  0.31545185240E+02  0.50400000000E-02 0.  1.
          1   -1    0    0  501    0  0.00000000000E+00 -0.00000000000E+00 -0.67022940749E+02  0.67022940939E+02  0.50400000000E-02 0. -1.
         23    2    1    2    0    0  0.00000000000E+00  0.00000000000E+00 -0.35477755912E+02  0.98568126179E+02  0.91961972216E+02 0.  0.
    9000005    2    3    3    0    0  0.18033222891E+02 -0.41631449971E+02 -0.18516022598E+02  0.50131826242E+02  0.10582162111E+02 0.  0.
         22    1    3    3    0    0 -0.18033222891E+02  0.41631449971E+02 -0.16961733314E+02  0.48436299937E+02  0.00000000000E+00 0. -1.
         22    1    4    4    0    0  0.14564039777E+01 -0.14630792211E+02 -0.80628551986E+01  0.16768745547E+02  0.00000000000E+00 0. -1.
         22    1    4    4    0    0  0.16576818914E+02 -0.27000657761E+02 -0.10453167399E+02  0.33363080695E+02  0.00000000000E+00 0. -1.
<mgrwt>
<rscale>  0 0.91961972E+02</rscale>
<asrwt>0</asrwt>
<pdfrwt beam="2">  1        1 0.10311222E-01 0.91961972E+02</pdfrwt>
<pdfrwt beam="1">  1       -1 0.48531054E-02 0.91961972E+02</pdfrwt>
<totfact> 0.95711876E+04</totfact>
</mgrwt>
</event>
<event>
 7    1  0.3345055E-009  0.9125762E+02  0.7818608E-02  0.1299834E+00
         -1   -1    0    0    0  501 -0.00000000000E+00  0.00000000000E+00  0.77622121279E+01  0.77622137641E+01  0.50400000000E-02 0.  1.
          1   -1    0    0  501    0  0.00000000000E+00 -0.00000000000E+00 -0.26822097795E+03  0.26822097800E+03  0.50400000000E-02 0. -1.
         23    2    1    2    0    0  0.00000000000E+00  0.00000000000E+00 -0.26045876582E+03  0.27598319176E+03  0.91257621278E+02 0.  0.
    9000005    2    3    3    0    0 -0.38524708547E+02 -0.23256531498E+02 -0.14173202215E+03  0.14901445904E+03  0.96085105172E+01 0.  0.
         22    1    3    3    0    0  0.38524708547E+02  0.23256531498E+02 -0.11872674368E+03  0.12696873273E+03  0.00000000000E+00 0.  1.
         22    1    4    4    0    0 -0.21142184746E+02 -0.79810900068E+01 -0.78175788311E+02  0.81376554680E+02  0.00000000000E+00 0. -1.
         22    1    4    4    0    0 -0.17382523801E+02 -0.15275441491E+02 -0.63556233835E+02  0.67637904356E+02  0.00000000000E+00 0. -1.
<mgrwt>
<rscale>  0 0.91257621E+02</rscale>
<asrwt>0</asrwt>
<pdfrwt beam="2">  1        1 0.41264759E-01 0.91257621E+02</pdfrwt>
<pdfrwt beam="1">  1       -1 0.11941868E-02 0.91257621E+02</pdfrwt>
<totfact> 0.12508434E+05</totfact>
</mgrwt>
</event>
<event>
 7    1  0.3345055E-009  0.1147952E+03  0.7818608E-02  0.1251939E+00
         -1   -1    0    0    0  501 -0.00000000000E+00  0.00000000000E+00  0.56168021947E+01  0.56168044559E+01  0.50400000000E-02 0.  1.
          1   -1    0    0  501    0  0.00000000000E+00 -0.00000000000E+00 -0.58654131848E+03  0.58654131850E+03  0.50400000000E-02 0. -1.
         23    2    1    2    0    0  0.71054273576E-14 -0.17763568394E-14 -0.58092451628E+03  0.59215812296E+03  0.11479524800E+03 0.  0.
    9000005    2    3    3    0    0 -0.55593010623E+02  0.12528384322E+02 -0.26736290666E+03  0.27346010559E+03  0.70683977760E+01 0.  0.
         22    1    3    3    0    0  0.55593010623E+02 -0.12528384322E+02 -0.31356160963E+03  0.31869801737E+03  0.00000000000E+00 0.  1.
         22    1    4    4    0    0 -0.11988102752E+02  0.86060960348E+00 -0.46197448622E+02  0.47735306804E+02  0.00000000000E+00 0. -1.
         22    1    4    4    0    0 -0.43604907871E+02  0.11667774719E+02 -0.22116545803E+03  0.22572479878E+03  0.00000000000E+00 0. -1.
<mgrwt>
<rscale>  0 0.11479525E+03</rscale>
<asrwt>0</asrwt>
<pdfrwt beam="2">  1        1 0.90237078E-01 0.11479525E+03</pdfrwt>
<pdfrwt beam="1">  1       -1 0.86412405E-03 0.11479525E+03</pdfrwt>
<totfact> 0.76310329E+04</totfact>
</mgrwt>
</event>
<event>
 7    1  0.3345055E-009  0.9122330E+02  0.7818608E-02  0.1299916E+00
         -1   -1    0    0    0  501 -0.00000000000E+00  0.00000000000E+00  0.41988338472E+02  0.41988338774E+02  0.50400000000E-02 0.  1.
          1   -1    0    0  501    0  0.00000000000E+00 -0.00000000000E+00 -0.49547623424E+02  0.49547623680E+02  0.50400000000E-02 0. -1.
         23    2    1    2    0    0  0.00000000000E+00  0.00000000000E+00 -0.75592849521E+01  0.91535962455E+02  0.91223295454E+02 0.  0.
    9000005    2    3    3    0    0  0.19816882688E+02 -0.38357412363E+02 -0.14090937593E+02  0.47870616826E+02  0.15134117428E+02 0.  0.
         22    1    3    3    0    0 -0.19816882688E+02  0.38357412363E+02  0.65316526413E+01  0.43665345629E+02  0.00000000000E+00 0.  1.
         22    1    4    4    0    0  0.63908267629E+01 -0.26336565550E+02 -0.45515400888E+01  0.27480427014E+02  0.00000000000E+00 0.  1.
         22    1    4    4    0    0  0.13426055925E+02 -0.12020846814E+02 -0.95393975046E+01  0.20390189812E+02  0.00000000000E+00 0.  1.
<mgrwt>
<rscale>  0 0.91223295E+02</rscale>
<asrwt>0</asrwt>
<pdfrwt beam="2">  1        1 0.76227114E-02 0.91223295E+02</pdfrwt>
<pdfrwt beam="1">  1       -1 0.64597444E-02 0.91223295E+02</pdfrwt>
<totfact> 0.93502661E+04</totfact>
</mgrwt>
</event>
<event>
 7    1  0.3345055E-009  0.8713088E+02  0.7818608E-02  0.1309952E+00
          1   -1    0    0  501    0  0.00000000000E+00  0.00000000000E+00  0.36962375511E+03  0.36962375514E+03  0.50400000000E-02 0. -1.
         -1   -1    0    0    0  501 -0.00000000000E+00 -0.00000000000E+00 -0.51348077974E+01  0.51348102709E+01  0.50400000000E-02 0.  1.
         23    2    1    2    0    0  0.35527136788E-14  0.00000000000E+00  0.36448894731E+03  0.37475856541E+03  0.87130876496E+02 0.  0.
    9000005    2    3    3    0    0 -0.20351837062E+02 -0.18180276625E+02  0.32819494995E+03  0.32934960182E+03  0.38098974037E+01 0.  0.
         22    1    3    3    0    0  0.20351837062E+02  0.18180276625E+02  0.36293997362E+02  0.45408963592E+02  0.00000000000E+00 0.  1.
         22    1    4    4    0    0 -0.18268980571E+02 -0.15490288808E+02  0.29878642393E+03  0.29974494462E+03  0.00000000000E+00 0. -1.
         22    1    4    4    0    0 -0.20828564913E+01 -0.26899878167E+01  0.29408526017E+02  0.29604657203E+02  0.00000000000E+00 0. -1.
<mgrwt>
<rscale>  0 0.87130876E+02</rscale>
<asrwt>0</asrwt>
<pdfrwt beam="1">  1        1 0.56865196E-01 0.87130876E+02</pdfrwt>
<pdfrwt beam="2">  1       -1 0.78997059E-03 0.87130876E+02</pdfrwt>
<totfact> 0.15011629E+05</totfact>
</mgrwt>
</event>
<event>
 7    1  0.3345055E-009  0.8910167E+02  0.7818608E-02  0.1305042E+00
         -1   -1    0    0    0  501 -0.00000000000E+00  0.00000000000E+00  0.35596821585E+01  0.35596857265E+01  0.50400000000E-02 0.  1.
          1   -1    0    0  501    0  0.00000000000E+00 -0.00000000000E+00 -0.55757112996E+03  0.55757112999E+03  0.50400000000E-02 0. -1.
         23    2    1    2    0    0  0.22204460493E-15  0.00000000000E+00 -0.55401144780E+03  0.56113081571E+03  0.89101672507E+02 0.  0.
    9000005    2    3    3    0    0  0.18543784331E+01  0.20065138209E+02 -0.52663089156E+03  0.52713459018E+03  0.11168335551E+02 0.  0.
         22    1    3    3    0    0 -0.18543784331E+01 -0.20065138209E+02 -0.27380556241E+02  0.33996225537E+02  0.00000000000E+00 0.  1.
         22    1    4    4    0    0 -0.35234036807E+01  0.13191580538E+02 -0.37908083872E+03  0.37932665930E+03  0.00000000000E+00 0.  1.
         22    1    4    4    0    0  0.53777821138E+01  0.68735576708E+01 -0.14755005284E+03  0.14780793087E+03  0.00000000000E+00 0.  1.
<mgrwt>
<rscale>  0 0.89101673E+02</rscale>
<asrwt>0</asrwt>
<pdfrwt beam="2">  1        1 0.85780105E-01 0.89101673E+02</pdfrwt>
<pdfrwt beam="1">  1       -1 0.54764413E-03 0.89101673E+02</pdfrwt>
<totfact> 0.14966971E+05</totfact>
</mgrwt>
</event>
<event>
 7    1  0.3345055E-009  0.8381097E+02  0.7818608E-02  0.1318572E+00
         -1   -1    0    0    0  501 -0.00000000000E+00  0.00000000000E+00  0.14523436921E+02  0.14523437795E+02  0.50400000000E-02 0.  1.
          1   -1    0    0  501    0  0.00000000000E+00 -0.00000000000E+00 -0.12091280581E+03  0.12091280591E+03  0.50400000000E-02 0. -1.
         23    2    1    2    0    0  0.00000000000E+00  0.00000000000E+00 -0.10638936889E+03  0.13543624371E+03  0.83810967645E+02 0.  0.
    9000005    2    3    3    0    0 -0.19998893065E+02 -0.36320708549E+02 -0.43684110451E+02  0.60262451540E+02  0.20277984079E+01 0.  0.
         22    1    3    3    0    0  0.19998893065E+02  0.36320708549E+02 -0.62705258437E+02  0.75173792168E+02  0.00000000000E+00 0. -1.
         22    1    4    4    0    0 -0.62398125096E+01 -0.12993799603E+02 -0.15960726450E+02  0.21506252047E+02  0.00000000000E+00 0. -1.
         22    1    4    4    0    0 -0.13759080556E+02 -0.23326908947E+02 -0.27723384001E+02  0.38756199494E+02  0.00000000000E+00 0. -1.
<mgrwt>
<rscale>  0 0.83810968E+02</rscale>
<asrwt>0</asrwt>
<pdfrwt beam="2">  1        1 0.18601970E-01 0.83810968E+02</pdfrwt>
<pdfrwt beam="1">  1       -1 0.22343751E-02 0.83810968E+02</pdfrwt>
<totfact> 0.13538473E+05</totfact>
</mgrwt>
</event>
<event>
 7    1  0.3345055E-009  0.9227563E+02  0.7818608E-02  0.1297433E+00
          1   -1    0    0  501    0  0.00000000000E+00  0.00000000000E+00  0.59421363817E+02  0.59421364031E+02  0.50400000000E-02 0. -1.
         -1   -1    0    0    0  501 -0.00000000000E+00 -0.00000000000E+00 -0.35823781792E+02  0.35823782147E+02  0.50400000000E-02 0.  1.
         23    2    1    2    0    0  0.00000000000E+00  0.00000000000E+00  0.23597582025E+02  0.95245146178E+02  0.92275630548E+02 0.  0.
    9000005    2    3    3    0    0  0.40751343438E+02  0.21119376638E+02  0.16393549014E+02  0.48784429941E+02  0.21147325518E+01 0.  0.
         22    1    3    3    0    0 -0.40751343438E+02 -0.21119376638E+02  0.72040330108E+01  0.46460716237E+02  0.00000000000E+00 0. -1.
         22    1    4    4    0    0  0.24217446905E+02  0.12861876831E+02  0.87286109720E+01  0.28776748595E+02  0.00000000000E+00 0. -1.
         22    1    4    4    0    0  0.16533896534E+02  0.82574998067E+01  0.76649380419E+01  0.20007681346E+02  0.00000000000E+00 0. -1.
<mgrwt>
<rscale>  0 0.92275631E+02</rscale>
<asrwt>0</asrwt>
<pdfrwt beam="1">  1        1 0.91417482E-02 0.92275631E+02</pdfrwt>
<pdfrwt beam="2">  1       -1 0.55113512E-02 0.92275631E+02</pdfrwt>
<totfact> 0.93078132E+04</totfact>
</mgrwt>
</event>
<event>
 7    1  0.3345055E-009  0.9133505E+02  0.7818608E-02  0.1299651E+00
         -1   -1    0    0    0  501 -0.00000000000E+00  0.00000000000E+00  0.98438654528E+02  0.98438654657E+02  0.50400000000E-02 0.  1.
          1   -1    0    0  501    0  0.00000000000E+00 -0.00000000000E+00 -0.21186013593E+02  0.21186014192E+02  0.50400000000E-02 0. -1.
         23    2    1    2    0    0  0.71054273576E-14  0.35527136788E-14  0.77252640936E+02  0.11962466885E+03  0.91335047303E+02 0.  0.
    9000005    2    3    3    0    0  0.36488478531E+02  0.24260641866E+02  0.25332585378E+02  0.51685873023E+02  0.10473861701E+02 0.  0.
         22    1    3    3    0    0 -0.36488478531E+02 -0.24260641866E+02  0.51920055557E+02  0.67938795826E+02  0.00000000000E+00 0.  1.
         22    1    4    4    0    0  0.90926928460E+01  0.11650601602E+01  0.41681264490E+01  0.10070139347E+02  0.00000000000E+00 0. -1.
         22    1    4    4    0    0  0.27395785685E+02  0.23095581706E+02  0.21164458929E+02  0.41615733676E+02  0.00000000000E+00 0. -1.
<mgrwt>
<rscale>  0 0.91335047E+02</rscale>
<asrwt>0</asrwt>
<pdfrwt beam="2">  1        1 0.32593868E-02 0.91335047E+02</pdfrwt>
<pdfrwt beam="1">  1       -1 0.15144408E-01 0.91335047E+02</pdfrwt>
<totfact> 0.81244405E+04</totfact>
</mgrwt>
</event>
<event>
 7    1  0.3345055E-009  0.9146541E+02  0.7818608E-02  0.1299341E+00
         -1   -1    0    0    0  501 -0.00000000000E+00  0.00000000000E+00  0.20037535967E+01  0.20037599352E+01  0.50400000000E-02 0.  1.
          1   -1    0    0  501    0  0.00000000000E+00 -0.00000000000E+00 -0.10437794266E+04  0.10437794266E+04  0.50400000000E-02 0. -1.
         23    2    1    2    0    0  0.00000000000E+00  0.00000000000E+00 -0.10417756730E+04  0.10457831865E+04  0.91465405501E+02 0.  0.
    9000005    2    3    3    0    0  0.16072011978E+02 -0.16617035894E+02 -0.97142931599E+03  0.97173559783E+03  0.77923460441E+01 0.  0.
         22    1    3    3    0    0 -0.16072011978E+02  0.16617035894E+02 -0.70346356984E+02  0.74047588697E+02  0.00000000000E+00 0.  1.
         22    1    4    4    0    0  0.14496824493E+02 -0.13415329883E+02 -0.68693186953E+03  0.68721577570E+03  0.00000000000E+00 0. -1.
         22    1    4    4    0    0  0.15751874854E+01 -0.32017060106E+01 -0.28449744646E+03  0.28451982212E+03  0.00000000000E+00 0. -1.
<mgrwt>
<rscale>  0 0.91465406E+02</rscale>
<asrwt>0</asrwt>
<pdfrwt beam="2">  1        1 0.16058102E+00 0.91465406E+02</pdfrwt>
<pdfrwt beam="1">  1       -1 0.30827111E-03 0.91465406E+02</pdfrwt>
<totfact> 0.13323487E+05</totfact>
</mgrwt>
</event>
<event>
 7    1  0.3345055E-009  0.9294584E+02  0.7818608E-02  0.1295871E+00
          1   -1    0    0  501    0  0.00000000000E+00  0.00000000000E+00  0.64821310996E+03  0.64821310998E+03  0.50400000000E-02 0. -1.
         -1   -1    0    0    0  501 -0.00000000000E+00 -0.00000000000E+00 -0.33318227909E+01  0.33318266029E+01  0.50400000000E-02 0.  1.
         23    2    1    2    0    0  0.00000000000E+00  0.00000000000E+00  0.64488128717E+03  0.65154493658E+03  0.92945843615E+02 0.  0.
    9000005    2    3    3    0    0 -0.79764806409E+01  0.42437416940E+02  0.44176154592E+03  0.44388611090E+03  0.41300597621E+01 0.  0.
         22    1    3    3    0    0  0.79764806409E+01 -0.42437416940E+02  0.20311974125E+03  0.20765882568E+03  0.00000000000E+00 0.  1.
         22    1    4    4    0    0 -0.62020773914E+01  0.33903727700E+02  0.33449362783E+03  0.33626465110E+03  0.00000000000E+00 0. -1.
         22    1    4    4    0    0 -0.17744032495E+01  0.85336892397E+01  0.10726791809E+03  0.10762145980E+03  0.00000000000E+00 0. -1.
<mgrwt>
<rscale>  0 0.92945844E+02</rscale>
<asrwt>0</asrwt>
<pdfrwt beam="1">  1        1 0.99724959E-01 0.92945844E+02</pdfrwt>
<pdfrwt beam="2">  1       -1 0.51258911E-03 0.92945844E+02</pdfrwt>
<totfact> 0.13502132E+05</totfact>
</mgrwt>
</event>
<event>
 7    1  0.3345055E-009  0.9613595E+02  0.7818608E-02  0.1288638E+00
          1   -1    0    0  501    0  0.00000000000E+00  0.00000000000E+00  0.11534266298E+02  0.11534267399E+02  0.50400000000E-02 0. -1.
         -1   -1    0    0    0  501 -0.00000000000E+00 -0.00000000000E+00 -0.20031878683E+03  0.20031878690E+03  0.50400000000E-02 0.  1.
         23    2    1    2    0    0  0.88817841970E-15  0.00000000000E+00 -0.18878452053E+03  0.21185305429E+03  0.96135952798E+02 0.  0.
    9000005    2    3    3    0    0 -0.44587584475E+01 -0.38914134827E+02 -0.15541419991E+03  0.16039658031E+03  0.62688934618E+01 0.  0.
         22    1    3    3    0    0  0.44587584475E+01  0.38914134827E+02 -0.33370320621E+02  0.51456473981E+02  0.00000000000E+00 0. -1.
         22    1    4    4    0    0 -0.51791758679E+01 -0.38106640311E+02 -0.15284455588E+03  0.15760836958E+03  0.00000000000E+00 0. -1.
         22    1    4    4    0    0  0.72041742036E+00 -0.80749451557E+00 -0.25696440320E+01  0.27882107351E+01  0.00000000000E+00 0. -1.
<mgrwt>
<rscale>  0 0.96135953E+02</rscale>
<asrwt>0</asrwt>
<pdfrwt beam="1">  1        1 0.17745027E-02 0.96135953E+02</pdfrwt>
<pdfrwt beam="2">  1       -1 0.30818272E-01 0.96135953E+02</pdfrwt>
<totfact> 0.60430160E+04</totfact>
</mgrwt>
</event>
<event>
 7    1  0.3345055E-009  0.8933072E+02  0.7818608E-02  0.1304481E+00
         -1   -1    0    0    0  501 -0.00000000000E+00  0.00000000000E+00  0.90819537725E+01  0.90819551710E+01  0.50400000000E-02 0.  1.
          1   -1    0    0  501    0  0.00000000000E+00 -0.00000000000E+00 -0.21966572982E+03  0.21966572988E+03  0.50400000000E-02 0. -1.
         23    2    1    2    0    0  0.00000000000E+00  0.00000000000E+00 -0.21058377605E+03  0.22874768505E+03  0.89330715215E+02 0.  0.
    9000005    2    3    3    0    0 -0.34643662354E+02 -0.58909528534E+01 -0.17446451248E+03  0.17835435347E+03  0.11727003899E+02 0.  0.
         22    1    3    3    0    0  0.34643662354E+02  0.58909528534E+01 -0.36119263566E+02  0.50393331576E+02  0.00000000000E+00 0.  1.
         22    1    4    4    0    0 -0.19995703827E+02 -0.91998802883E+01 -0.10645216063E+03  0.10870385675E+03  0.00000000000E+00 0. -1.
         22    1    4    4    0    0 -0.14647958527E+02  0.33089274349E+01 -0.68012351852E+02  0.69650496726E+02  0.00000000000E+00 0. -1.
<mgrwt>
<rscale>  0 0.89330715E+02</rscale>
<asrwt>0</asrwt>
<pdfrwt beam="2">  1        1 0.33794724E-01 0.89330715E+02</pdfrwt>
<pdfrwt beam="1">  1       -1 0.13972239E-02 0.89330715E+02</pdfrwt>
<totfact> 0.12736401E+05</totfact>
</mgrwt>
</event>
<event>
 7    1  0.3345055E-009  0.8929993E+02  0.7818608E-02  0.1304556E+00
          1   -1    0    0  501    0  0.00000000000E+00  0.00000000000E+00  0.40574433407E+02  0.40574433720E+02  0.50400000000E-02 0. -1.
         -1   -1    0    0    0  501 -0.00000000000E+00 -0.00000000000E+00 -0.49134870322E+02  0.49134870581E+02  0.50400000000E-02 0.  1.
         23    2    1    2    0    0  0.00000000000E+00  0.00000000000E+00 -0.85604369158E+01  0.89709304300E+02  0.89299933919E+02 0.  0.
    9000005    2    3    3    0    0  0.32877026391E+02 -0.13594718442E+02  0.20425388808E+02  0.43819290935E+02  0.15401899761E+02 0.  0.
         22    1    3    3    0    0 -0.32877026391E+02  0.13594718442E+02 -0.28985825724E+02  0.45890013366E+02  0.00000000000E+00 0.  1.
         22    1    4    4    0    0  0.20452493464E+02 -0.96975883089E+01  0.20873161476E+02  0.30790202628E+02  0.00000000000E+00 0. -1.
         22    1    4    4    0    0  0.12424532927E+02 -0.38971301329E+01 -0.44777266794E+00  0.13029088306E+02  0.00000000000E+00 0. -1.
<mgrwt>
<rscale>  0 0.89299934E+02</rscale>
<asrwt>0</asrwt>
<pdfrwt beam="1">  1        1 0.62422206E-02 0.89299934E+02</pdfrwt>
<pdfrwt beam="2">  1       -1 0.75592108E-02 0.89299934E+02</pdfrwt>
<totfact> 0.96339930E+04</totfact>
</mgrwt>
</event>
<event>
 7    1  0.3345055E-009  0.9072713E+02  0.7818608E-02  0.1301100E+00
          1   -1    0    0  501    0  0.00000000000E+00  0.00000000000E+00  0.30265417977E+02  0.30265418397E+02  0.50400000000E-02 0. -1.
         -1   -1    0    0    0  501 -0.00000000000E+00 -0.00000000000E+00 -0.67993537886E+02  0.67993538073E+02  0.50400000000E-02 0.  1.
         23    2    1    2    0    0  0.00000000000E+00  0.00000000000E+00 -0.37728119909E+02  0.98258956470E+02  0.90727126565E+02 0.  0.
    9000005    2    3    3    0    0 -0.27921946597E+02 -0.34373157944E+02 -0.11187561669E+02  0.46629988628E+02  0.93832411544E+01 0.  0.
         22    1    3    3    0    0  0.27921946597E+02  0.34373157944E+02 -0.26540558240E+02  0.51628967842E+02  0.00000000000E+00 0.  1.
         22    1    4    4    0    0 -0.22237510718E+02 -0.28384106183E+02 -0.12712533708E+02  0.38233138506E+02  0.00000000000E+00 0. -1.
         22    1    4    4    0    0 -0.56844358787E+01 -0.59890517605E+01  0.15249720387E+01  0.83968501217E+01  0.00000000000E+00 0. -1.
<mgrwt>
<rscale>  0 0.90727127E+02</rscale>
<asrwt>0</asrwt>
<pdfrwt beam="1">  1        1 0.46562182E-02 0.90727127E+02</pdfrwt>
<pdfrwt beam="2">  1       -1 0.10460544E-01 0.90727127E+02</pdfrwt>
<totfact> 0.88047018E+04</totfact>
</mgrwt>
</event>
<event>
 7    1  0.3345055E-009  0.9107141E+02  0.7818608E-02  0.1300278E+00
          1   -1    0    0  501    0  0.00000000000E+00  0.00000000000E+00  0.54319015339E+03  0.54319015342E+03  0.50400000000E-02 0. -1.
         -1   -1    0    0    0  501 -0.00000000000E+00 -0.00000000000E+00 -0.38172626317E+01  0.38172659589E+01  0.50400000000E-02 0.  1.
         23    2    1    2    0    0  0.00000000000E+00  0.44408920985E-15  0.53937289076E+03  0.54700741937E+03  0.91071409143E+02 0.  0.
    9000005    2    3    3    0    0  0.34500909784E+02 -0.33894705890E+01  0.44600983806E+03  0.44741594938E+03  0.73793511564E+01 0.  0.
         22    1    3    3    0    0 -0.34500909784E+02  0.33894705890E+01  0.93363052701E+02  0.99591469999E+02  0.00000000000E+00 0.  1.
         22    1    4    4    0    0  0.21619625728E+02  0.12533900193E+01  0.28895024698E+03  0.28976063299E+03  0.00000000000E+00 0.  1.
         22    1    4    4    0    0  0.12881284056E+02 -0.46428606082E+01  0.15705959108E+03  0.15765531639E+03  0.00000000000E+00 0.  1.
<mgrwt>
<rscale>  0 0.91071409E+02</rscale>
<asrwt>0</asrwt>
<pdfrwt beam="1">  1        1 0.83567679E-01 0.91071409E+02</pdfrwt>
<pdfrwt beam="2">  1       -1 0.58727170E-03 0.91071409E+02</pdfrwt>
<totfact> 0.14093020E+05</totfact>
</mgrwt>
</event>
<event>
 7    1  0.3345055E-009  0.9183751E+02  0.7818608E-02  0.1298462E+00
         -1   -1    0    0    0  501 -0.00000000000E+00  0.00000000000E+00  0.96597239672E+02  0.96597239804E+02  0.50400000000E-02 0.  1.
          1   -1    0    0  501    0  0.00000000000E+00 -0.00000000000E+00 -0.21828077171E+02  0.21828077753E+02  0.50400000000E-02 0. -1.
         23    2    1    2    0    0 -0.35527136788E-14  0.00000000000E+00  0.74769162501E+02  0.11842531756E+03  0.91837509642E+02 0.  0.
    9000005    2    3    3    0    0  0.20194744260E+02  0.27731929610E+02 -0.19977994558E+00  0.35980002667E+02  0.10845877756E+02 0.  0.
         22    1    3    3    0    0 -0.20194744260E+02 -0.27731929610E+02  0.74968942447E+02  0.82445314889E+02  0.00000000000E+00 0. -1.
         22    1    4    4    0    0  0.21172791922E+02  0.24512780215E+02 -0.13648626265E+01  0.32419536727E+02  0.00000000000E+00 0. -1.
         22    1    4    4    0    0 -0.97804766194E+00  0.32191493949E+01  0.11650826810E+01  0.35604659399E+01  0.00000000000E+00 0. -1.
<mgrwt>
<rscale>  0 0.91837510E+02</rscale>
<asrwt>0</asrwt>
<pdfrwt beam="2">  1        1 0.33581657E-02 0.91837510E+02</pdfrwt>
<pdfrwt beam="1">  1       -1 0.14861114E-01 0.91837510E+02</pdfrwt>
<totfact> 0.80382958E+04</totfact>
</mgrwt>
</event>
<event>
 7    1  0.3345055E-009  0.9125018E+02  0.7818608E-02  0.1299852E+00
         -1   -1    0    0    0  501 -0.00000000000E+00  0.00000000000E+00  0.31100050823E+02  0.31100051232E+02  0.50400000000E-02 0.  1.
          1   -1    0    0  501    0  0.00000000000E+00 -0.00000000000E+00 -0.66933941386E+02  0.66933941576E+02  0.50400000000E-02 0. -1.
         23    2    1    2    0    0  0.00000000000E+00  0.35527136788E-14 -0.35833890563E+02  0.98033992807E+02  0.91250183742E+02 0.  0.
    9000005    2    3    3    0    0  0.15266327742E+01  0.26638370255E+02  0.20423936834E+02  0.35769424063E+02  0.12262998187E+02 0.  0.
         22    1    3    3    0    0 -0.15266327742E+01 -0.26638370255E+02 -0.56257827397E+02  0.62264568744E+02  0.00000000000E+00 0. -1.
         22    1    4    4    0    0 -0.50117547284E+01  0.11525930183E+02  0.11524058344E+02  0.17051940440E+02  0.00000000000E+00 0.  1.
         22    1    4    4    0    0  0.65383875026E+01  0.15112440072E+02  0.88998784904E+01  0.18717483624E+02  0.00000000000E+00 0.  1.
<mgrwt>
<rscale>  0 0.91250184E+02</rscale>
<asrwt>0</asrwt>
<pdfrwt beam="2">  1        1 0.10297529E-01 0.91250184E+02</pdfrwt>
<pdfrwt beam="1">  1       -1 0.47846233E-02 0.91250184E+02</pdfrwt>
<totfact> 0.97771878E+04</totfact>
</mgrwt>
</event>
<event>
 7    1  0.3345055E-009  0.9046822E+02  0.7818608E-02  0.1301722E+00
         -1   -1    0    0    0  501 -0.00000000000E+00  0.00000000000E+00  0.13923662944E+02  0.13923663856E+02  0.50400000000E-02 0.  1.
          1   -1    0    0  501    0  0.00000000000E+00 -0.00000000000E+00 -0.14695305674E+03  0.14695305682E+03  0.50400000000E-02 0. -1.
         23    2    1    2    0    0 -0.71054273576E-14  0.00000000000E+00 -0.13302939379E+03  0.16087672068E+03  0.90468224498E+02 0.  0.
    9000005    2    3    3    0    0  0.41770518104E+02  0.91853075000E+01 -0.44144165842E+02  0.62237327918E+02  0.97791386073E+01 0.  0.
         22    1    3    3    0    0 -0.41770518104E+02 -0.91853075000E+01 -0.88885227952E+02  0.98639392763E+02  0.00000000000E+00 0. -1.
         22    1    4    4    0    0  0.30421632953E+02  0.40451581258E+01 -0.25970804541E+02  0.40203504129E+02  0.00000000000E+00 0. -1.
         22    1    4    4    0    0  0.11348885152E+02  0.51401493742E+01 -0.18173361300E+02  0.22033823788E+02  0.00000000000E+00 0. -1.
<mgrwt>
<rscale>  0 0.90468224E+02</rscale>
<asrwt>0</asrwt>
<pdfrwt beam="2">  1        1 0.22608162E-01 0.90468224E+02</pdfrwt>
<pdfrwt beam="1">  1       -1 0.21421022E-02 0.90468224E+02</pdfrwt>
<totfact> 0.11408641E+05</totfact>
</mgrwt>
</event>
<event>
 7    1  0.3345055E-009  0.8803704E+02  0.7818608E-02  0.1307676E+00
          1   -1    0    0  501    0  0.00000000000E+00  0.00000000000E+00  0.79864919955E+03  0.79864919957E+03  0.50400000000E-02 0. -1.
         -1   -1    0    0    0  501 -0.00000000000E+00 -0.00000000000E+00 -0.24261315123E+01  0.24261367472E+01  0.50400000000E-02 0.  1.
         23    2    1    2    0    0  0.00000000000E+00  0.35527136788E-14  0.79622306804E+03  0.80107533632E+03  0.88037039783E+02 0.  0.
    9000005    2    3    3    0    0 -0.32486184972E+02  0.18051935502E+02  0.60599155109E+03  0.60724743680E+03  0.11935866898E+02 0.  0.
         22    1    3    3    0    0  0.32486184972E+02 -0.18051935502E+02  0.19023151695E+03  0.19382789952E+03  0.00000000000E+00 0.  1.
         22    1    4    4    0    0 -0.87243380299E+01  0.61780377495E+01  0.10257882656E+03  0.10313436810E+03  0.00000000000E+00 0.  1.
         22    1    4    4    0    0 -0.23761846942E+02  0.11873897752E+02  0.50341272453E+03  0.50411306870E+03  0.00000000000E+00 0.  1.
<mgrwt>
<rscale>  0 0.88037040E+02</rscale>
<asrwt>0</asrwt>
<pdfrwt beam="1">  1        1 0.12286929E+00 0.88037040E+02</pdfrwt>
<pdfrwt beam="2">  1       -1 0.37325084E-03 0.88037040E+02</pdfrwt>
<totfact> 0.15501296E+05</totfact>
</mgrwt>
</event>
<event>
 7    1  0.3345055E-009  0.9282865E+02  0.7818608E-02  0.1296143E+00
         -1   -1    0    0    0  501 -0.00000000000E+00  0.00000000000E+00  0.10632809884E+02  0.10632811078E+02  0.50400000000E-02 0.  1.
          1   -1    0    0  501    0  0.00000000000E+00 -0.00000000000E+00 -0.20260770888E+03  0.20260770894E+03  0.50400000000E-02 0. -1.
         23    2    1    2    0    0  0.00000000000E+00  0.00000000000E+00 -0.19197489899E+03  0.21324052002E+03  0.92828646086E+02 0.  0.
    9000005    2    3    3    0    0  0.38596383124E+02 -0.25264779449E+02 -0.95782768785E+02  0.10655914496E+03  0.72472551396E+01 0.  0.
         22    1    3    3    0    0 -0.38596383124E+02  0.25264779449E+02 -0.96192130210E+02  0.10668137506E+03  0.00000000000E+00 0.  1.
         22    1    4    4    0    0  0.71992075068E+01 -0.28188999313E+01 -0.11469767415E+02  0.13832221445E+02  0.00000000000E+00 0. -1.
         22    1    4    4    0    0  0.31397175618E+02 -0.22445879517E+02 -0.84313001370E+02  0.92726923512E+02  0.00000000000E+00 0. -1.
<mgrwt>
<rscale>  0 0.92828646E+02</rscale>
<asrwt>0</asrwt>
<pdfrwt beam="2">  1        1 0.31170414E-01 0.92828646E+02</pdfrwt>
<pdfrwt beam="1">  1       -1 0.16358171E-02 0.92828646E+02</pdfrwt>
<totfact> 0.11311557E+05</totfact>
</mgrwt>
</event>
<event>
 7    1  0.3345055E-009  0.9169275E+02  0.7818608E-02  0.1298803E+00
         -1   -1    0    0    0  501 -0.00000000000E+00  0.00000000000E+00  0.30948816512E+02  0.30948816922E+02  0.50400000000E-02 0.  1.
          1   -1    0    0  501    0  0.00000000000E+00 -0.00000000000E+00 -0.67915043617E+02  0.67915043804E+02  0.50400000000E-02 0. -1.
         23    2    1    2    0    0 -0.35527136788E-14  0.00000000000E+00 -0.36966227105E+02  0.98863860726E+02  0.91692753319E+02 0.  0.
    9000005    2    3    3    0    0 -0.26773580064E+02  0.30884729180E+02 -0.40849707586E+02  0.57805700677E+02  0.14523549693E+01 0.  0.
         22    1    3    3    0    0  0.26773580064E+02 -0.30884729180E+02  0.38834804808E+01  0.41058160049E+02  0.00000000000E+00 0.  1.
         22    1    4    4    0    0 -0.23950751507E+02  0.27882979447E+02 -0.37286258221E+02  0.52358037518E+02  0.00000000000E+00 0. -1.
         22    1    4    4    0    0 -0.28228285570E+01  0.30017497324E+01 -0.35634493651E+01  0.54476631592E+01  0.00000000000E+00 0. -1.
<mgrwt>
<rscale>  0 0.91692753E+02</rscale>
<asrwt>0</asrwt>
<pdfrwt beam="2">  1        1 0.10448468E-01 0.91692753E+02</pdfrwt>
<pdfrwt beam="1">  1       -1 0.47613564E-02 0.91692753E+02</pdfrwt>
<totfact> 0.96688452E+04</totfact>
</mgrwt>
</event>
<event>
 7    1  0.3345055E-009  0.9217387E+02  0.7818608E-02  0.1297671E+00
         -1   -1    0    0    0  501 -0.00000000000E+00  0.00000000000E+00  0.11913541196E+02  0.11913542262E+02  0.50400000000E-02 0.  1.
          1   -1    0    0  501    0  0.00000000000E+00 -0.00000000000E+00 -0.17828498561E+03  0.17828498568E+03  0.50400000000E-02 0. -1.
         23    2    1    2    0    0  0.00000000000E+00  0.00000000000E+00 -0.16637144441E+03  0.19019852794E+03  0.92173871110E+02 0.  0.
    9000005    2    3    3    0    0 -0.23754637101E+02  0.33718917390E+02 -0.46931255994E+02  0.63837114594E+02  0.13091456636E+02 0.  0.
         22    1    3    3    0    0  0.23754637101E+02 -0.33718917390E+02 -0.11944018842E+03  0.12636141335E+03  0.00000000000E+00 0. -1.
         22    1    4    4    0    0 -0.14320445985E+02  0.29780996969E+02 -0.35398927021E+02  0.48425891710E+02  0.00000000000E+00 0.  1.
         22    1    4    4    0    0 -0.94341911156E+01  0.39379204205E+01 -0.11532328973E+02  0.15411222884E+02  0.00000000000E+00 0.  1.
<mgrwt>
<rscale>  0 0.92173871E+02</rscale>
<asrwt>0</asrwt>
<pdfrwt beam="2">  1        1 0.27428458E-01 0.92173871E+02</pdfrwt>
<pdfrwt beam="1">  1       -1 0.18328527E-02 0.92173871E+02</pdfrwt>
<totfact> 0.11247308E+05</totfact>
</mgrwt>
</event>
<event>
 7    1  0.3345055E-009  0.9124509E+02  0.7818608E-02  0.1299864E+00
         -1   -1    0    0    0  501 -0.00000000000E+00  0.00000000000E+00  0.76625396448E+02  0.76625396614E+02  0.50400000000E-02 0.  1.
          1   -1    0    0  501    0  0.00000000000E+00 -0.00000000000E+00 -0.27163535773E+02  0.27163536240E+02  0.50400000000E-02 0. -1.
         23    2    1    2    0    0  0.00000000000E+00 -0.71054273576E-14  0.49461860675E+02  0.10378893285E+03  0.91245092589E+02 0.  0.
    9000005    2    3    3    0    0 -0.23804073648E+02 -0.38658792975E+02  0.27853595002E+02  0.53509182041E+02  0.51257791250E+01 0.  0.
         22    1    3    3    0    0  0.23804073648E+02  0.38658792975E+02  0.21608265673E+02  0.50279750814E+02  0.00000000000E+00 0.  1.
         22    1    4    4    0    0 -0.67005013915E+01 -0.93544439028E+01  0.46885691816E+01  0.12425176884E+02  0.00000000000E+00 0.  1.
         22    1    4    4    0    0 -0.17103572256E+02 -0.29304349072E+02  0.23165025821E+02  0.41084005157E+02  0.00000000000E+00 0.  1.
<mgrwt>
<rscale>  0 0.91245093E+02</rscale>
<asrwt>0</asrwt>
<pdfrwt beam="2">  1        1 0.41790056E-02 0.91245093E+02</pdfrwt>
<pdfrwt beam="1">  1       -1 0.11788522E-01 0.91245093E+02</pdfrwt>
<totfact> 0.85101875E+04</totfact>
</mgrwt>
</event>
<event>
 7    1  0.3345055E-009  0.9456421E+02  0.7818608E-02  0.1292161E+00
          1   -1    0    0  501    0  0.00000000000E+00  0.00000000000E+00  0.77677154582E+02  0.77677154745E+02  0.50400000000E-02 0. -1.
         -1   -1    0    0    0  501 -0.00000000000E+00 -0.00000000000E+00 -0.28780629097E+02  0.28780629538E+02  0.50400000000E-02 0.  1.
         23    2    1    2    0    0  0.00000000000E+00  0.00000000000E+00  0.48896525485E+02  0.10645778428E+03  0.94564209033E+02 0.  0.
    9000005    2    3    3    0    0 -0.10178960284E+02  0.31998237791E+02  0.60570507805E+02  0.70908096276E+02  0.15220816256E+02 0.  0.
         22    1    3    3    0    0  0.10178960284E+02 -0.31998237791E+02 -0.11673982320E+02  0.35549688007E+02  0.00000000000E+00 0.  1.
         22    1    4    4    0    0 -0.23180361376E+01  0.58193685853E+01  0.26489597225E+02  0.27220159871E+02  0.00000000000E+00 0. -1.
         22    1    4    4    0    0 -0.78609241463E+01  0.26178869206E+02  0.34080910581E+02  0.43687936405E+02  0.00000000000E+00 0. -1.
<mgrwt>
<rscale>  0 0.94564209E+02</rscale>
<asrwt>0</asrwt>
<pdfrwt beam="1">  1        1 0.11950331E-01 0.94564209E+02</pdfrwt>
<pdfrwt beam="2">  1       -1 0.44277893E-02 0.94564209E+02</pdfrwt>
<totfact> 0.90683028E+04</totfact>
</mgrwt>
</event>
<event>
 7    1  0.3345055E-009  0.8913465E+02  0.7818608E-02  0.1304961E+00
         -1   -1    0    0    0  501 -0.00000000000E+00  0.00000000000E+00  0.95870482003E+02  0.95870482135E+02  0.50400000000E-02 0.  1.
          1   -1    0    0  501    0  0.00000000000E+00 -0.00000000000E+00 -0.20718017605E+02  0.20718018218E+02  0.50400000000E-02 0. -1.
         23    2    1    2    0    0  0.00000000000E+00  0.27755575616E-15  0.75152464397E+02  0.11658850035E+03  0.89134648200E+02 0.  0.
    9000005    2    3    3    0    0 -0.37271382016E+02  0.38667246637E+00  0.69047097995E+02  0.78818394027E+02  0.74519837958E+01 0.  0.
         22    1    3    3    0    0  0.37271382016E+02 -0.38667246637E+00  0.61053664025E+01  0.37770106327E+02  0.00000000000E+00 0. -1.
         22    1    4    4    0    0 -0.74672400682E+01 -0.21340893788E+01  0.18826283377E+02  0.20365238951E+02  0.00000000000E+00 0.  1.
         22    1    4    4    0    0 -0.29804141948E+02  0.25207618452E+01  0.50220814618E+02  0.58453155077E+02  0.00000000000E+00 0.  1.
<mgrwt>
<rscale>  0 0.89134648E+02</rscale>
<asrwt>0</asrwt>
<pdfrwt beam="2">  1        1 0.31873874E-02 0.89134648E+02</pdfrwt>
<pdfrwt beam="1">  1       -1 0.14749305E-01 0.89134648E+02</pdfrwt>
<totfact> 0.86919545E+04</totfact>
</mgrwt>
</event>
<event>
 7    1  0.3345055E-009  0.9040246E+02  0.7818608E-02  0.1301880E+00
         -1   -1    0    0    0  501 -0.00000000000E+00  0.00000000000E+00  0.89077614371E+01  0.89077628630E+01  0.50400000000E-02 0.  1.
          1   -1    0    0  501    0  0.00000000000E+00 -0.00000000000E+00 -0.22936748667E+03  0.22936748673E+03  0.50400000000E-02 0. -1.
         23    2    1    2    0    0  0.00000000000E+00 -0.35527136788E-14 -0.22045972524E+03  0.23827524959E+03  0.90402456365E+02 0.  0.
    9000005    2    3    3    0    0 -0.29841716077E+02  0.29866952292E+02 -0.78627219368E+02  0.90292066160E+02  0.13706010663E+02 0.  0.
         22    1    3    3    0    0  0.29841716077E+02 -0.29866952292E+02 -0.14183250587E+03  0.14798318343E+03  0.00000000000E+00 0. -1.
         22    1    4    4    0    0 -0.24804717507E+02  0.16068100218E+02 -0.48992622085E+02  0.57216561187E+02  0.00000000000E+00 0.  1.
         22    1    4    4    0    0 -0.50369985701E+01  0.13798852074E+02 -0.29634597283E+02  0.33075504974E+02  0.00000000000E+00 0.  1.
<mgrwt>
<rscale>  0 0.90402456E+02</rscale>
<asrwt>0</asrwt>
<pdfrwt beam="2">  1        1 0.35287301E-01 0.90402456E+02</pdfrwt>
<pdfrwt beam="1">  1       -1 0.13704251E-02 0.90402456E+02</pdfrwt>
<totfact> 0.12441376E+05</totfact>
</mgrwt>
</event>
<event>
 7    1  0.3345055E-009  0.8965776E+02  0.7818608E-02  0.1303683E+00
          1   -1    0    0  501    0  0.00000000000E+00  0.00000000000E+00  0.80879014750E+01  0.80879030453E+01  0.50400000000E-02 0. -1.
         -1   -1    0    0    0  501 -0.00000000000E+00 -0.00000000000E+00 -0.24847336489E+03  0.24847336494E+03  0.50400000000E-02 0.  1.
         23    2    1    2    0    0  0.71054273576E-14  0.00000000000E+00 -0.24038546341E+03  0.25656126798E+03  0.89657755992E+02 0.  0.
    9000005    2    3    3    0    0  0.34744020377E+02 -0.27876388535E+02 -0.10601675702E+03  0.11500142464E+03  0.12389151314E+01 0.  0.
         22    1    3    3    0    0 -0.34744020377E+02  0.27876388535E+02 -0.13436870639E+03  0.14155984334E+03  0.00000000000E+00 0. -1.
         22    1    4    4    0    0  0.19265776449E+02 -0.15084507590E+02 -0.56824767888E+02  0.61868948245E+02  0.00000000000E+00 0.  1.
         22    1    4    4    0    0  0.15478243928E+02 -0.12791880945E+02 -0.49191989136E+02  0.53132476400E+02  0.00000000000E+00 0.  1.
<mgrwt>
<rscale>  0 0.89657756E+02</rscale>
<asrwt>0</asrwt>
<pdfrwt beam="1">  1        1 0.12442928E-02 0.89657756E+02</pdfrwt>
<pdfrwt beam="2">  1       -1 0.38226666E-01 0.89657756E+02</pdfrwt>
<totfact> 0.67806215E+04</totfact>
</mgrwt>
</event>
<event>
 7    1  0.3345055E-009  0.9028167E+02  0.7818608E-02  0.1302171E+00
         -1   -1    0    0    0  501 -0.00000000000E+00  0.00000000000E+00  0.54982653132E+03  0.54982653135E+03  0.50400000000E-02 0.  1.
          1   -1    0    0  501    0  0.00000000000E+00 -0.00000000000E+00 -0.37060671798E+01  0.37060706068E+01  0.50400000000E-02 0. -1.
         23    2    1    2    0    0  0.35527136788E-14 -0.17763568394E-14  0.54612046414E+03  0.55353260195E+03  0.90281670724E+02 0.  0.
    9000005    2    3    3    0    0  0.28342956334E+02 -0.12991513402E+02  0.47039532820E+03  0.47163999662E+03  0.14156942723E+02 0.  0.
         22    1    3    3    0    0 -0.28342956334E+02  0.12991513402E+02  0.75725135948E+02  0.81892605335E+02  0.00000000000E+00 0. -1.
         22    1    4    4    0    0  0.23297446319E+02 -0.13795208526E+02  0.43877440665E+03  0.43960898389E+03  0.00000000000E+00 0.  1.
         22    1    4    4    0    0  0.50455100154E+01  0.80369512345E+00  0.31620921547E+02  0.32031012732E+02  0.00000000000E+00 0.  1.
<mgrwt>
<rscale>  0 0.90281671E+02</rscale>
<asrwt>0</asrwt>
<pdfrwt beam="2">  1        1 0.57016422E-03 0.90281671E+02</pdfrwt>
<pdfrwt beam="1">  1       -1 0.84588732E-01 0.90281671E+02</pdfrwt>
<totfact> 0.45407382E+04</totfact>
</mgrwt>
</event>
<event>
 7    1  0.3345055E-009  0.9054363E+02  0.7818608E-02  0.1301541E+00
         -1   -1    0    0    0  501 -0.00000000000E+00  0.00000000000E+00  0.35882944832E+02  0.35882945186E+02  0.50400000000E-02 0.  1.
          1   -1    0    0  501    0  0.00000000000E+00 -0.00000000000E+00 -0.57117308432E+02  0.57117308655E+02  0.50400000000E-02 0. -1.
         23    2    1    2    0    0  0.00000000000E+00  0.00000000000E+00 -0.21234363601E+02  0.93000253840E+02  0.90543630460E+02 0.  0.
    9000005    2    3    3    0    0 -0.42279385945E+02  0.98570231340E+01 -0.19336196740E+02  0.49545559981E+02  0.14005949755E+02 0.  0.
         22    1    3    3    0    0  0.42279385945E+02 -0.98570231340E+01 -0.18981668607E+01  0.43454693859E+02  0.00000000000E+00 0.  1.
         22    1    4    4    0    0 -0.11559171043E+02  0.74465672696E+01 -0.11039913690E+02  0.17633646633E+02  0.00000000000E+00 0. -1.
         22    1    4    4    0    0 -0.30720214902E+02  0.24104558645E+01 -0.82962830502E+01  0.31911913348E+02  0.00000000000E+00 0. -1.
<mgrwt>
<rscale>  0 0.90543630E+02</rscale>
<asrwt>0</asrwt>
<pdfrwt beam="2">  1        1 0.87872783E-02 0.90543630E+02</pdfrwt>
<pdfrwt beam="1">  1       -1 0.55204531E-02 0.90543630E+02</pdfrwt>
<totfact> 0.97526136E+04</totfact>
</mgrwt>
</event>
<event>
 7    1  0.3345055E-009  0.8994549E+02  0.7818608E-02  0.1302984E+00
         -1   -1    0    0    0  501 -0.00000000000E+00  0.00000000000E+00  0.19431108829E+02  0.19431109482E+02  0.50400000000E-02 0.  1.
          1   -1    0    0  501    0  0.00000000000E+00 -0.00000000000E+00 -0.10408812518E+03  0.10408812531E+03  0.50400000000E-02 0. -1.
         23    2    1    2    0    0  0.00000000000E+00  0.00000000000E+00 -0.84657016355E+02  0.12351923479E+03  0.89945488739E+02 0.  0.
    9000005    2    3    3    0    0  0.40114511064E+02 -0.10142441624E+02 -0.23633738325E+02  0.49790789927E+02  0.14440431240E+02 0.  0.
         22    1    3    3    0    0 -0.40114511064E+02  0.10142441624E+02 -0.61023278031E+02  0.73728444861E+02  0.00000000000E+00 0. -1.
         22    1    4    4    0    0  0.28964307847E+02 -0.19600772904E+01 -0.20694493922E+02  0.35651579358E+02  0.00000000000E+00 0.  1.
         22    1    4    4    0    0  0.11150203217E+02 -0.81823643336E+01 -0.29392444029E+01  0.14139210569E+02  0.00000000000E+00 0.  1.
<mgrwt>
<rscale>  0 0.89945489E+02</rscale>
<asrwt>0</asrwt>
<pdfrwt beam="2">  1        1 0.16013558E-01 0.89945489E+02</pdfrwt>
<pdfrwt beam="1">  1       -1 0.29894015E-02 0.89945489E+02</pdfrwt>
<totfact> 0.10911306E+05</totfact>
</mgrwt>
</event>
<event>
 7    1  0.3345055E-009  0.9271277E+02  0.7818608E-02  0.1296412E+00
          1   -1    0    0  501    0  0.00000000000E+00  0.00000000000E+00  0.89397586225E+02  0.89397586367E+02  0.50400000000E-02 0. -1.
         -1   -1    0    0    0  501 -0.00000000000E+00 -0.00000000000E+00 -0.24037723131E+02  0.24037723660E+02  0.50400000000E-02 0.  1.
         23    2    1    2    0    0  0.00000000000E+00  0.35527136788E-14  0.65359863094E+02  0.11343531003E+03  0.92712770734E+02 0.  0.
    9000005    2    3    3    0    0  0.32217741980E+02 -0.31443428828E+02  0.43358466012E+02  0.63328089107E+02  0.10189120687E+02 0.  0.
         22    1    3    3    0    0 -0.32217741980E+02  0.31443428828E+02  0.22001397082E+02  0.50107220920E+02  0.00000000000E+00 0.  1.
         22    1    4    4    0    0  0.40538645267E+01 -0.94932542606E+01  0.11752175344E+02  0.15641909070E+02  0.00000000000E+00 0. -1.
         22    1    4    4    0    0  0.28163877453E+02 -0.21950174567E+02  0.31606290668E+02  0.47686180037E+02  0.00000000000E+00 0. -1.
<mgrwt>
<rscale>  0 0.92712771E+02</rscale>
<asrwt>0</asrwt>
<pdfrwt beam="1">  1        1 0.13753475E-01 0.92712771E+02</pdfrwt>
<pdfrwt beam="2">  1       -1 0.36981112E-02 0.92712771E+02</pdfrwt>
<totfact> 0.97959430E+04</totfact>
</mgrwt>
</event>
<event>
 7    1  0.3345055E-009  0.8671338E+02  0.7818608E-02  0.1311012E+00
         -1   -1    0    0    0  501 -0.00000000000E+00  0.00000000000E+00  0.85095010546E+01  0.85095025472E+01  0.50400000000E-02 0.  1.
          1   -1    0    0  501    0  0.00000000000E+00 -0.00000000000E+00 -0.22090627819E+03  0.22090627824E+03  0.50400000000E-02 0. -1.
         23    2    1    2    0    0  0.00000000000E+00  0.00000000000E+00 -0.21239677713E+03  0.22941578079E+03  0.86713375785E+02 0.  0.
    9000005    2    3    3    0    0  0.20298672723E+02 -0.25102492027E+02 -0.18270303868E+03  0.18555361801E+03  0.27520164647E+01 0.  0.
         22    1    3    3    0    0 -0.20298672723E+02  0.25102492027E+02 -0.29693738451E+02  0.43862162777E+02  0.00000000000E+00 0.  1.
         22    1    4    4    0    0  0.15892644344E+02 -0.20792742854E+02 -0.15228793181E+03  0.15452031735E+03  0.00000000000E+00 0. -1.
         22    1    4    4    0    0  0.44060283788E+01 -0.43097491734E+01 -0.30415106871E+02  0.31033300662E+02  0.00000000000E+00 0. -1.
<mgrwt>
<rscale>  0 0.86713376E+02</rscale>
<asrwt>0</asrwt>
<pdfrwt beam="2">  1        1 0.33985577E-01 0.86713376E+02</pdfrwt>
<pdfrwt beam="1">  1       -1 0.13091543E-02 0.86713376E+02</pdfrwt>
<totfact> 0.13801958E+05</totfact>
</mgrwt>
</event>
<event>
 7    1  0.3345055E-009  0.9470832E+02  0.7818608E-02  0.1291834E+00
         -1   -1    0    0    0  501 -0.00000000000E+00  0.00000000000E+00  0.68741930156E+01  0.68741948632E+01  0.50400000000E-02 0.  1.
          1   -1    0    0  501    0  0.00000000000E+00 -0.00000000000E+00 -0.32620789124E+03  0.32620789127E+03  0.50400000000E-02 0. -1.
         23    2    1    2    0    0  0.00000000000E+00  0.00000000000E+00 -0.31933369822E+03  0.33308208614E+03  0.94708316884E+02 0.  0.
    9000005    2    3    3    0    0  0.30564805403E+02 -0.34019137781E+02 -0.19234556899E+03  0.19810988888E+03  0.12617491865E+02 0.  0.
         22    1    3    3    0    0 -0.30564805403E+02  0.34019137781E+02 -0.12698812923E+03  0.13497219725E+03  0.00000000000E+00 0.  1.
         22    1    4    4    0    0  0.14512347429E+02 -0.10543781352E+02 -0.55015438650E+02  0.57866035314E+02  0.00000000000E+00 0. -1.
         22    1    4    4    0    0  0.16052457974E+02 -0.23475356429E+02 -0.13733013034E+03  0.14024385357E+03  0.00000000000E+00 0. -1.
<mgrwt>
<rscale>  0 0.94708317E+02</rscale>
<asrwt>0</asrwt>
<pdfrwt beam="2">  1        1 0.50185817E-01 0.94708317E+02</pdfrwt>
<pdfrwt beam="1">  1       -1 0.10575686E-02 0.94708317E+02</pdfrwt>
<totfact> 0.11760491E+05</totfact>
</mgrwt>
</event>
<event>
 7    1  0.3345055E-009  0.9147387E+02  0.7818608E-02  0.1299321E+00
          1   -1    0    0  501    0  0.00000000000E+00  0.00000000000E+00  0.70634159603E+02  0.70634159783E+02  0.50400000000E-02 0. -1.
         -1   -1    0    0    0  501 -0.00000000000E+00 -0.00000000000E+00 -0.29615514475E+02  0.29615514904E+02  0.50400000000E-02 0.  1.
         23    2    1    2    0    0 -0.38857805862E-15  0.00000000000E+00  0.41018645128E+02  0.10024967469E+03  0.91473865266E+02 0.  0.
    9000005    2    3    3    0    0  0.29702941898E+00 -0.26321828910E+02  0.61029271654E+02  0.67183799866E+02  0.98063276601E+01 0.  0.
         22    1    3    3    0    0 -0.29702941898E+00  0.26321828910E+02 -0.20010626526E+02  0.33065874820E+02  0.00000000000E+00 0.  1.
         22    1    4    4    0    0 -0.38208658439E+01 -0.18541546768E+02  0.36399171773E+02  0.41027889028E+02  0.00000000000E+00 0. -1.
         22    1    4    4    0    0  0.41178952629E+01 -0.77802821417E+01  0.24630099882E+02  0.26155910838E+02  0.00000000000E+00 0. -1.
<mgrwt>
<rscale>  0 0.91473865E+02</rscale>
<asrwt>0</asrwt>
<pdfrwt beam="1">  1        1 0.10866794E-01 0.91473865E+02</pdfrwt>
<pdfrwt beam="2">  1       -1 0.45562330E-02 0.91473865E+02</pdfrwt>
<totfact> 0.97921418E+04</totfact>
</mgrwt>
</event>
<event>
 7    1  0.3345055E-009  0.8651693E+02  0.7818608E-02  0.1311513E+00
          1   -1    0    0  501    0  0.00000000000E+00  0.00000000000E+00  0.10102405863E+03  0.10102405875E+03  0.50400000000E-02 0. -1.
         -1   -1    0    0    0  501 -0.00000000000E+00 -0.00000000000E+00 -0.18523257651E+02  0.18523258336E+02  0.50400000000E-02 0.  1.
         23    2    1    2    0    0 -0.35527136788E-14  0.00000000000E+00  0.82500800975E+02  0.11954731709E+03  0.86516928178E+02 0.  0.
    9000005    2    3    3    0    0 -0.21588598231E+02  0.36646867335E+02  0.40736660063E+02  0.59937721173E+02  0.11135281195E+02 0.  0.
         22    1    3    3    0    0  0.21588598231E+02 -0.36646867335E+02  0.41764140911E+02  0.59609595915E+02  0.00000000000E+00 0.  1.
         22    1    4    4    0    0 -0.21814980179E+02  0.37330464673E+02  0.40217155249E+02  0.59049780095E+02  0.00000000000E+00 0.  1.
         22    1    4    4    0    0  0.22638194805E+00 -0.68359733797E+00  0.51950481408E+00  0.88794107841E+00  0.00000000000E+00 0.  1.
<mgrwt>
<rscale>  0 0.86516928E+02</rscale>
<asrwt>0</asrwt>
<pdfrwt beam="1">  1        1 0.15542163E-01 0.86516928E+02</pdfrwt>
<pdfrwt beam="2">  1       -1 0.28497320E-02 0.86516928E+02</pdfrwt>
<totfact> 0.12063786E+05</totfact>
</mgrwt>
</event>
<event>
 7    1  0.3345055E-009  0.9545048E+02  0.7818608E-02  0.1290165E+00
         -1   -1    0    0    0  501 -0.00000000000E+00  0.00000000000E+00  0.16550846768E+03  0.16550846776E+03  0.50400000000E-02 0.  1.
          1   -1    0    0  501    0  0.00000000000E+00 -0.00000000000E+00 -0.13761822857E+02  0.13761823779E+02  0.50400000000E-02 0. -1.
         23    2    1    2    0    0  0.00000000000E+00  0.00000000000E+00  0.15174664482E+03  0.17927029154E+03  0.95450475181E+02 0.  0.
    9000005    2    3    3    0    0  0.13276738008E+02  0.42152231059E+02  0.44987961953E+02  0.63725933285E+02  0.91649057291E+01 0.  0.
         22    1    3    3    0    0 -0.13276738008E+02 -0.42152231059E+02  0.10675868287E+03  0.11554435825E+03  0.00000000000E+00 0.  1.
         22    1    4    4    0    0  0.11337453262E+02  0.28022251776E+02  0.35349557262E+02  0.46512102078E+02  0.00000000000E+00 0.  1.
         22    1    4    4    0    0  0.19392847462E+01  0.14129979283E+02  0.96384046914E+01  0.17213831208E+02  0.00000000000E+00 0.  1.
<mgrwt>
<rscale>  0 0.95450475E+02</rscale>
<asrwt>0</asrwt>
<pdfrwt beam="2">  1        1 0.21172036E-02 0.95450475E+02</pdfrwt>
<pdfrwt beam="1">  1       -1 0.25462841E-01 0.95450475E+02</pdfrwt>
<totfact> 0.64817490E+04</totfact>
</mgrwt>
</event>
<event>
 7    1  0.3345055E-009  0.9264215E+02  0.7818608E-02  0.1296577E+00
          1   -1    0    0  501    0  0.00000000000E+00  0.00000000000E+00  0.16241836653E+02  0.16241837435E+02  0.50400000000E-02 0. -1.
         -1   -1    0    0    0  501 -0.00000000000E+00 -0.00000000000E+00 -0.13210587206E+03  0.13210587216E+03  0.50400000000E-02 0.  1.
         23    2    1    2    0    0  0.00000000000E+00  0.00000000000E+00 -0.11586403541E+03  0.14834770960E+03  0.92642151532E+02 0.  0.
    9000005    2    3    3    0    0  0.95988305134E+01  0.42462501919E+02 -0.36107817046E+02  0.57483767439E+02  0.10266813072E+02 0.  0.
         22    1    3    3    0    0 -0.95988305134E+01 -0.42462501919E+02 -0.79756218365E+02  0.90863942157E+02  0.00000000000E+00 0.  1.
         22    1    4    4    0    0  0.84050622176E+01  0.20175390963E+02 -0.22374583496E+02  0.31278002782E+02  0.00000000000E+00 0.  1.
         22    1    4    4    0    0  0.11937682958E+01  0.22287110956E+02 -0.13733233550E+02  0.26205764657E+02  0.00000000000E+00 0.  1.
<mgrwt>
<rscale>  0 0.92642152E+02</rscale>
<asrwt>0</asrwt>
<pdfrwt beam="1">  1        1 0.24987443E-02 0.92642152E+02</pdfrwt>
<pdfrwt beam="2">  1       -1 0.20323980E-01 0.92642152E+02</pdfrwt>
<totfact> 0.73840935E+04</totfact>
</mgrwt>
</event>
<event>
 7    1  0.3345055E-009  0.9026647E+02  0.7818608E-02  0.1302208E+00
          1   -1    0    0  501    0  0.00000000000E+00  0.00000000000E+00  0.30463146733E+01  0.30463188425E+01  0.50400000000E-02 0. -1.
         -1   -1    0    0    0  501 -0.00000000000E+00 -0.00000000000E+00 -0.66867925919E+03  0.66867925921E+03  0.50400000000E-02 0.  1.
         23    2    1    2    0    0  0.00000000000E+00  0.00000000000E+00 -0.66563294451E+03  0.67172557805E+03  0.90266468761E+02 0.  0.
    9000005    2    3    3    0    0 -0.30823876873E+02 -0.28492778101E+02 -0.44704732913E+03  0.44914610675E+03  0.10906921656E+02 0.  0.
         22    1    3    3    0    0  0.30823876873E+02  0.28492778101E+02 -0.21858561539E+03  0.22257947130E+03  0.00000000000E+00 0. -1.
         22    1    4    4    0    0 -0.21891391540E+02 -0.15910029252E+02 -0.23898815226E+03  0.24051548593E+03  0.00000000000E+00 0.  1.
         22    1    4    4    0    0 -0.89324853327E+01 -0.12582748849E+02 -0.20805917687E+03  0.20863062081E+03  0.00000000000E+00 0.  1.
<mgrwt>
<rscale>  0 0.90266469E+02</rscale>
<asrwt>0</asrwt>
<pdfrwt beam="1">  1        1 0.46866465E-03 0.90266469E+02</pdfrwt>
<pdfrwt beam="2">  1       -1 0.10287362E+00 0.90266469E+02</pdfrwt>
<totfact> 0.39298655E+04</totfact>
</mgrwt>
</event>
<event>
 7    1  0.3345055E-009  0.9067259E+02  0.7818608E-02  0.1301231E+00
          1   -1    0    0  501    0  0.00000000000E+00  0.00000000000E+00  0.95079670138E+02  0.95079670272E+02  0.50400000000E-02 0.  1.
         -1   -1    0    0    0  501 -0.00000000000E+00 -0.00000000000E+00 -0.21617444915E+02  0.21617445502E+02  0.50400000000E-02 0. -1.
         23    2    1    2    0    0 -0.35527136788E-14  0.00000000000E+00  0.73462225223E+02  0.11669711577E+03  0.90672588444E+02 0.  0.
    9000005    2    3    3    0    0 -0.21835627384E+02  0.29672049404E+02  0.68935966327E+02  0.79579570614E+02  0.14950433660E+02 0.  0.
         22    1    3    3    0    0  0.21835627384E+02 -0.29672049404E+02  0.45262588969E+01  0.37117545160E+02  0.00000000000E+00 0. -1.
         22    1    4    4    0    0 -0.28208166880E+01  0.10636627730E+02  0.10332544595E+02  0.15094910866E+02  0.00000000000E+00 0.  1.
         22    1    4    4    0    0 -0.19014810697E+02  0.19035421674E+02  0.58603421732E+02  0.64484659748E+02  0.00000000000E+00 0.  1.
<mgrwt>
<rscale>  0 0.90672588E+02</rscale>
<asrwt>0</asrwt>
<pdfrwt beam="1">  1        1 0.14627642E-01 0.90672588E+02</pdfrwt>
<pdfrwt beam="2">  1       -1 0.33257608E-02 0.90672588E+02</pdfrwt>
<totfact> 0.10516345E+05</totfact>
</mgrwt>
</event>
<event>
 7    1  0.3345055E-009  0.8326885E+02  0.7818608E-02  0.1320023E+00
         -1   -1    0    0    0  501 -0.00000000000E+00  0.00000000000E+00  0.64767318186E+01  0.64767337795E+01  0.50400000000E-02 0.  1.
          1   -1    0    0  501    0  0.00000000000E+00 -0.00000000000E+00 -0.26763885255E+03  0.26763885260E+03  0.50400000000E-02 0. -1.
         23    2    1    2    0    0 -0.88817841970E-15 -0.35527136788E-14 -0.26116212073E+03  0.27411558638E+03  0.83268850057E+02 0.  0.
    9000005    2    3    3    0    0  0.44249117543E+01  0.26430889255E+02 -0.23529913939E+03  0.23687225738E+03  0.49608031318E+01 0.  0.
         22    1    3    3    0    0 -0.44249117543E+01 -0.26430889255E+02 -0.25862981337E+02  0.37243328993E+02  0.00000000000E+00 0.  1.
         22    1    4    4    0    0 -0.45596034688E+00  0.11520001628E+02 -0.10569305429E+03  0.10631998901E+03  0.00000000000E+00 0.  1.
         22    1    4    4    0    0  0.48808721012E+01  0.14910887627E+02 -0.12960608510E+03  0.13055226838E+03  0.00000000000E+00 0.  1.
<mgrwt>
<rscale>  0 0.83268850E+02</rscale>
<asrwt>0</asrwt>
<pdfrwt beam="2">  1        1 0.41175200E-01 0.83268850E+02</pdfrwt>
<pdfrwt beam="1">  1       -1 0.99642064E-03 0.83268850E+02</pdfrwt>
<totfact> 0.15946102E+05</totfact>
</mgrwt>
</event>
<event>
 7    1  0.3345055E-009  0.9070126E+02  0.7818608E-02  0.1301162E+00
          1   -1    0    0  501    0  0.00000000000E+00  0.00000000000E+00  0.17203711904E+02  0.17203712642E+02  0.50400000000E-02 0. -1.
         -1   -1    0    0    0  501 -0.00000000000E+00 -0.00000000000E+00 -0.11954859664E+03  0.11954859675E+03  0.50400000000E-02 0.  1.
         23    2    1    2    0    0 -0.71054273576E-14 -0.88817841970E-15 -0.10234488474E+03  0.13675230939E+03  0.90701260694E+02 0.  0.
    9000005    2    3    3    0    0  0.22189176131E+02  0.56689232369E+01  0.57176323700E+01  0.26289628671E+02  0.11573980632E+02 0.  0.
         22    1    3    3    0    0 -0.22189176131E+02 -0.56689232369E+01 -0.10806251711E+03  0.11046268072E+03  0.00000000000E+00 0.  1.
         22    1    4    4    0    0 -0.22563061640E+00 -0.73677694184E+00  0.26701704540E+01  0.27791293044E+01  0.00000000000E+00 0. -1.
         22    1    4    4    0    0  0.22414806748E+02  0.64057001788E+01  0.30474619159E+01  0.23510499366E+02  0.00000000000E+00 0. -1.
<mgrwt>
<rscale>  0 0.90701261E+02</rscale>
<asrwt>0</asrwt>
<pdfrwt beam="1">  1        1 0.26467251E-02 0.90701261E+02</pdfrwt>
<pdfrwt beam="2">  1       -1 0.18392091E-01 0.90701261E+02</pdfrwt>
<totfact> 0.79660281E+04</totfact>
</mgrwt>
</event>
<event>
 7    1  0.3345055E-009  0.9179218E+02  0.7818608E-02  0.1298569E+00
          1   -1    0    0  501    0  0.00000000000E+00  0.00000000000E+00  0.52534869762E+03  0.52534869764E+03  0.50400000000E-02 0. -1.
         -1   -1    0    0    0  501 -0.00000000000E+00 -0.00000000000E+00 -0.40096228463E+01  0.40096260139E+01  0.50400000000E-02 0.  1.
         23    2    1    2    0    0  0.00000000000E+00  0.17763568394E-14  0.52133907477E+03  0.52935832366E+03  0.91792177990E+02 0.  0.
    9000005    2    3    3    0    0  0.41900199164E+02  0.10001938280E+02  0.35072174137E+03  0.35338690576E+03  0.45716335597E+01 0.  0.
         22    1    3    3    0    0 -0.41900199164E+02 -0.10001938280E+02  0.17061733340E+03  0.17597141790E+03  0.00000000000E+00 0. -1.
         22    1    4    4    0    0  0.66361585739E-02  0.32094027171E+00  0.27829986387E+01  0.28014510739E+01  0.00000000000E+00 0.  1.
         22    1    4    4    0    0  0.41893563006E+02  0.96809980086E+01  0.34793874273E+03  0.35058545469E+03  0.00000000000E+00 0.  1.
<mgrwt>
<rscale>  0 0.91792178E+02</rscale>
<asrwt>0</asrwt>
<pdfrwt beam="1">  1        1 0.80822955E-01 0.91792178E+02</pdfrwt>
<pdfrwt beam="2">  1       -1 0.61686470E-03 0.91792178E+02</pdfrwt>
<totfact> 0.13755907E+05</totfact>
</mgrwt>
</event>
<event>
 7    1  0.3345055E-009  0.9051513E+02  0.7818608E-02  0.1301609E+00
         -1   -1    0    0    0  501 -0.00000000000E+00  0.00000000000E+00  0.18252028498E+02  0.18252029194E+02  0.50400000000E-02 0.  1.
          1   -1    0    0  501    0  0.00000000000E+00 -0.00000000000E+00 -0.11222023814E+03  0.11222023825E+03  0.50400000000E-02 0. -1.
         23    2    1    2    0    0  0.00000000000E+00  0.00000000000E+00 -0.93968209644E+02  0.13047226745E+03  0.90515126634E+02 0.  0.
    9000005    2    3    3    0    0  0.34341216349E+02 -0.25764115195E+02 -0.26625783127E+02  0.50609189739E+02  0.30412146862E+01 0.  0.
         22    1    3    3    0    0 -0.34341216349E+02  0.25764115195E+02 -0.67342426517E+02  0.79863077710E+02  0.00000000000E+00 0. -1.
         22    1    4    4    0    0  0.62843777932E+01 -0.39901550148E+01 -0.34754157799E+01  0.82154279337E+01  0.00000000000E+00 0.  1.
         22    1    4    4    0    0  0.28056838556E+02 -0.21773960180E+02 -0.23150367347E+02  0.42393761805E+02  0.00000000000E+00 0.  1.
<mgrwt>
<rscale>  0 0.90515127E+02</rscale>
<asrwt>0</asrwt>
<pdfrwt beam="2">  1        1 0.17264652E-01 0.90515127E+02</pdfrwt>
<pdfrwt beam="1">  1       -1 0.28080045E-02 0.90515127E+02</pdfrwt>
<totfact> 0.10862828E+05</totfact>
</mgrwt>
</event>
<event>
 7    1  0.3345055E-009  0.9334547E+02  0.7818608E-02  0.1294947E+00
         -1   -1    0    0    0  501 -0.00000000000E+00  0.00000000000E+00  0.31097271441E+01  0.31097312283E+01  0.50400000000E-02 0.  1.
          1   -1    0    0  501    0  0.00000000000E+00 -0.00000000000E+00 -0.70049317095E+03  0.70049317097E+03  0.50400000000E-02 0. -1.
         23    2    1    2    0    0  0.00000000000E+00  0.35527136788E-14 -0.69738344380E+03  0.70360290220E+03  0.93345467403E+02 0.  0.
    9000005    2    3    3    0    0 -0.19057627661E+02  0.20400766887E+02 -0.62811074067E+03  0.62891627782E+03  0.15270805291E+02 0.  0.
         22    1    3    3    0    0  0.19057627661E+02 -0.20400766887E+02 -0.69272703132E+02  0.74686624377E+02  0.00000000000E+00 0.  1.
         22    1    4    4    0    0 -0.74608627210E+01  0.37375111465E+01 -0.33471289750E+03  0.33481690103E+03  0.00000000000E+00 0.  1.
         22    1    4    4    0    0 -0.11596764940E+02  0.16663255741E+02 -0.29339784317E+03  0.29409937679E+03  0.00000000000E+00 0.  1.
<mgrwt>
<rscale>  0 0.93345467E+02</rscale>
<asrwt>0</asrwt>
<pdfrwt beam="2">  1        1 0.10776806E+00 0.93345467E+02</pdfrwt>
<pdfrwt beam="1">  1       -1 0.47842043E-03 0.93345467E+02</pdfrwt>
<totfact> 0.13359341E+05</totfact>
</mgrwt>
</event>
<event>
 7    1  0.3345055E-009  0.8914602E+02  0.7818608E-02  0.1304933E+00
         -1   -1    0    0    0  501 -0.00000000000E+00  0.00000000000E+00  0.11232288888E+04  0.11232288888E+04  0.50400000000E-02 0.  1.
          1   -1    0    0  501    0  0.00000000000E+00 -0.00000000000E+00 -0.17687840711E+01  0.17687912516E+01  0.50400000000E-02 0. -1.
         23    2    1    2    0    0  0.00000000000E+00 -0.35527136788E-14  0.11214601047E+04  0.11249976801E+04  0.89146024299E+02 0.  0.
    9000005    2    3    3    0    0 -0.56691189076E+01  0.14757541890E+02  0.10853803758E+04  0.10856064274E+04  0.15518728634E+02 0.  0.
         22    1    3    3    0    0  0.56691189076E+01 -0.14757541890E+02  0.36079728869E+02  0.39391252672E+02  0.00000000000E+00 0. -1.
         22    1    4    4    0    0  0.26690492223E+01  0.13298206119E+02  0.61092593927E+03  0.61107648407E+03  0.00000000000E+00 0. -1.
         22    1    4    4    0    0 -0.83381681299E+01  0.14593357715E+01  0.47445443658E+03  0.47452994331E+03  0.00000000000E+00 0. -1.
<mgrwt>
<rscale>  0 0.89146024E+02</rscale>
<asrwt>0</asrwt>
<pdfrwt beam="2">  1        1 0.27212068E-03 0.89146024E+02</pdfrwt>
<pdfrwt beam="1">  1       -1 0.17280476E+00 0.89146024E+02</pdfrwt>
<totfact> 0.23426302E+04</totfact>
</mgrwt>
</event>
<event>
 7    1  0.3345055E-009  0.9183492E+02  0.7818608E-02  0.1298468E+00
          1   -1    0    0  501    0  0.00000000000E+00  0.00000000000E+00  0.23191556140E+03  0.23191556146E+03  0.50400000000E-02 0. -1.
         -1   -1    0    0    0  501 -0.00000000000E+00 -0.00000000000E+00 -0.90912959618E+01  0.90912973588E+01  0.50400000000E-02 0.  1.
         23    2    1    2    0    0 -0.44408920985E-15 -0.71054273576E-14  0.22282426544E+03  0.24100685882E+03  0.91834921066E+02 0.  0.
    9000005    2    3    3    0    0 -0.22080082435E+01 -0.41811377536E+02  0.15898192526E+03  0.16465955374E+03  0.91896402861E+01 0.  0.
         22    1    3    3    0    0  0.22080082435E+01  0.41811377536E+02  0.63842340186E+02  0.76347305075E+02  0.00000000000E+00 0.  1.
         22    1    4    4    0    0 -0.32889536180E+01 -0.22677303607E+02  0.70672755275E+02  0.74294788868E+02  0.00000000000E+00 0.  1.
         22    1    4    4    0    0  0.10809453746E+01 -0.19134073929E+02  0.88309169981E+02  0.90364764874E+02  0.00000000000E+00 0.  1.
<mgrwt>
<rscale>  0 0.91834921E+02</rscale>
<asrwt>0</asrwt>
<pdfrwt beam="1">  1        1 0.35679317E-01 0.91834921E+02</pdfrwt>
<pdfrwt beam="2">  1       -1 0.13986610E-02 0.91834921E+02</pdfrwt>
<totfact> 0.11954752E+05</totfact>
</mgrwt>
</event>
<event>
 7    1  0.3345055E-009  0.9321036E+02  0.7818608E-02  0.1295258E+00
          1   -1    0    0  501    0  0.00000000000E+00  0.00000000000E+00  0.19792131417E+02  0.19792132059E+02  0.50400000000E-02 0. -1.
         -1   -1    0    0    0  501 -0.00000000000E+00 -0.00000000000E+00 -0.10974273393E+03  0.10974273404E+03  0.50400000000E-02 0.  1.
         23    2    1    2    0    0 -0.88817841970E-15  0.00000000000E+00 -0.89950602512E+02  0.12953486610E+03  0.93210356957E+02 0.  0.
    9000005    2    3    3    0    0 -0.75783066792E+01  0.29315616591E+02  0.14568846231E+01  0.33242785366E+02  0.13642732785E+02 0.  0.
         22    1    3    3    0    0  0.75783066792E+01 -0.29315616591E+02 -0.91407487135E+02  0.96292080737E+02  0.00000000000E+00 0.  1.
         22    1    4    4    0    0 -0.67466788389E+01  0.21125387305E+02 -0.50560877197E+01  0.22745630068E+02  0.00000000000E+00 0.  1.
         22    1    4    4    0    0 -0.83162784032E+00  0.81902292861E+01  0.65129723429E+01  0.10497155299E+02  0.00000000000E+00 0.  1.
<mgrwt>
<rscale>  0 0.93210357E+02</rscale>
<asrwt>0</asrwt>
<pdfrwt beam="1">  1        1 0.30449434E-02 0.93210357E+02</pdfrwt>
<pdfrwt beam="2">  1       -1 0.16883497E-01 0.93210357E+02</pdfrwt>
<totfact> 0.75514505E+04</totfact>
</mgrwt>
</event>
<event>
 7    1  0.3345055E-009  0.9038372E+02  0.7818608E-02  0.1301925E+00
          1   -1    0    0  501    0  0.00000000000E+00  0.00000000000E+00  0.71664993299E+03  0.71664993300E+03  0.50400000000E-02 0. -1.
         -1   -1    0    0    0  501 -0.00000000000E+00 -0.00000000000E+00 -0.28497912753E+01  0.28497957320E+01  0.50400000000E-02 0.  1.
         23    2    1    2    0    0  0.00000000000E+00 -0.88817841970E-15  0.71380014171E+03  0.71949972874E+03  0.90383722785E+02 0.  0.
    9000005    2    3    3    0    0 -0.34342575015E+02  0.72159913009E+01  0.57697780654E+03  0.57824876629E+03  0.15387120976E+02 0.  0.
         22    1    3    3    0    0  0.34342575015E+02 -0.72159913009E+01  0.13682233517E+03  0.14125096244E+03  0.00000000000E+00 0.  1.
         22    1    4    4    0    0 -0.11276765505E+02  0.90058612419E+01  0.27971629486E+03  0.28008833712E+03  0.00000000000E+00 0.  1.
         22    1    4    4    0    0 -0.23065809510E+02 -0.17898699410E+01  0.29726151168E+03  0.29816042918E+03  0.00000000000E+00 0.  1.
<mgrwt>
<rscale>  0 0.90383723E+02</rscale>
<asrwt>0</asrwt>
<pdfrwt beam="1">  1        1 0.11025384E+00 0.90383723E+02</pdfrwt>
<pdfrwt beam="2">  1       -1 0.43842974E-03 0.90383723E+02</pdfrwt>
<totfact> 0.14544474E+05</totfact>
</mgrwt>
</event>
<event>
 7    1  0.3345055E-009  0.7525775E+02  0.7818608E-02  0.1343075E+00
         -1   -1    0    0    0  501 -0.00000000000E+00  0.00000000000E+00  0.27179459587E+01  0.27179506316E+01  0.50400000000E-02 0.  1.
          1   -1    0    0  501    0  0.00000000000E+00 -0.00000000000E+00 -0.52095621676E+03  0.52095621678E+03  0.50400000000E-02 0. -1.
         23    2    1    2    0    0 -0.71054273576E-14 -0.44408920985E-15 -0.51823827080E+03  0.52367416741E+03  0.75257745752E+02 0.  0.
    9000005    2    3    3    0    0  0.32599197362E+02  0.30688465863E+01 -0.38127101180E+03  0.38284748129E+03  0.11510169419E+02 0.  0.
         22    1    3    3    0    0 -0.32599197362E+02 -0.30688465863E+01 -0.13696725900E+03  0.14082668613E+03  0.00000000000E+00 0.  1.
         22    1    4    4    0    0  0.85359788105E+01  0.26053926874E+01 -0.58095688003E+02  0.58777206210E+02  0.00000000000E+00 0. -1.
         22    1    4    4    0    0  0.24063218551E+02  0.46345389893E+00 -0.32317532380E+03  0.32407027508E+03  0.00000000000E+00 0. -1.
<mgrwt>
<rscale>  0 0.75257746E+02</rscale>
<asrwt>0</asrwt>
<pdfrwt beam="2">  1        1 0.80147032E-01 0.75257746E+02</pdfrwt>
<pdfrwt beam="1">  1       -1 0.41814631E-03 0.75257746E+02</pdfrwt>
<totfact> 0.23147001E+05</totfact>
</mgrwt>
</event>
<event>
 7    1  0.3345055E-009  0.9982608E+02  0.7818608E-02  0.1280662E+00
          1   -1    0    0  501    0  0.00000000000E+00  0.00000000000E+00  0.62031320698E+03  0.62031320700E+03  0.50400000000E-02 0. -1.
         -1   -1    0    0    0  501 -0.00000000000E+00 -0.00000000000E+00 -0.40162138696E+01  0.40162170320E+01  0.50400000000E-02 0.  1.
         23    2    1    2    0    0 -0.17763568394E-14  0.00000000000E+00  0.61629699311E+03  0.62432942403E+03  0.99826078736E+02 0.  0.
    9000005    2    3    3    0    0  0.97904287268E+01  0.44668328792E+02  0.42991233969E+03  0.43241707132E+03  0.82940739422E+01 0.  0.
         22    1    3    3    0    0 -0.97904287268E+01 -0.44668328792E+02  0.18638465342E+03  0.19191235271E+03  0.00000000000E+00 0.  1.
         22    1    4    4    0    0 -0.42446122150E+00  0.68916803224E+01  0.45988108705E+02  0.46503565102E+02  0.00000000000E+00 0. -1.
         22    1    4    4    0    0  0.10214889948E+02  0.37776648469E+02  0.38392423098E+03  0.38591350622E+03  0.00000000000E+00 0. -1.
<mgrwt>
<rscale>  0 0.99826079E+02</rscale>
<asrwt>0</asrwt>
<pdfrwt beam="1">  1        1 0.95432830E-01 0.99826079E+02</pdfrwt>
<pdfrwt beam="2">  1       -1 0.61787911E-03 0.99826079E+02</pdfrwt>
<totfact> 0.11147133E+05</totfact>
</mgrwt>
</event>
<event>
 7    1  0.3345055E-009  0.9255886E+02  0.7818608E-02  0.1296771E+00
          1   -1    0    0  501    0  0.00000000000E+00  0.00000000000E+00  0.14695101807E+03  0.14695101816E+03  0.50400000000E-02 0. -1.
         -1   -1    0    0    0  501 -0.00000000000E+00 -0.00000000000E+00 -0.14574827419E+02  0.14574828291E+02  0.50400000000E-02 0.  1.
         23    2    1    2    0    0  0.17763568394E-14  0.00000000000E+00  0.13237619065E+03  0.16152584645E+03  0.92558863538E+02 0.  0.
    9000005    2    3    3    0    0  0.94993749059E+01 -0.10881467328E+02  0.14290953544E+03  0.14364860373E+03  0.17724505830E+01 0.  0.
         22    1    3    3    0    0 -0.94993749059E+01  0.10881467328E+02 -0.10533344784E+02  0.17877242716E+02  0.00000000000E+00 0.  1.
         22    1    4    4    0    0  0.23051439151E+01 -0.35584510848E+01  0.47235602649E+02  0.47425503901E+02  0.00000000000E+00 0. -1.
         22    1    4    4    0    0  0.71942309908E+01 -0.73230162428E+01  0.95673932786E+02  0.96223099831E+02  0.00000000000E+00 0. -1.
<mgrwt>
<rscale>  0 0.92558864E+02</rscale>
<asrwt>0</asrwt>
<pdfrwt beam="1">  1        1 0.22607850E-01 0.92558864E+02</pdfrwt>
<pdfrwt beam="2">  1       -1 0.22422812E-02 0.92558864E+02</pdfrwt>
<totfact> 0.10725851E+05</totfact>
</mgrwt>
</event>
<event>
 7    1  0.3345055E-009  0.8566523E+02  0.7818608E-02  0.1313702E+00
         -1   -1    0    0    0  501 -0.00000000000E+00  0.00000000000E+00  0.18289655655E+03  0.18289655662E+03  0.50400000000E-02 0.  1.
          1   -1    0    0  501    0  0.00000000000E+00 -0.00000000000E+00 -0.10030985321E+02  0.10030986587E+02  0.50400000000E-02 0. -1.
         23    2    1    2    0    0  0.00000000000E+00  0.00000000000E+00  0.17286557123E+03  0.19292754321E+03  0.85665227550E+02 0.  0.
    9000005    2    3    3    0    0 -0.18356042151E+02 -0.22571372059E+02  0.17560932168E+02  0.34921397648E+02  0.80440384785E+01 0.  0.
         22    1    3    3    0    0  0.18356042151E+02  0.22571372059E+02  0.15530463906E+03  0.15800614556E+03  0.00000000000E+00 0.  1.
         22    1    4    4    0    0 -0.51350320462E+01 -0.18614169942E+01  0.46069926398E+01  0.71454746886E+01  0.00000000000E+00 0.  1.
         22    1    4    4    0    0 -0.13221010105E+02 -0.20709955065E+02  0.12953939528E+02  0.27775922960E+02  0.00000000000E+00 0.  1.
<mgrwt>
<rscale>  0 0.85665228E+02</rscale>
<asrwt>0</asrwt>
<pdfrwt beam="2">  1        1 0.15432287E-02 0.85665228E+02</pdfrwt>
<pdfrwt beam="1">  1       -1 0.28137931E-01 0.85665228E+02</pdfrwt>
<totfact> 0.83670911E+04</totfact>
</mgrwt>
</event>
<event>
 7    1  0.3345055E-009  0.9146081E+02  0.7818608E-02  0.1299352E+00
          1   -1    0    0  501    0  0.00000000000E+00  0.00000000000E+00  0.31595697252E+01  0.31595737450E+01  0.50400000000E-02 0. -1.
         -1   -1    0    0    0  501 -0.00000000000E+00 -0.00000000000E+00 -0.66188404914E+03  0.66188404916E+03  0.50400000000E-02 0.  1.
         23    2    1    2    0    0  0.17763568394E-14  0.17763568394E-14 -0.65872447942E+03  0.66504362291E+03  0.91460814479E+02 0.  0.
    9000005    2    3    3    0    0 -0.98300066934E+01 -0.15213919856E+02 -0.63441104142E+03  0.63472472358E+03  0.83673688906E+01 0.  0.
         22    1    3    3    0    0  0.98300066934E+01  0.15213919856E+02 -0.24313437998E+02  0.30318899325E+02  0.00000000000E+00 0. -1.
         22    1    4    4    0    0 -0.44673277417E+01 -0.58420967356E+01 -0.13763285475E+03  0.13782920524E+03  0.00000000000E+00 0.  1.
         22    1    4    4    0    0 -0.53626789517E+01 -0.93718231208E+01 -0.49677818667E+03  0.49689551834E+03  0.00000000000E+00 0.  1.
<mgrwt>
<rscale>  0 0.91460814E+02</rscale>
<asrwt>0</asrwt>
<pdfrwt beam="1">  1        1 0.48608849E-03 0.91460814E+02</pdfrwt>
<pdfrwt beam="2">  1       -1 0.10182821E+00 0.91460814E+02</pdfrwt>
<totfact> 0.38281656E+04</totfact>
</mgrwt>
</event>
<event>
 7    1  0.3345055E-009  0.9619349E+02  0.7818608E-02  0.1288510E+00
         -1   -1    0    0    0  501 -0.00000000000E+00  0.00000000000E+00  0.27179987765E+03  0.27179987770E+03  0.50400000000E-02 0.  1.
          1   -1    0    0  501    0  0.00000000000E+00 -0.00000000000E+00 -0.85110288429E+01  0.85110303351E+01  0.50400000000E-02 0. -1.
         23    2    1    2    0    0  0.00000000000E+00 -0.71054273576E-14  0.26328884881E+03  0.28031090803E+03  0.96193488633E+02 0.  0.
    9000005    2    3    3    0    0 -0.15838033657E+02  0.44267180180E+02  0.10502811693E+03  0.11521431265E+03  0.57450799051E+01 0.  0.
         22    1    3    3    0    0  0.15838033657E+02 -0.44267180180E+02  0.15826073188E+03  0.16509659538E+03  0.00000000000E+00 0.  1.
         22    1    4    4    0    0 -0.61247938900E+01  0.18924700697E+02  0.51278169390E+02  0.55000982288E+02  0.00000000000E+00 0. -1.
         22    1    4    4    0    0 -0.97132397674E+01  0.25342479483E+02  0.53749947539E+02  0.60213330364E+02  0.00000000000E+00 0. -1.
<mgrwt>
<rscale>  0 0.96193489E+02</rscale>
<asrwt>0</asrwt>
<pdfrwt beam="2">  1        1 0.13093893E-02 0.96193489E+02</pdfrwt>
<pdfrwt beam="1">  1       -1 0.41815362E-01 0.96193489E+02</pdfrwt>
<totfact> 0.54659464E+04</totfact>
</mgrwt>
</event>
<event>
 6    1  0.3345055E-009  0.1517488E+03  0.7818608E-02  0.1198340E+00
          1   -1    0    0  501    0  0.00000000000E+00  0.00000000000E+00  0.11202855981E+04  0.11202855981E+04  0.50400000000E-02 0. -1.
         -1   -1    0    0    0  501 -0.00000000000E+00 -0.00000000000E+00 -0.51387978067E+01  0.51388002782E+01  0.50400000000E-02 0.  1.
    9000005    2    1    2    0    0 -0.47200235343E+02  0.26349753683E+02  0.94997221613E+03  0.95162907340E+03  0.15116553296E+02 0.  0.
         22    1    1    2    0    0  0.47200235343E+02 -0.26349753683E+02  0.16517458419E+03  0.17379532502E+03  0.00000000000E+00 0.  1.
         22    1    3    3    0    0 -0.20229229967E+02  0.15472454809E+02  0.33336047458E+03  0.33433190786E+03  0.00000000000E+00 0.  1.
         22    1    3    3    0    0 -0.26971005375E+02  0.10877298875E+02  0.61661174155E+03  0.61729716553E+03  0.00000000000E+00 0.  1.
<mgrwt>
<rscale>  0 0.15174877E+03</rscale>
<asrwt>0</asrwt>
<pdfrwt beam="1">  1        1 0.17235174E+00 0.15174877E+03</pdfrwt>
<pdfrwt beam="2">  1       -1 0.79058398E-03 0.15174877E+03</pdfrwt>
<totfact> 0.33020561E+04</totfact>
</mgrwt>
</event>
<event>
 7    1  0.3345055E-009  0.8877810E+02  0.7818608E-02  0.1305838E+00
          1   -1    0    0  501    0  0.00000000000E+00  0.00000000000E+00  0.16278455227E+02  0.16278456007E+02  0.50400000000E-02 0. -1.
         -1   -1    0    0    0  501 -0.00000000000E+00 -0.00000000000E+00 -0.12104267051E+03  0.12104267061E+03  0.50400000000E-02 0.  1.
         23    2    1    2    0    0  0.35527136788E-14  0.00000000000E+00 -0.10476421528E+03  0.13732112662E+03  0.88778099848E+02 0.  0.
    9000005    2    3    3    0    0  0.24053082647E+02 -0.10090830893E+02  0.20196010084E+01  0.27397702936E+02  0.81350897385E+01 0.  0.
         22    1    3    3    0    0 -0.24053082647E+02  0.10090830893E+02 -0.10678381629E+03  0.10992342368E+03  0.00000000000E+00 0.  1.
         22    1    4    4    0    0  0.16197027637E+02 -0.55546264586E+01 -0.24282449509E+01  0.17294332971E+02  0.00000000000E+00 0. -1.
         22    1    4    4    0    0  0.78560550091E+01 -0.45362044340E+01  0.44478459593E+01  0.10103369965E+02  0.00000000000E+00 0. -1.
<mgrwt>
<rscale>  0 0.88778100E+02</rscale>
<asrwt>0</asrwt>
<pdfrwt beam="1">  1        1 0.25043779E-02 0.88778100E+02</pdfrwt>
<pdfrwt beam="2">  1       -1 0.18621949E-01 0.88778100E+02</pdfrwt>
<totfact> 0.83978017E+04</totfact>
</mgrwt>
</event>
<event>
 7    1  0.3345055E-009  0.9201865E+02  0.7818608E-02  0.1298036E+00
         -1   -1    0    0    0  501 -0.00000000000E+00  0.00000000000E+00  0.29062864627E+02  0.29062865064E+02  0.50400000000E-02 0.  1.
          1   -1    0    0  501    0  0.00000000000E+00 -0.00000000000E+00 -0.72837214729E+02  0.72837214904E+02  0.50400000000E-02 0. -1.
         23    2    1    2    0    0  0.00000000000E+00  0.00000000000E+00 -0.43774350103E+02  0.10190007997E+03  0.92018653383E+02 0.  0.
    9000005    2    3    3    0    0  0.19076533657E+02 -0.17356207946E+02 -0.63499049740E+02  0.69431389411E+02  0.11110194738E+02 0.  0.
         22    1    3    3    0    0 -0.19076533657E+02  0.17356207946E+02  0.19724699637E+02  0.32468690556E+02  0.00000000000E+00 0. -1.
         22    1    4    4    0    0  0.84976367104E+01 -0.45208529524E+01 -0.36257141146E+02  0.37513040735E+02  0.00000000000E+00 0.  1.
         22    1    4    4    0    0  0.10578896947E+02 -0.12835354994E+02 -0.27241908593E+02  0.31918348677E+02  0.00000000000E+00 0.  1.
<mgrwt>
<rscale>  0 0.92018653E+02</rscale>
<asrwt>0</asrwt>
<pdfrwt beam="2">  1        1 0.11205725E-01 0.92018653E+02</pdfrwt>
<pdfrwt beam="1">  1       -1 0.44712100E-02 0.92018653E+02</pdfrwt>
<totfact> 0.96790672E+04</totfact>
</mgrwt>
</event>
<event>
 7    1  0.3345055E-009  0.8926364E+02  0.7818608E-02  0.1304645E+00
          1   -1    0    0  501    0  0.00000000000E+00  0.00000000000E+00  0.29434792292E+03  0.29434792296E+03  0.50400000000E-02 0. -1.
         -1   -1    0    0    0  501 -0.00000000000E+00 -0.00000000000E+00 -0.67674981146E+01  0.67674999914E+01  0.50400000000E-02 0.  1.
         23    2    1    2    0    0  0.00000000000E+00  0.00000000000E+00  0.28758042480E+03  0.30111542295E+03  0.89263638789E+02 0.  0.
    9000005    2    3    3    0    0  0.25767763308E+02 -0.12385393228E+02  0.25884329588E+03  0.26057904213E+03  0.91765889383E+01 0.  0.
         22    1    3    3    0    0 -0.25767763308E+02  0.12385393228E+02  0.28737128923E+02  0.40536380821E+02  0.00000000000E+00 0.  1.
         22    1    4    4    0    0  0.98210951540E+01 -0.75083364186E+01  0.78634581214E+02  0.79600417012E+02  0.00000000000E+00 0.  1.
         22    1    4    4    0    0  0.15946668154E+02 -0.48770568097E+01  0.18020871467E+03  0.18097862512E+03  0.00000000000E+00 0.  1.
<mgrwt>
<rscale>  0 0.89263639E+02</rscale>
<asrwt>0</asrwt>
<pdfrwt beam="1">  1        1 0.45284295E-01 0.89263639E+02</pdfrwt>
<pdfrwt beam="2">  1       -1 0.10411537E-02 0.89263639E+02</pdfrwt>
<totfact> 0.13506756E+05</totfact>
</mgrwt>
</event>
<event>
 7    1  0.3345055E-009  0.8496887E+02  0.7818608E-02  0.1315514E+00
         -1   -1    0    0    0  501 -0.00000000000E+00  0.00000000000E+00  0.18726360150E+03  0.18726360157E+03  0.50400000000E-02 0.  1.
          1   -1    0    0  501    0  0.00000000000E+00 -0.00000000000E+00 -0.96384296279E+01  0.96384309456E+01  0.50400000000E-02 0. -1.
         23    2    1    2    0    0  0.00000000000E+00 -0.35527136788E-14  0.17762517187E+03  0.19690203252E+03  0.84968869155E+02 0.  0.
    9000005    2    3    3    0    0 -0.33370044110E+02  0.25918797322E+02  0.82970834564E+02  0.93244965848E+02  0.50120224602E+01 0.  0.
         22    1    3    3    0    0  0.33370044110E+02 -0.25918797322E+02  0.94654337310E+02  0.10365706667E+03  0.00000000000E+00 0.  1.
         22    1    4    4    0    0 -0.30758659351E+02  0.25361130598E+02  0.78309164840E+02  0.87872677029E+02  0.00000000000E+00 0. -1.
         22    1    4    4    0    0 -0.26113847596E+01  0.55766672382E+00  0.46616697243E+01  0.53722888191E+01  0.00000000000E+00 0. -1.
<mgrwt>
<rscale>  0 0.84968869E+02</rscale>
<asrwt>0</asrwt>
<pdfrwt beam="2">  1        1 0.14828356E-02 0.84968869E+02</pdfrwt>
<pdfrwt beam="1">  1       -1 0.28809781E-01 0.84968869E+02</pdfrwt>
<totfact> 0.84919931E+04</totfact>
</mgrwt>
</event>
<event>
 7    1  0.3345055E-009  0.9354951E+02  0.7818608E-02  0.1294477E+00
         -1   -1    0    0    0  501 -0.00000000000E+00  0.00000000000E+00  0.23224770590E+03  0.23224770595E+03  0.50400000000E-02 0.  1.
          1   -1    0    0  501    0  0.00000000000E+00 -0.00000000000E+00 -0.94204477912E+01  0.94204491394E+01  0.50400000000E-02 0. -1.
         23    2    1    2    0    0  0.71054273576E-14  0.00000000000E+00  0.22282725811E+03  0.24166815509E+03  0.93549506841E+02 0.  0.
    9000005    2    3    3    0    0 -0.39466671113E+02  0.20603401561E+02  0.83043859667E+02  0.94966018897E+02  0.11838236026E+02 0.  0.
         22    1    3    3    0    0  0.39466671113E+02 -0.20603401561E+02  0.13978339844E+03  0.14670213619E+03  0.00000000000E+00 0.  1.
         22    1    4    4    0    0 -0.62886371344E+01  0.14040207080E+01  0.55273728998E+01  0.84894100108E+01  0.00000000000E+00 0. -1.
         22    1    4    4    0    0 -0.33178033979E+02  0.19199380853E+02  0.77516486767E+02  0.86476608887E+02  0.00000000000E+00 0. -1.
<mgrwt>
<rscale>  0 0.93549507E+02</rscale>
<asrwt>0</asrwt>
<pdfrwt beam="2">  1        1 0.14492998E-02 0.93549507E+02</pdfrwt>
<pdfrwt beam="1">  1       -1 0.35730415E-01 0.93549507E+02</pdfrwt>
<totfact> 0.62046053E+04</totfact>
</mgrwt>
</event>
<event>
 7    1  0.3345055E-009  0.1096648E+03  0.7818608E-02  0.1261192E+00
         -1   -1    0    0    0  501 -0.00000000000E+00  0.00000000000E+00  0.28631168370E+02  0.28631168813E+02  0.50400000000E-02 0.  1.
          1   -1    0    0  501    0  0.00000000000E+00 -0.00000000000E+00 -0.10501120978E+03  0.10501120990E+03  0.50400000000E-02 0. -1.
         23    2    1    2    0    0  0.00000000000E+00  0.00000000000E+00 -0.76380041411E+02  0.13364237872E+03  0.10966482874E+03 0.  0.
    9000005    2    3    3    0    0 -0.18700440470E+02  0.13103850420E+02 -0.98557501031E+02  0.10181067935E+03  0.11419984668E+02 0.  0.
         22    1    3    3    0    0  0.18700440470E+02 -0.13103850420E+02  0.22177459619E+02  0.31831699369E+02  0.00000000000E+00 0.  1.
         22    1    4    4    0    0 -0.14742107631E+02  0.54314571526E+01 -0.77043727324E+02  0.78629297238E+02  0.00000000000E+00 0.  1.
         22    1    4    4    0    0 -0.39583328389E+01  0.76723932671E+01 -0.21513773707E+02  0.23181382107E+02  0.00000000000E+00 0.  1.
<mgrwt>
<rscale>  0 0.10966483E+03</rscale>
<asrwt>0</asrwt>
<pdfrwt beam="2">  1        1 0.16155571E-01 0.10966483E+03</pdfrwt>
<pdfrwt beam="1">  1       -1 0.44047952E-02 0.10966483E+03</pdfrwt>
<totfact> 0.63307439E+04</totfact>
</mgrwt>
</event>
<event>
 7    1  0.3345055E-009  0.8769677E+02  0.7818608E-02  0.1308527E+00
         -1   -1    0    0    0  501 -0.00000000000E+00  0.00000000000E+00  0.17558215019E+02  0.17558215742E+02  0.50400000000E-02 0.  1.
          1   -1    0    0  501    0  0.00000000000E+00 -0.00000000000E+00 -0.10950321629E+03  0.10950321641E+03  0.50400000000E-02 0. -1.
         23    2    1    2    0    0  0.00000000000E+00  0.00000000000E+00 -0.91945001273E+02  0.12706143215E+03  0.87696774632E+02 0.  0.
    9000005    2    3    3    0    0 -0.30652569468E+02  0.28725159039E+02 -0.64152482613E+02  0.76691412592E+02  0.11475901633E+01 0.  0.
         22    1    3    3    0    0  0.30652569468E+02 -0.28725159039E+02 -0.27792518660E+02  0.50370019558E+02  0.00000000000E+00 0.  1.
         22    1    4    4    0    0 -0.95527449543E+01  0.94902524580E+01 -0.19898928884E+02  0.24026801672E+02  0.00000000000E+00 0. -1.
         22    1    4    4    0    0 -0.21099824513E+02  0.19234906581E+02 -0.44253553729E+02  0.52664610920E+02  0.00000000000E+00 0. -1.
<mgrwt>
<rscale>  0 0.87696775E+02</rscale>
<asrwt>0</asrwt>
<pdfrwt beam="2">  1        1 0.16846648E-01 0.87696775E+02</pdfrwt>
<pdfrwt beam="1">  1       -1 0.27012640E-02 0.87696775E+02</pdfrwt>
<totfact> 0.11785381E+05</totfact>
</mgrwt>
</event>
<event>
 7    1  0.3345055E-009  0.9160180E+02  0.7818608E-02  0.1299018E+00
          1   -1    0    0  501    0  0.00000000000E+00  0.00000000000E+00  0.10551585948E+03  0.10551585960E+03  0.50400000000E-02 0. -1.
         -1   -1    0    0    0  501 -0.00000000000E+00 -0.00000000000E+00 -0.19880635070E+02  0.19880635709E+02  0.50400000000E-02 0.  1.
         23    2    1    2    0    0 -0.35527136788E-14 -0.35527136788E-14  0.85635224406E+02  0.12539649531E+03  0.91601797886E+02 0.  0.
    9000005    2    3    3    0    0 -0.24975424516E+02 -0.17204150634E+02 -0.14110995375E+01  0.33218313826E+02  0.13480005296E+02 0.  0.
         22    1    3    3    0    0  0.24975424516E+02  0.17204150634E+02  0.87046323943E+02  0.92178181479E+02  0.00000000000E+00 0. -1.
         22    1    4    4    0    0 -0.18221998303E+02 -0.18393107822E+02 -0.33129649583E+01  0.26102171831E+02  0.00000000000E+00 0. -1.
         22    1    4    4    0    0 -0.67534262137E+01  0.11889571882E+01  0.19018654208E+01  0.71161419953E+01  0.00000000000E+00 0. -1.
<mgrwt>
<rscale>  0 0.91601798E+02</rscale>
<asrwt>0</asrwt>
<pdfrwt beam="1">  1        1 0.16233209E-01 0.91601798E+02</pdfrwt>
<pdfrwt beam="2">  1       -1 0.30585593E-02 0.91601798E+02</pdfrwt>
<totfact> 0.10406730E+05</totfact>
</mgrwt>
</event>
<event>
 7    1  0.3345055E-009  0.9232124E+02  0.7818608E-02  0.1297326E+00
          1   -1    0    0  501    0  0.00000000000E+00  0.00000000000E+00  0.37327232872E+02  0.37327233212E+02  0.50400000000E-02 0. -1.
         -1   -1    0    0    0  501 -0.00000000000E+00 -0.00000000000E+00 -0.57084406361E+02  0.57084406583E+02  0.50400000000E-02 0.  1.
         23    2    1    2    0    0  0.00000000000E+00  0.88817841970E-15 -0.19757173489E+02  0.94411639796E+02  0.92321242543E+02 0.  0.
    9000005    2    3    3    0    0 -0.12758815024E+02  0.74299396525E+01 -0.53485206990E+02  0.57593551742E+02  0.15438862377E+02 0.  0.
         22    1    3    3    0    0  0.12758815024E+02 -0.74299396525E+01  0.33728033501E+02  0.36818088053E+02  0.00000000000E+00 0. -1.
         22    1    4    4    0    0 -0.32631934972E+01 -0.28252577354E+01 -0.29652928541E+02  0.29965424811E+02  0.00000000000E+00 0.  1.
         22    1    4    4    0    0 -0.94956215269E+01  0.10255197388E+02 -0.23832278449E+02  0.27628126931E+02  0.00000000000E+00 0.  1.
<mgrwt>
<rscale>  0 0.92321243E+02</rscale>
<asrwt>0</asrwt>
<pdfrwt beam="1">  1        1 0.57426513E-02 0.92321243E+02</pdfrwt>
<pdfrwt beam="2">  1       -1 0.87822164E-02 0.92321243E+02</pdfrwt>
<totfact> 0.86588083E+04</totfact>
</mgrwt>
</event>
<event>
 7    1  0.3345055E-009  0.9216537E+02  0.7818608E-02  0.1297691E+00
          1   -1    0    0  501    0  0.00000000000E+00  0.00000000000E+00  0.23637390407E+02  0.23637390945E+02  0.50400000000E-02 0. -1.
         -1   -1    0    0    0  501 -0.00000000000E+00 -0.00000000000E+00 -0.89841299180E+02  0.89841299321E+02  0.50400000000E-02 0.  1.
         23    2    1    2    0    0 -0.77715611724E-15  0.00000000000E+00 -0.66203908773E+02  0.11347869027E+03  0.92165370979E+02 0.  0.
    9000005    2    3    3    0    0 -0.58852445740E+00  0.33616922391E+02  0.25686707866E+01  0.36927324953E+02  0.15052754781E+02 0.  0.
         22    1    3    3    0    0  0.58852445740E+00 -0.33616922391E+02 -0.68772579559E+02  0.76551365313E+02  0.00000000000E+00 0.  1.
         22    1    4    4    0    0  0.56971734226E+01  0.12925531961E+02 -0.33291470495E+01  0.14512421630E+02  0.00000000000E+00 0. -1.
         22    1    4    4    0    0 -0.62856978800E+01  0.20691390430E+02  0.58978178361E+01  0.22414903323E+02  0.00000000000E+00 0. -1.
<mgrwt>
<rscale>  0 0.92165371E+02</rscale>
<asrwt>0</asrwt>
<pdfrwt beam="1">  1        1 0.36365217E-02 0.92165371E+02</pdfrwt>
<pdfrwt beam="2">  1       -1 0.13821738E-01 0.92165371E+02</pdfrwt>
<totfact> 0.80699216E+04</totfact>
</mgrwt>
</event>
<event>
 7    1  0.3345055E-009  0.9616031E+02  0.7818608E-02  0.1288584E+00
         -1   -1    0    0    0  501 -0.00000000000E+00  0.00000000000E+00  0.27817000388E+03  0.27817000393E+03  0.50400000000E-02 0. -1.
          1   -1    0    0  501    0  0.00000000000E+00 -0.00000000000E+00 -0.83103892656E+01  0.83103907939E+01  0.50400000000E-02 0.  1.
         23    2    1    2    0    0  0.00000000000E+00  0.00000000000E+00  0.26985961461E+03  0.28648039472E+03  0.96160308646E+02 0.  0.
    9000005    2    3    3    0    0  0.46569549413E+02 -0.45566601139E+01  0.15175600259E+03  0.15944516631E+03  0.14261509508E+02 0.  0.
         22    1    3    3    0    0 -0.46569549413E+02  0.45566601139E+01  0.11810361202E+03  0.12703522841E+03  0.00000000000E+00 0.  1.
         22    1    4    4    0    0  0.44745865847E+02 -0.10114987618E+01  0.13519405247E+03  0.14241013820E+03  0.00000000000E+00 0.  1.
         22    1    4    4    0    0  0.18236835664E+01 -0.35451613521E+01  0.16561950126E+02  0.17035028111E+02  0.00000000000E+00 0.  1.
<mgrwt>
<rscale>  0 0.96160309E+02</rscale>
<asrwt>0</asrwt>
<pdfrwt beam="2">  1        1 0.12785216E-02 0.96160309E+02</pdfrwt>
<pdfrwt beam="1">  1       -1 0.42795383E-01 0.96160309E+02</pdfrwt>
<totfact> 0.54244589E+04</totfact>
</mgrwt>
</event>
<event>
 7    1  0.3345055E-009  0.9264281E+02  0.7818608E-02  0.1296575E+00
         -1   -1    0    0    0  501 -0.00000000000E+00  0.00000000000E+00  0.71484204627E+01  0.71484222395E+01  0.50400000000E-02 0.  1.
          1   -1    0    0  501    0  0.00000000000E+00 -0.00000000000E+00 -0.30016032886E+03  0.30016032890E+03  0.50400000000E-02 0. -1.
         23    2    1    2    0    0  0.00000000000E+00  0.00000000000E+00 -0.29301190840E+03  0.30730875114E+03  0.92642809034E+02 0.  0.
    9000005    2    3    3    0    0  0.33481898633E+02 -0.15160252788E+02 -0.23788507485E+03  0.24105289421E+03  0.12896440228E+02 0.  0.
         22    1    3    3    0    0 -0.33481898633E+02  0.15160252788E+02 -0.55126833547E+02  0.66255856931E+02  0.00000000000E+00 0.  1.
         22    1    4    4    0    0  0.24828171392E+02 -0.64550232001E+01 -0.18449391511E+03  0.18626891885E+03  0.00000000000E+00 0.  1.
         22    1    4    4    0    0  0.86537272411E+01 -0.87052295882E+01 -0.53391159745E+02  0.54783975361E+02  0.00000000000E+00 0.  1.
<mgrwt>
<rscale>  0 0.92642809E+02</rscale>
<asrwt>0</asrwt>
<pdfrwt beam="2">  1        1 0.46178503E-01 0.92642809E+02</pdfrwt>
<pdfrwt beam="1">  1       -1 0.10997574E-02 0.92642809E+02</pdfrwt>
<totfact> 0.12279578E+05</totfact>
</mgrwt>
</event>
<event>
 7    1  0.3345055E-009  0.9167290E+02  0.7818608E-02  0.1298850E+00
          1   -1    0    0  501    0  0.00000000000E+00  0.00000000000E+00  0.58729349417E+02  0.58729349633E+02  0.50400000000E-02 0. -1.
         -1   -1    0    0    0  501 -0.00000000000E+00 -0.00000000000E+00 -0.35773934804E+02  0.35773935159E+02  0.50400000000E-02 0.  1.
         23    2    1    2    0    0  0.00000000000E+00  0.44408920985E-15  0.22955414613E+02  0.94503284793E+02  0.91672895539E+02 0.  0.
    9000005    2    3    3    0    0 -0.17648012887E+02  0.35094409217E+01 -0.31418862530E+02  0.37229114792E+02  0.86656523705E+01 0.  0.
         22    1    3    3    0    0  0.17648012887E+02 -0.35094409217E+01  0.54374277143E+02  0.57274170001E+02  0.00000000000E+00 0. -1.
         22    1    4    4    0    0 -0.18207336038E+02  0.43070961191E+01 -0.28012470058E+02  0.33686149102E+02  0.00000000000E+00 0. -1.
         22    1    4    4    0    0  0.55932315062E+00 -0.79765519739E+00 -0.34063924727E+01  0.35429656898E+01  0.00000000000E+00 0. -1.
<mgrwt>
<rscale>  0 0.91672896E+02</rscale>
<asrwt>0</asrwt>
<pdfrwt beam="1">  1        1 0.90352845E-02 0.91672896E+02</pdfrwt>
<pdfrwt beam="2">  1       -1 0.55036823E-02 0.91672896E+02</pdfrwt>
<totfact> 0.94621775E+04</totfact>
</mgrwt>
</event>
<event>
 7    1  0.3345055E-009  0.1008969E+03  0.7818608E-02  0.1278421E+00
         -1   -1    0    0    0  501 -0.00000000000E+00  0.00000000000E+00  0.93403288831E+02  0.93403288967E+02  0.50400000000E-02 0.  1.
          1   -1    0    0  501    0  0.00000000000E+00 -0.00000000000E+00 -0.27247906539E+02  0.27247907005E+02  0.50400000000E-02 0. -1.
         23    2    1    2    0    0 -0.35527136788E-14  0.00000000000E+00  0.66155382292E+02  0.12065119597E+03  0.10089686062E+03 0.  0.
    9000005    2    3    3    0    0  0.18045725063E+02  0.25982338500E+02  0.79631330090E+02  0.86266151606E+02  0.99985035854E+01 0.  0.
         22    1    3    3    0    0 -0.18045725063E+02 -0.25982338500E+02 -0.13475947799E+02  0.34385044366E+02  0.00000000000E+00 0. -1.
         22    1    4    4    0    0  0.11737761908E+01  0.76887378030E+01  0.26074244857E+02  0.27209569721E+02  0.00000000000E+00 0.  1.
         22    1    4    4    0    0  0.16871948873E+02  0.18293600697E+02  0.53557085234E+02  0.59056581885E+02  0.00000000000E+00 0.  1.
<mgrwt>
<rscale>  0 0.10089686E+03</rscale>
<asrwt>0</asrwt>
<pdfrwt beam="2">  1        1 0.41919857E-02 0.10089686E+03</pdfrwt>
<pdfrwt beam="1">  1       -1 0.14369737E-01 0.10089686E+03</pdfrwt>
<totfact> 0.63471757E+04</totfact>
</mgrwt>
</event>
<event>
 7    1  0.3345055E-009  0.9244857E+02  0.7818608E-02  0.1297028E+00
          1   -1    0    0  501    0  0.00000000000E+00  0.00000000000E+00  0.12477947594E+03  0.12477947604E+03  0.50400000000E-02 0.  1.
         -1   -1    0    0    0  501 -0.00000000000E+00 -0.00000000000E+00 -0.17123685414E+02  0.17123686156E+02  0.50400000000E-02 0. -1.
         23    2    1    2    0    0  0.00000000000E+00  0.00000000000E+00  0.10765579052E+03  0.14190316219E+03  0.92448570610E+02 0.  0.
    9000005    2    3    3    0    0  0.20292205082E+02  0.25534947048E+02  0.37255757071E+01  0.32975219685E+02  0.31109630516E+01 0.  0.
         22    1    3    3    0    0 -0.20292205082E+02 -0.25534947048E+02  0.10393021481E+03  0.10892794251E+03  0.00000000000E+00 0.  1.
         22    1    4    4    0    0  0.69728754160E+01  0.68605016881E+01  0.19013047118E+01  0.99650606916E+01  0.00000000000E+00 0.  1.
         22    1    4    4    0    0  0.13319329666E+02  0.18674445360E+02  0.18242709953E+01  0.23010158994E+02  0.00000000000E+00 0.  1.
<mgrwt>
<rscale>  0 0.92448571E+02</rscale>
<asrwt>0</asrwt>
<pdfrwt beam="1">  1        1 0.19196842E-01 0.92448571E+02</pdfrwt>
<pdfrwt beam="2">  1       -1 0.26344133E-02 0.92448571E+02</pdfrwt>
<totfact> 0.10447499E+05</totfact>
</mgrwt>
</event>
<event>
 7    1  0.3345055E-009  0.9187469E+02  0.7818608E-02  0.1298374E+00
          1   -1    0    0  501    0  0.00000000000E+00  0.00000000000E+00  0.34546769091E+02  0.34546769458E+02  0.50400000000E-02 0. -1.
         -1   -1    0    0    0  501 -0.00000000000E+00 -0.00000000000E+00 -0.61083565006E+02  0.61083565214E+02  0.50400000000E-02 0.  1.
         23    2    1    2    0    0  0.88817841970E-15  0.00000000000E+00 -0.26536795915E+02  0.95630334672E+02  0.91874693861E+02 0.  0.
    9000005    2    3    3    0    0  0.68457068857E+01 -0.15884426891E+02 -0.56699388180E+02  0.60860222613E+02  0.13782864582E+02 0.  0.
         22    1    3    3    0    0 -0.68457068857E+01  0.15884426891E+02  0.30162592266E+02  0.34770112059E+02  0.00000000000E+00 0. -1.
         22    1    4    4    0    0  0.29695965880E+01 -0.17563473217E+02 -0.43668078172E+02  0.47161373459E+02  0.00000000000E+00 0. -1.
         22    1    4    4    0    0  0.38761102977E+01  0.16790463260E+01 -0.13031310009E+02  0.13698849154E+02  0.00000000000E+00 0. -1.
<mgrwt>
<rscale>  0 0.91874694E+02</rscale>
<asrwt>0</asrwt>
<pdfrwt beam="1">  1        1 0.53148876E-02 0.91874694E+02</pdfrwt>
<pdfrwt beam="2">  1       -1 0.93974716E-02 0.91874694E+02</pdfrwt>
<totfact> 0.86737109E+04</totfact>
</mgrwt>
</event>
<event>
 7    1  0.3345055E-009  0.7883058E+02  0.7818608E-02  0.1332403E+00
         -1   -1    0    0    0  501 -0.00000000000E+00  0.00000000000E+00  0.19948860532E+01  0.19948924199E+01  0.50400000000E-02 0.  1.
          1   -1    0    0  501    0  0.00000000000E+00 -0.00000000000E+00 -0.77877258190E+03  0.77877258191E+03  0.50400000000E-02 0. -1.
         23    2    1    2    0    0  0.44408920985E-15  0.00000000000E+00 -0.77677769584E+03  0.78076747433E+03  0.78830579195E+02 0.  0.
    9000005    2    3    3    0    0 -0.37938941861E+01  0.29924254802E+02 -0.63793108490E+03  0.63868216183E+03  0.69985783878E+01 0.  0.
         22    1    3    3    0    0  0.37938941861E+01 -0.29924254802E+02 -0.13884661094E+03  0.14208531250E+03  0.00000000000E+00 0.  1.
         22    1    4    4    0    0 -0.37827820303E+01  0.20191981272E+02 -0.49064611632E+03  0.49107599921E+03  0.00000000000E+00 0.  1.
         22    1    4    4    0    0 -0.11112155793E-01  0.97322735297E+01 -0.14728496859E+03  0.14760616262E+03  0.00000000000E+00 0.  1.
<mgrwt>
<rscale>  0 0.78830579E+02</rscale>
<asrwt>0</asrwt>
<pdfrwt beam="2">  1        1 0.11981092E+00 0.78830579E+02</pdfrwt>
<pdfrwt beam="1">  1       -1 0.30690666E-03 0.78830579E+02</pdfrwt>
<totfact> 0.20746285E+05</totfact>
</mgrwt>
</event>
<event>
 7    1  0.3345055E-009  0.9203742E+02  0.7818608E-02  0.1297991E+00
          1   -1    0    0  501    0  0.00000000000E+00  0.00000000000E+00  0.38793512412E+02  0.38793512739E+02  0.50400000000E-02 0. -1.
         -1   -1    0    0    0  501 -0.00000000000E+00 -0.00000000000E+00 -0.54589585507E+02  0.54589585739E+02  0.50400000000E-02 0.  1.
         23    2    1    2    0    0  0.00000000000E+00  0.00000000000E+00 -0.15796073095E+02  0.93383098479E+02  0.92037422586E+02 0.  0.
    9000005    2    3    3    0    0 -0.38335067996E+01 -0.34885397803E+02  0.21953179600E+02  0.41839982223E+02  0.60790841081E+01 0.  0.
         22    1    3    3    0    0  0.38335067996E+01  0.34885397803E+02 -0.37749252695E+02  0.51543116255E+02  0.00000000000E+00 0.  1.
         22    1    4    4    0    0  0.36745178779E+00 -0.21893360870E+02  0.12262076707E+02  0.25096071330E+02  0.00000000000E+00 0. -1.
         22    1    4    4    0    0 -0.42009585874E+01 -0.12992036933E+02  0.96911028933E+01  0.16743910894E+02  0.00000000000E+00 0. -1.
<mgrwt>
<rscale>  0 0.92037423E+02</rscale>
<asrwt>0</asrwt>
<pdfrwt beam="1">  1        1 0.59682327E-02 0.92037423E+02</pdfrwt>
<pdfrwt beam="2">  1       -1 0.83983978E-02 0.92037423E+02</pdfrwt>
<totfact> 0.87870712E+04</totfact>
</mgrwt>
</event>
<event>
 7    1  0.3345055E-009  0.9256096E+02  0.7818608E-02  0.1296766E+00
          1   -1    0    0  501    0  0.00000000000E+00  0.00000000000E+00  0.23843863397E+03  0.23843863402E+03  0.50400000000E-02 0. -1.
         -1   -1    0    0    0  501 -0.00000000000E+00 -0.00000000000E+00 -0.89829517913E+01  0.89829532052E+01  0.50400000000E-02 0.  1.
         23    2    1    2    0    0 -0.71054273576E-14  0.00000000000E+00  0.22945568218E+03  0.24742158723E+03  0.92560962303E+02 0.  0.
    9000005    2    3    3    0    0 -0.36855725717E+02  0.26603396407E+02  0.11687617336E+03  0.12601223411E+03  0.12367620140E+02 0.  0.
         22    1    3    3    0    0  0.36855725717E+02 -0.26603396407E+02  0.11257950882E+03  0.12140935312E+03  0.00000000000E+00 0.  1.
         22    1    4    4    0    0 -0.82799829069E+01  0.50613162421E+01  0.40819231343E+02  0.41956938478E+02  0.00000000000E+00 0. -1.
         22    1    4    4    0    0 -0.28575742810E+02  0.21542080165E+02  0.76056942017E+02  0.84055295633E+02  0.00000000000E+00 0. -1.
<mgrwt>
<rscale>  0 0.92560962E+02</rscale>
<asrwt>0</asrwt>
<pdfrwt beam="1">  1        1 0.36682868E-01 0.92560962E+02</pdfrwt>
<pdfrwt beam="2">  1       -1 0.13819926E-02 0.92560962E+02</pdfrwt>
<totfact> 0.11768894E+05</totfact>
</mgrwt>
</event>
<event>
 7    1  0.3345055E-009  0.8992091E+02  0.7818608E-02  0.1303043E+00
         -1   -1    0    0    0  501 -0.00000000000E+00  0.00000000000E+00  0.21502229454E+01  0.21502288521E+01  0.50400000000E-02 0.  1.
          1   -1    0    0  501    0  0.00000000000E+00 -0.00000000000E+00 -0.94010700738E+03  0.94010700739E+03  0.50400000000E-02 0. -1.
         23    2    1    2    0    0  0.22204460493E-15  0.00000000000E+00 -0.93795678443E+03  0.94225723624E+03  0.89920908528E+02 0.  0.
    9000005    2    3    3    0    0  0.70710927121E+00  0.10885874215E+02 -0.92592560001E+03  0.92601680338E+03  0.70640730430E+01 0.  0.
         22    1    3    3    0    0 -0.70710927121E+00 -0.10885874215E+02 -0.12031184420E+02  0.16240432861E+02  0.00000000000E+00 0.  1.
         22    1    4    4    0    0 -0.22795880864E+01  0.92213225347E+01 -0.72304501812E+03  0.72310741079E+03  0.00000000000E+00 0. -1.
         22    1    4    4    0    0  0.29866973576E+01  0.16645516808E+01 -0.20288058189E+03  0.20290939259E+03  0.00000000000E+00 0. -1.
<mgrwt>
<rscale>  0 0.89920909E+02</rscale>
<asrwt>0</asrwt>
<pdfrwt beam="2">  1        1 0.14463152E+00 0.89920909E+02</pdfrwt>
<pdfrwt beam="1">  1       -1 0.33080474E-03 0.89920909E+02</pdfrwt>
<totfact> 0.14317307E+05</totfact>
</mgrwt>
</event>
<event>
 7    1  0.3345055E-009  0.9440477E+02  0.7818608E-02  0.1292522E+00
         -1   -1    0    0    0  501 -0.00000000000E+00  0.00000000000E+00  0.86394466755E+02  0.86394466902E+02  0.50400000000E-02 0.  1.
          1   -1    0    0  501    0  0.00000000000E+00 -0.00000000000E+00 -0.25789442879E+02  0.25789443371E+02  0.50400000000E-02 0. -1.
         23    2    1    2    0    0  0.00000000000E+00  0.17763568394E-14  0.60605023877E+02  0.11218391027E+03  0.94404771093E+02 0.  0.
    9000005    2    3    3    0    0  0.20891608906E+02  0.14362788143E+02  0.76996030030E+02  0.81994274822E+02  0.12325723399E+02 0.  0.
         22    1    3    3    0    0 -0.20891608906E+02 -0.14362788143E+02 -0.16391006153E+02  0.30189635451E+02  0.00000000000E+00 0. -1.
         22    1    4    4    0    0  0.30327458541E+01  0.44758730087E+01  0.33657421508E+02  0.34088898620E+02  0.00000000000E+00 0. -1.
         22    1    4    4    0    0  0.17858863052E+02  0.98869151348E+01  0.43338608522E+02  0.47905376202E+02  0.00000000000E+00 0. -1.
<mgrwt>
<rscale>  0 0.94404771E+02</rscale>
<asrwt>0</asrwt>
<pdfrwt beam="2">  1        1 0.39676067E-02 0.94404771E+02</pdfrwt>
<pdfrwt beam="1">  1       -1 0.13291456E-01 0.94404771E+02</pdfrwt>
<totfact> 0.76398191E+04</totfact>
</mgrwt>
</event>
<event>
 7    1  0.3345055E-009  0.9694546E+02  0.7818608E-02  0.1286854E+00
         -1   -1    0    0    0  501 -0.00000000000E+00  0.00000000000E+00  0.14989814985E+03  0.14989814994E+03  0.50400000000E-02 0.  1.
          1   -1    0    0  501    0  0.00000000000E+00 -0.00000000000E+00 -0.15674679241E+02  0.15674680051E+02  0.50400000000E-02 0. -1.
         23    2    1    2    0    0  0.00000000000E+00  0.00000000000E+00  0.13422347061E+03  0.16557282999E+03  0.96945458724E+02 0.  0.
    9000005    2    3    3    0    0  0.22999646180E+02  0.15835793047E+01  0.13932351330E+03  0.14196135221E+03  0.14508367076E+02 0.  0.
         22    1    3    3    0    0 -0.22999646180E+02 -0.15835793047E+01 -0.51000426817E+01  0.23611477784E+02  0.00000000000E+00 0. -1.
         22    1    4    4    0    0  0.15963491957E+01  0.36746098810E+01  0.46814172803E+02  0.46985294122E+02  0.00000000000E+00 0. -1.
         22    1    4    4    0    0  0.21403296984E+02 -0.20910305763E+01  0.92509340492E+02  0.94976058083E+02  0.00000000000E+00 0. -1.
<mgrwt>
<rscale>  0 0.96945459E+02</rscale>
<asrwt>0</asrwt>
<pdfrwt beam="2">  1        1 0.24114893E-02 0.96945459E+02</pdfrwt>
<pdfrwt beam="1">  1       -1 0.23061253E-01 0.96945459E+02</pdfrwt>
<totfact> 0.63767797E+04</totfact>
</mgrwt>
</event>
<event>
 7    1  0.3345055E-009  0.9264532E+02  0.7818608E-02  0.1296569E+00
         -1   -1    0    0    0  501 -0.00000000000E+00  0.00000000000E+00  0.10968603739E+02  0.10968604897E+02  0.50400000000E-02 0.  1.
          1   -1    0    0  501    0  0.00000000000E+00 -0.00000000000E+00 -0.19563005386E+03  0.19563005393E+03  0.50400000000E-02 0. -1.
         23    2    1    2    0    0  0.00000000000E+00  0.00000000000E+00 -0.18466145012E+03  0.20659865883E+03  0.92645316486E+02 0.  0.
    9000005    2    3    3    0    0  0.18946518383E+02 -0.12930438859E+02 -0.18147048734E+03  0.18343944789E+03  0.13868181464E+02 0.  0.
         22    1    3    3    0    0 -0.18946518383E+02  0.12930438859E+02 -0.31909627844E+01  0.23159210941E+02  0.00000000000E+00 0.  1.
         22    1    4    4    0    0  0.16700827799E+02 -0.13910658109E+02 -0.12217334470E+03  0.12409170082E+03  0.00000000000E+00 0.  1.
         22    1    4    4    0    0  0.22456905833E+01  0.98021925019E+00 -0.59297142640E+02  0.59347747061E+02  0.00000000000E+00 0.  1.
<mgrwt>
<rscale>  0 0.92645316E+02</rscale>
<asrwt>0</asrwt>
<pdfrwt beam="2">  1        1 0.30096929E-01 0.92645316E+02</pdfrwt>
<pdfrwt beam="1">  1       -1 0.16874777E-02 0.92645316E+02</pdfrwt>
<totfact> 0.11294520E+05</totfact>
</mgrwt>
</event>
<event>
 7    1  0.3345055E-009  0.9204897E+02  0.7818608E-02  0.1297964E+00
         -1   -1    0    0    0  501 -0.00000000000E+00  0.00000000000E+00  0.53722247584E+01  0.53722271225E+01  0.50400000000E-02 0.  1.
          1   -1    0    0  501    0  0.00000000000E+00 -0.00000000000E+00 -0.39429709907E+03  0.39429709911E+03  0.50400000000E-02 0. -1.
         23    2    1    2    0    0 -0.17763568394E-14  0.00000000000E+00 -0.38892487432E+03  0.39966932623E+03  0.92048967766E+02 0.  0.
    9000005    2    3    3    0    0 -0.12761814440E+02 -0.28791664518E+02 -0.33792751981E+03  0.33973140818E+03  0.15185427382E+02 0.  0.
         22    1    3    3    0    0  0.12761814440E+02  0.28791664518E+02 -0.50997354502E+02  0.59937918046E+02  0.00000000000E+00 0.  1.
         22    1    4    4    0    0  0.31128006973E+01 -0.70293023709E+01 -0.96521079573E+02  0.96826749516E+02  0.00000000000E+00 0.  1.
         22    1    4    4    0    0 -0.15874615137E+02 -0.21762362147E+02 -0.24140644024E+03  0.24290465867E+03  0.00000000000E+00 0.  1.
<mgrwt>
<rscale>  0 0.92048968E+02</rscale>
<asrwt>0</asrwt>
<pdfrwt beam="2">  1        1 0.60661070E-01 0.92048968E+02</pdfrwt>
<pdfrwt beam="1">  1       -1 0.82649661E-03 0.92048968E+02</pdfrwt>
<totfact> 0.13120983E+05</totfact>
</mgrwt>
</event>
<event>
 7    1  0.3345055E-009  0.8976437E+02  0.7818608E-02  0.1303423E+00
          1   -1    0    0  501    0  0.00000000000E+00  0.00000000000E+00  0.32228594065E+03  0.32228594069E+03  0.50400000000E-02 0. -1.
         -1   -1    0    0    0  501 -0.00000000000E+00 -0.00000000000E+00 -0.62503813867E+01  0.62503834187E+01  0.50400000000E-02 0.  1.
         23    2    1    2    0    0  0.00000000000E+00  0.00000000000E+00  0.31603555927E+03  0.32853632411E+03  0.89764366760E+02 0.  0.
    9000005    2    3    3    0    0  0.41027922917E+02  0.15241363488E+02  0.19380863168E+03  0.19870947231E+03  0.28423677770E+01 0.  0.
         22    1    3    3    0    0 -0.41027922917E+02 -0.15241363488E+02  0.12222692759E+03  0.12982685180E+03  0.00000000000E+00 0.  1.
         22    1    4    4    0    0  0.21002893889E+02  0.75556537708E+01  0.10517718925E+03  0.10751953587E+03  0.00000000000E+00 0.  1.
         22    1    4    4    0    0  0.20025029028E+02  0.76857097174E+01  0.88631442432E+02  0.91189936447E+02  0.00000000000E+00 0.  1.
<mgrwt>
<rscale>  0 0.89764367E+02</rscale>
<asrwt>0</asrwt>
<pdfrwt beam="1">  1        1 0.49582460E-01 0.89764367E+02</pdfrwt>
<pdfrwt beam="2">  1       -1 0.96159714E-03 0.89764367E+02</pdfrwt>
<totfact> 0.13536736E+05</totfact>
</mgrwt>
</event>
<event>
 7    1  0.3345055E-009  0.9555639E+02  0.7818608E-02  0.1289928E+00
         -1   -1    0    0    0  501 -0.00000000000E+00  0.00000000000E+00  0.13709696309E+02  0.13709697235E+02  0.50400000000E-02 0.  1.
          1   -1    0    0  501    0  0.00000000000E+00 -0.00000000000E+00 -0.16650667524E+03  0.16650667532E+03  0.50400000000E-02 0. -1.
         23    2    1    2    0    0  0.00000000000E+00  0.00000000000E+00 -0.15279697894E+03  0.18021637256E+03  0.95556392593E+02 0.  0.
    9000005    2    3    3    0    0  0.41624502874E+02 -0.25547284468E+00 -0.11996060686E+03  0.12719852804E+03  0.75002554528E+01 0.  0.
         22    1    3    3    0    0 -0.41624502874E+02  0.25547284468E+00 -0.32836372076E+02  0.53017844515E+02  0.00000000000E+00 0.  1.
         22    1    4    4    0    0  0.18797282751E+02  0.92428955701E+00 -0.65120234872E+02  0.67785228035E+02  0.00000000000E+00 0.  1.
         22    1    4    4    0    0  0.22827220123E+02 -0.11797624017E+01 -0.54840371987E+02  0.59413300006E+02  0.00000000000E+00 0.  1.
<mgrwt>
<rscale>  0 0.95556393E+02</rscale>
<asrwt>0</asrwt>
<pdfrwt beam="2">  1        1 0.25616410E-01 0.95556393E+02</pdfrwt>
<pdfrwt beam="1">  1       -1 0.21091842E-02 0.95556393E+02</pdfrwt>
<totfact> 0.10072234E+05</totfact>
</mgrwt>
</event>
<event>
 7    1  0.3345055E-009  0.8708499E+02  0.7818608E-02  0.1310068E+00
         -1   -1    0    0    0  501 -0.00000000000E+00  0.00000000000E+00  0.36393676741E+02  0.36393677090E+02  0.50400000000E-02 0.  1.
          1   -1    0    0  501    0  0.00000000000E+00 -0.00000000000E+00 -0.52095559904E+02  0.52095560148E+02  0.50400000000E-02 0. -1.
         23    2    1    2    0    0  0.00000000000E+00  0.00000000000E+00 -0.15701883164E+02  0.88489237238E+02  0.87084992806E+02 0.  0.
    9000005    2    3    3    0    0 -0.14427023188E+02 -0.11551366093E+02  0.31450157594E+02  0.37844513877E+02  0.10075800774E+02 0.  0.
         22    1    3    3    0    0  0.14427023188E+02  0.11551366093E+02 -0.47152040757E+02  0.50644723361E+02  0.00000000000E+00 0. -1.
         22    1    4    4    0    0 -0.92966311324E+01 -0.11931180622E+02  0.18412254061E+02  0.23828376383E+02  0.00000000000E+00 0. -1.
         22    1    4    4    0    0 -0.51303920558E+01  0.37981452864E+00  0.13037903533E+02  0.14016137494E+02  0.00000000000E+00 0. -1.
<mgrwt>
<rscale>  0 0.87084993E+02</rscale>
<asrwt>0</asrwt>
<pdfrwt beam="2">  1        1 0.80147016E-02 0.87084993E+02</pdfrwt>
<pdfrwt beam="1">  1       -1 0.55990272E-02 0.87084993E+02</pdfrwt>
<totfact> 0.10717668E+05</totfact>
</mgrwt>
</event>
<event>
 7    1  0.3345055E-009  0.8927470E+02  0.7818608E-02  0.1304618E+00
         -1   -1    0    0    0  501 -0.00000000000E+00  0.00000000000E+00  0.88604582506E+02  0.88604582649E+02  0.50400000000E-02 0.  1.
          1   -1    0    0  501    0  0.00000000000E+00 -0.00000000000E+00 -0.22487469009E+02  0.22487469573E+02  0.50400000000E-02 0. -1.
         23    2    1    2    0    0  0.00000000000E+00 -0.44408920985E-15  0.66117113497E+02  0.11109205222E+03  0.89274696134E+02 0.  0.
    9000005    2    3    3    0    0  0.28723346446E+02  0.22371198904E+01  0.74980884564E+02  0.80949030245E+02  0.10028814039E+02 0.  0.
         22    1    3    3    0    0 -0.28723346446E+02 -0.22371198904E+01 -0.88637710669E+01  0.30143021978E+02  0.00000000000E+00 0. -1.
         22    1    4    4    0    0  0.14583888099E+02 -0.13747477166E+01  0.26025627289E+02  0.29864912508E+02  0.00000000000E+00 0. -1.
         22    1    4    4    0    0  0.14139458347E+02  0.36118676070E+01  0.48955257275E+02  0.51084117736E+02  0.00000000000E+00 0. -1.
<mgrwt>
<rscale>  0 0.89274696E+02</rscale>
<asrwt>0</asrwt>
<pdfrwt beam="2">  1        1 0.34596106E-02 0.89274696E+02</pdfrwt>
<pdfrwt beam="1">  1       -1 0.13631474E-01 0.89274696E+02</pdfrwt>
<totfact> 0.87791690E+04</totfact>
</mgrwt>
</event>
<event>
 7    1  0.3345055E-009  0.9051902E+02  0.7818608E-02  0.1301600E+00
          1   -1    0    0  501    0  0.00000000000E+00  0.00000000000E+00  0.38712840406E+02  0.38712840734E+02  0.50400000000E-02 0. -1.
         -1   -1    0    0    0  501 -0.00000000000E+00 -0.00000000000E+00 -0.52913272760E+02  0.52913273000E+02  0.50400000000E-02 0.  1.
         23    2    1    2    0    0  0.00000000000E+00  0.35527136788E-14 -0.14200432354E+02  0.91626113734E+02  0.90519017002E+02 0.  0.
    9000005    2    3    3    0    0  0.13414233667E+02 -0.28770244033E+02  0.24005818783E+02  0.41953322062E+02  0.13271521767E+02 0.  0.
         22    1    3    3    0    0 -0.13414233667E+02  0.28770244033E+02 -0.38206251136E+02  0.49672791672E+02  0.00000000000E+00 0.  1.
         22    1    4    4    0    0  0.29946279260E+01 -0.21028363487E+02  0.16977412683E+02  0.27191770975E+02  0.00000000000E+00 0.  1.
         22    1    4    4    0    0  0.10419605741E+02 -0.77418805464E+01  0.70284060995E+01  0.14761551087E+02  0.00000000000E+00 0.  1.
<mgrwt>
<rscale>  0 0.90519017E+02</rscale>
<asrwt>0</asrwt>
<pdfrwt beam="1">  1        1 0.59558216E-02 0.90519017E+02</pdfrwt>
<pdfrwt beam="2">  1       -1 0.81405036E-02 0.90519017E+02</pdfrwt>
<totfact> 0.92078240E+04</totfact>
</mgrwt>
</event>
<event>
 7    1  0.3345055E-009  0.9100428E+02  0.7818608E-02  0.1300438E+00
          1   -1    0    0  501    0  0.00000000000E+00  0.00000000000E+00  0.71261325757E+02  0.71261325935E+02  0.50400000000E-02 0. -1.
         -1   -1    0    0    0  501 -0.00000000000E+00 -0.00000000000E+00 -0.29054254612E+02  0.29054255049E+02  0.50400000000E-02 0.  1.
         23    2    1    2    0    0  0.00000000000E+00 -0.71054273576E-14  0.42207071145E+02  0.10031558098E+03  0.91004279754E+02 0.  0.
    9000005    2    3    3    0    0  0.20554877530E+02 -0.31725368604E+02  0.46971848038E+02  0.62214332945E+02  0.15338406451E+02 0.  0.
         22    1    3    3    0    0 -0.20554877530E+02  0.31725368604E+02 -0.47647768923E+01  0.38101248039E+02  0.00000000000E+00 0.  1.
         22    1    4    4    0    0  0.61332688646E+01 -0.30224362598E+00  0.85472218518E+01  0.10524416352E+02  0.00000000000E+00 0.  1.
         22    1    4    4    0    0  0.14421608665E+02 -0.31423124978E+02  0.38424626186E+02  0.51689916593E+02  0.00000000000E+00 0.  1.
<mgrwt>
<rscale>  0 0.91004280E+02</rscale>
<asrwt>0</asrwt>
<pdfrwt beam="1">  1        1 0.10963281E-01 0.91004280E+02</pdfrwt>
<pdfrwt beam="2">  1       -1 0.44698854E-02 0.91004280E+02</pdfrwt>
<totfact> 0.99457918E+04</totfact>
</mgrwt>
</event>
<event>
 7    1  0.3345055E-009  0.9034724E+02  0.7818608E-02  0.1302013E+00
         -1   -1    0    0    0  501 -0.00000000000E+00  0.00000000000E+00  0.37001923668E+02  0.37001924011E+02  0.50400000000E-02 0.  1.
          1   -1    0    0  501    0  0.00000000000E+00 -0.00000000000E+00 -0.55149992876E+02  0.55149993106E+02  0.50400000000E-02 0. -1.
         23    2    1    2    0    0 -0.17763568394E-14  0.17763568394E-14 -0.18148069208E+02  0.92151917118E+02  0.90347237990E+02 0.  0.
    9000005    2    3    3    0    0 -0.10314433927E+02  0.14680013772E+02 -0.50096203437E+02  0.55510770407E+02  0.15809037945E+02 0.  0.
         22    1    3    3    0    0  0.10314433927E+02 -0.14680013772E+02  0.31948134229E+02  0.36641146711E+02  0.00000000000E+00 0.  1.
         22    1    4    4    0    0 -0.25476729636E+01  0.14650832835E+02 -0.23553618144E+02  0.27855169502E+02  0.00000000000E+00 0.  1.
         22    1    4    4    0    0 -0.77667609629E+01  0.29180936873E-01 -0.26542585293E+02  0.27655600905E+02  0.00000000000E+00 0.  1.
<mgrwt>
<rscale>  0 0.90347238E+02</rscale>
<asrwt>0</asrwt>
<pdfrwt beam="2">  1        1 0.84846144E-02 0.90347238E+02</pdfrwt>
<pdfrwt beam="1">  1       -1 0.56926037E-02 0.90347238E+02</pdfrwt>
<totfact> 0.97602459E+04</totfact>
</mgrwt>
</event>
<event>
 7    1  0.3345055E-009  0.9117271E+02  0.7818608E-02  0.1300036E+00
         -1   -1    0    0    0  501 -0.00000000000E+00  0.00000000000E+00  0.72709957363E+01  0.72709974831E+01  0.50400000000E-02 0.  1.
          1   -1    0    0  501    0  0.00000000000E+00 -0.00000000000E+00 -0.28580893409E+03  0.28580893414E+03  0.50400000000E-02 0. -1.
         23    2    1    2    0    0  0.00000000000E+00  0.35527136788E-14 -0.27853793836E+03  0.29307993162E+03  0.91172710911E+02 0.  0.
    9000005    2    3    3    0    0  0.35065511784E+02 -0.25812101857E+02 -0.18144684888E+03  0.18667253350E+03  0.52745688201E+01 0.  0.
         22    1    3    3    0    0 -0.35065511784E+02  0.25812101857E+02 -0.97091089483E+02  0.10640739813E+03  0.00000000000E+00 0. -1.
         22    1    4    4    0    0  0.22316219460E+02 -0.19181939520E+02 -0.11715385988E+03  0.12079315933E+03  0.00000000000E+00 0.  1.
         22    1    4    4    0    0  0.12749292324E+02 -0.66301623374E+01 -0.64292988993E+02  0.65879374170E+02  0.00000000000E+00 0.  1.
<mgrwt>
<rscale>  0 0.91172711E+02</rscale>
<asrwt>0</asrwt>
<pdfrwt beam="2">  1        1 0.43970597E-01 0.91172711E+02</pdfrwt>
<pdfrwt beam="1">  1       -1 0.11186151E-02 0.91172711E+02</pdfrwt>
<totfact> 0.12695154E+05</totfact>
</mgrwt>
</event>
<event>
 7    1  0.3345055E-009  0.8290596E+02  0.7818608E-02  0.1321001E+00
         -1   -1    0    0    0  501 -0.00000000000E+00  0.00000000000E+00  0.20318495979E+03  0.20318495986E+03  0.50400000000E-02 0.  1.
          1   -1    0    0  501    0  0.00000000000E+00 -0.00000000000E+00 -0.84570699239E+01  0.84570714257E+01  0.50400000000E-02 0. -1.
         23    2    1    2    0    0  0.00000000000E+00  0.00000000000E+00  0.19472788987E+03  0.21164203128E+03  0.82905960654E+02 0.  0.
    9000005    2    3    3    0    0 -0.38644835329E+02  0.54298816242E+01  0.79271254646E+02  0.89768566044E+02  0.15860539847E+02 0.  0.
         22    1    3    3    0    0  0.38644835329E+02 -0.54298816242E+01  0.11545663522E+03  0.12187346524E+03  0.00000000000E+00 0.  1.
         22    1    4    4    0    0 -0.23415074259E+02  0.10734658168E+02  0.53291855618E+02  0.59190543702E+02  0.00000000000E+00 0.  1.
         22    1    4    4    0    0 -0.15229761071E+02 -0.53047765442E+01  0.25979399029E+02  0.30578022342E+02  0.00000000000E+00 0.  1.
<mgrwt>
<rscale>  0 0.82905961E+02</rscale>
<asrwt>0</asrwt>
<pdfrwt beam="2">  1        1 0.13010878E-02 0.82905961E+02</pdfrwt>
<pdfrwt beam="1">  1       -1 0.31259226E-01 0.82905961E+02</pdfrwt>
<totfact> 0.88467792E+04</totfact>
</mgrwt>
</event>
<event>
 7    1  0.3345055E-009  0.9128638E+02  0.7818608E-02  0.1299766E+00
         -1   -1    0    0    0  501 -0.00000000000E+00  0.00000000000E+00  0.60953393592E+02  0.60953393800E+02  0.50400000000E-02 0.  1.
          1   -1    0    0  501    0  0.00000000000E+00 -0.00000000000E+00 -0.34178588386E+02  0.34178588757E+02  0.50400000000E-02 0. -1.
         23    2    1    2    0    0 -0.17763568394E-14  0.00000000000E+00  0.26774805207E+02  0.95131982558E+02  0.91286384042E+02 0.  0.
    9000005    2    3    3    0    0  0.10563037946E+02 -0.36453182150E+02 -0.12048067780E+02  0.40839923042E+02  0.90736496164E+01 0.  0.
         22    1    3    3    0    0 -0.10563037946E+02  0.36453182150E+02  0.38822872986E+02  0.54292059515E+02  0.00000000000E+00 0.  1.
         22    1    4    4    0    0  0.56872614159E+01 -0.29730683470E+02 -0.11926244550E+02  0.32534501550E+02  0.00000000000E+00 0. -1.
         22    1    4    4    0    0  0.48757765300E+01 -0.67224986796E+01 -0.12182322988E+00  0.83054214924E+01  0.00000000000E+00 0. -1.
<mgrwt>
<rscale>  0 0.91286384E+02</rscale>
<asrwt>0</asrwt>
<pdfrwt beam="2">  1        1 0.52582444E-02 0.91286384E+02</pdfrwt>
<pdfrwt beam="1">  1       -1 0.93774453E-02 0.91286384E+02</pdfrwt>
<totfact> 0.88193360E+04</totfact>
</mgrwt>
</event>
<event>
 7    1  0.3345055E-009  0.9406421E+02  0.7818608E-02  0.1293298E+00
         -1   -1    0    0    0  501 -0.00000000000E+00  0.00000000000E+00  0.38563455464E+02  0.38563455794E+02  0.50400000000E-02 0.  1.
          1   -1    0    0  501    0  0.00000000000E+00 -0.00000000000E+00 -0.57360489549E+02  0.57360489770E+02  0.50400000000E-02 0. -1.
         23    2    1    2    0    0  0.00000000000E+00  0.00000000000E+00 -0.18797034084E+02  0.95923945564E+02  0.94064205956E+02 0.  0.
    9000005    2    3    3    0    0  0.10727084232E+02  0.36821845512E+02 -0.35013218037E+02  0.54284021632E+02  0.15808571225E+02 0.  0.
         22    1    3    3    0    0 -0.10727084232E+02 -0.36821845512E+02  0.16216183953E+02  0.41639923932E+02  0.00000000000E+00 0.  1.
         22    1    4    4    0    0  0.87995292297E+01  0.30314406644E+02 -0.18879350287E+02  0.36780767149E+02  0.00000000000E+00 0. -1.
         22    1    4    4    0    0  0.19275550026E+01  0.65074388685E+01 -0.16133867750E+02  0.17503254483E+02  0.00000000000E+00 0. -1.
<mgrwt>
<rscale>  0 0.94064206E+02</rscale>
<asrwt>0</asrwt>
<pdfrwt beam="2">  1        1 0.88246908E-02 0.94064206E+02</pdfrwt>
<pdfrwt beam="1">  1       -1 0.59328393E-02 0.94064206E+02</pdfrwt>
<totfact> 0.87750367E+04</totfact>
</mgrwt>
</event>
<event>
 7    1  0.3345055E-009  0.9120981E+02  0.7818608E-02  0.1299948E+00
         -1   -1    0    0    0  501 -0.00000000000E+00  0.00000000000E+00  0.75740665605E+01  0.75740682374E+01  0.50400000000E-02 0.  1.
          1   -1    0    0  501    0  0.00000000000E+00 -0.00000000000E+00 -0.27459583298E+03  0.27459583303E+03  0.50400000000E-02 0. -1.
         23    2    1    2    0    0  0.00000000000E+00 -0.35527136788E-14 -0.26702176642E+03  0.28216990126E+03  0.91209809984E+02 0.  0.
    9000005    2    3    3    0    0  0.39428218155E+02  0.16885465130E+02 -0.89702328409E+02  0.99736663020E+02  0.78224618216E+01 0.  0.
         22    1    3    3    0    0 -0.39428218155E+02 -0.16885465130E+02 -0.17731943801E+03  0.18243323824E+03  0.00000000000E+00 0. -1.
         22    1    4    4    0    0  0.44524585066E+01  0.24803542364E+01 -0.59233342459E+01  0.78142454837E+01  0.00000000000E+00 0. -1.
         22    1    4    4    0    0  0.34975759648E+02  0.14405110893E+02 -0.83778994163E+02  0.91922417537E+02  0.00000000000E+00 0. -1.
<mgrwt>
<rscale>  0 0.91209810E+02</rscale>
<asrwt>0</asrwt>
<pdfrwt beam="2">  1        1 0.42245505E-01 0.91209810E+02</pdfrwt>
<pdfrwt beam="1">  1       -1 0.11652414E-02 0.91209810E+02</pdfrwt>
<totfact> 0.12583410E+05</totfact>
</mgrwt>
</event>
<event>
 7    1  0.3345055E-009  0.9099121E+02  0.7818608E-02  0.1300469E+00
         -1   -1    0    0    0  501 -0.00000000000E+00  0.00000000000E+00  0.21621352167E+03  0.21621352173E+03  0.50400000000E-02 0.  1.
          1   -1    0    0  501    0  0.00000000000E+00 -0.00000000000E+00 -0.95731745863E+01  0.95731759130E+01  0.50400000000E-02 0. -1.
         23    2    1    2    0    0  0.00000000000E+00  0.00000000000E+00  0.20664034709E+03  0.22578669764E+03  0.90991207208E+02 0.  0.
    9000005    2    3    3    0    0 -0.23512353649E+02 -0.22705672552E+02  0.25502235834E+02  0.41723138817E+02  0.46987168511E+01 0.  0.
         22    1    3    3    0    0  0.23512353649E+02  0.22705672552E+02  0.18113811125E+03  0.18406355883E+03  0.00000000000E+00 0. -1.
         22    1    4    4    0    0 -0.10867931812E+02 -0.12224447104E+02  0.10207433818E+02  0.19280579712E+02  0.00000000000E+00 0. -1.
         22    1    4    4    0    0 -0.12644421837E+02 -0.10481225448E+02  0.15294802016E+02  0.22442559105E+02  0.00000000000E+00 0. -1.
<mgrwt>
<rscale>  0 0.90991207E+02</rscale>
<asrwt>0</asrwt>
<pdfrwt beam="2">  1        1 0.14727962E-02 0.90991207E+02</pdfrwt>
<pdfrwt beam="1">  1       -1 0.33263618E-01 0.90991207E+02</pdfrwt>
<totfact> 0.68211214E+04</totfact>
</mgrwt>
</event>
<event>
 7    1  0.3345055E-009  0.8825391E+02  0.7818608E-02  0.1307136E+00
         -1   -1    0    0    0  501 -0.00000000000E+00  0.00000000000E+00  0.10351451386E+03  0.10351451398E+03  0.50400000000E-02 0.  1.
          1   -1    0    0  501    0  0.00000000000E+00 -0.00000000000E+00 -0.18810773200E+02  0.18810773875E+02  0.50400000000E-02 0. -1.
         23    2    1    2    0    0  0.00000000000E+00 -0.17763568394E-14  0.84703740655E+02  0.12232528785E+03  0.88253908510E+02 0.  0.
    9000005    2    3    3    0    0  0.27067659589E+02  0.10089568091E+02  0.88207769257E+02  0.93226562858E+02  0.87249002977E+01 0.  0.
         22    1    3    3    0    0 -0.27067659589E+02 -0.10089568091E+02 -0.35040286018E+01  0.29098724995E+02  0.00000000000E+00 0. -1.
         22    1    4    4    0    0  0.23000408372E+02  0.70219276756E+01  0.80267069154E+02  0.83792175315E+02  0.00000000000E+00 0. -1.
         22    1    4    4    0    0  0.40672512169E+01  0.30676404156E+01  0.79407001033E+01  0.94343875430E+01  0.00000000000E+00 0. -1.
<mgrwt>
<rscale>  0 0.88253909E+02</rscale>
<asrwt>0</asrwt>
<pdfrwt beam="2">  1        1 0.28939652E-02 0.88253909E+02</pdfrwt>
<pdfrwt beam="1">  1       -1 0.15925310E-01 0.88253909E+02</pdfrwt>
<totfact> 0.87916639E+04</totfact>
</mgrwt>
</event>
<event>
 7    1  0.3345055E-009  0.9096708E+02  0.7818608E-02  0.1300527E+00
          1   -1    0    0  501    0  0.00000000000E+00  0.00000000000E+00  0.89991802577E+02  0.89991802718E+02  0.50400000000E-02 0. -1.
         -1   -1    0    0    0  501 -0.00000000000E+00 -0.00000000000E+00 -0.22988230451E+02  0.22988231004E+02  0.50400000000E-02 0.  1.
         23    2    1    2    0    0  0.00000000000E+00  0.00000000000E+00  0.67003572126E+02  0.11298003372E+03  0.90967078343E+02 0.  0.
    9000005    2    3    3    0    0 -0.24628604009E+02  0.55062495201E+01  0.79839331261E+02  0.84666721804E+02  0.12539858275E+02 0.  0.
         22    1    3    3    0    0  0.24628604009E+02 -0.55062495201E+01 -0.12835759135E+02  0.28313311918E+02  0.00000000000E+00 0.  1.
         22    1    4    4    0    0 -0.17699494046E+02 -0.80691314616E+00  0.40152423629E+02  0.43887815184E+02  0.00000000000E+00 0.  1.
         22    1    4    4    0    0 -0.69291099628E+01  0.63131626662E+01  0.39686907632E+02  0.40778906620E+02  0.00000000000E+00 0.  1.
<mgrwt>
<rscale>  0 0.90967078E+02</rscale>
<asrwt>0</asrwt>
<pdfrwt beam="1">  1        1 0.13844893E-01 0.90967078E+02</pdfrwt>
<pdfrwt beam="2">  1       -1 0.35366509E-02 0.90967078E+02</pdfrwt>
<totfact> 0.10330765E+05</totfact>
</mgrwt>
</event>
<event>
 7    1  0.3345055E-009  0.9244893E+02  0.7818608E-02  0.1297027E+00
         -1   -1    0    0    0  501 -0.00000000000E+00  0.00000000000E+00  0.62783108799E+02  0.62783109002E+02  0.50400000000E-02 0.  1.
          1   -1    0    0  501    0  0.00000000000E+00 -0.00000000000E+00 -0.34033055593E+02  0.34033055966E+02  0.50400000000E-02 0. -1.
         23    2    1    2    0    0  0.00000000000E+00  0.00000000000E+00  0.28750053206E+02  0.96816164968E+02  0.92448927737E+02 0.  0.
    9000005    2    3    3    0    0  0.28570037525E+02  0.19605016331E+02  0.46296265404E+02  0.57977096082E+02  0.41708236851E+01 0.  0.
         22    1    3    3    0    0 -0.28570037525E+02 -0.19605016331E+02 -0.17546212198E+02  0.38839068887E+02  0.00000000000E+00 0. -1.
         22    1    4    4    0    0  0.11666618992E+02  0.58980684593E+01  0.15687783238E+02  0.20420669754E+02  0.00000000000E+00 0.  1.
         22    1    4    4    0    0  0.16903418532E+02  0.13706947872E+02  0.30608482166E+02  0.37556426328E+02  0.00000000000E+00 0.  1.
<mgrwt>
<rscale>  0 0.92448928E+02</rscale>
<asrwt>0</asrwt>
<pdfrwt beam="2">  1        1 0.52358548E-02 0.92448928E+02</pdfrwt>
<pdfrwt beam="1">  1       -1 0.96589398E-02 0.92448928E+02</pdfrwt>
<totfact> 0.85005647E+04</totfact>
</mgrwt>
</event>
<event>
 7    1  0.3345055E-009  0.8951329E+02  0.7818608E-02  0.1304035E+00
         -1   -1    0    0    0  501 -0.00000000000E+00  0.00000000000E+00  0.48868440881E+01  0.48868466871E+01  0.50400000000E-02 0.  1.
          1   -1    0    0  501    0  0.00000000000E+00 -0.00000000000E+00 -0.40990806965E+03  0.40990806969E+03  0.50400000000E-02 0. -1.
         23    2    1    2    0    0  0.00000000000E+00  0.00000000000E+00 -0.40502122557E+03  0.41479491637E+03  0.89513292249E+02 0.  0.
    9000005    2    3    3    0    0  0.21474752402E+02  0.12338678621E+02 -0.37511465786E+03  0.37596437720E+03  0.49797988498E+01 0.  0.
         22    1    3    3    0    0 -0.21474752402E+02 -0.12338678621E+02 -0.29906567702E+02  0.38830539174E+02  0.00000000000E+00 0.  1.
         22    1    4    4    0    0  0.12576658727E+01 -0.27455876730E+00 -0.30294065749E+02  0.30321403753E+02  0.00000000000E+00 0.  1.
         22    1    4    4    0    0  0.20217086530E+02  0.12613237388E+02 -0.34482059212E+03  0.34564297345E+03  0.00000000000E+00 0.  1.
<mgrwt>
<rscale>  0 0.89513292E+02</rscale>
<asrwt>0</asrwt>
<pdfrwt beam="2">  1        1 0.63062753E-01 0.89513292E+02</pdfrwt>
<pdfrwt beam="1">  1       -1 0.75182269E-03 0.89513292E+02</pdfrwt>
<totfact> 0.14220212E+05</totfact>
</mgrwt>
</event>
<event>
 7    1  0.3345055E-009  0.8920635E+02  0.7818608E-02  0.1304785E+00
          1   -1    0    0  501    0  0.00000000000E+00  0.00000000000E+00  0.12651594788E+03  0.12651594798E+03  0.50400000000E-02 0. -1.
         -1   -1    0    0    0  501 -0.00000000000E+00 -0.00000000000E+00 -0.15724840513E+02  0.15724841321E+02  0.50400000000E-02 0.  1.
         23    2    1    2    0    0  0.00000000000E+00  0.00000000000E+00  0.11079110737E+03  0.14224078931E+03  0.89206348820E+02 0.  0.
    9000005    2    3    3    0    0 -0.17067015393E+02 -0.10942531416E+02 -0.42082791313E+01  0.25468014635E+02  0.14828625965E+02 0.  0.
         22    1    3    3    0    0  0.17067015393E+02  0.10942531416E+02  0.11499938650E+03  0.11677277467E+03  0.00000000000E+00 0. -1.
         22    1    4    4    0    0 -0.26668214555E+01  0.37119973753E+01 -0.65186978995E+00  0.46169032276E+01  0.00000000000E+00 0.  1.
         22    1    4    4    0    0 -0.14400193938E+02 -0.14654528791E+02 -0.35564093414E+01  0.20851111408E+02  0.00000000000E+00 0.  1.
<mgrwt>
<rscale>  0 0.89206349E+02</rscale>
<asrwt>0</asrwt>
<pdfrwt beam="1">  1        1 0.19463992E-01 0.89206349E+02</pdfrwt>
<pdfrwt beam="2">  1       -1 0.24192063E-02 0.89206349E+02</pdfrwt>
<totfact> 0.11535740E+05</totfact>
</mgrwt>
</event>
<event>
 7    1  0.3345055E-009  0.9104610E+02  0.7818608E-02  0.1300338E+00
         -1   -1    0    0    0  501 -0.00000000000E+00  0.00000000000E+00  0.14346325437E+02  0.14346326322E+02  0.50400000000E-02 0.  1.
          1   -1    0    0  501    0  0.00000000000E+00 -0.00000000000E+00 -0.14445149489E+03  0.14445149498E+03  0.50400000000E-02 0. -1.
         23    2    1    2    0    0  0.00000000000E+00  0.00000000000E+00 -0.13010516945E+03  0.15879782130E+03  0.91046103327E+02 0.  0.
    9000005    2    3    3    0    0 -0.77967373809E+01 -0.29579670525E+02 -0.79070788413E+01  0.32829097517E+02  0.89152524264E+01 0.  0.
         22    1    3    3    0    0  0.77967373809E+01  0.29579670525E+02 -0.12219809061E+03  0.12596872378E+03  0.00000000000E+00 0. -1.
         22    1    4    4    0    0 -0.64927824013E+01 -0.11974086151E+02 -0.65752968925E+01  0.15125127824E+02  0.00000000000E+00 0.  1.
         22    1    4    4    0    0 -0.13039549796E+01 -0.17605584374E+02 -0.13317819488E+01  0.17703969693E+02  0.00000000000E+00 0.  1.
<mgrwt>
<rscale>  0 0.91046103E+02</rscale>
<asrwt>0</asrwt>
<pdfrwt beam="2">  1        1 0.22223306E-01 0.91046103E+02</pdfrwt>
<pdfrwt beam="1">  1       -1 0.22071272E-02 0.91046103E+02</pdfrwt>
<totfact> 0.11179418E+05</totfact>
</mgrwt>
</event>
<event>
 7    1  0.3597699E-009  0.9256292E+02  0.7818608E-02  0.1296761E+00
         -1   -1    0    0    0  501 -0.00000000000E+00  0.00000000000E+00  0.55706073579E+01  0.55706096379E+01  0.50400000000E-02 0.  1.
          1   -1    0    0  501    0  0.00000000000E+00 -0.00000000000E+00 -0.38451339914E+03  0.38451339917E+03  0.50400000000E-02 0. -1.
         23    2    1    2    0    0  0.88817841970E-15  0.00000000000E+00 -0.37894279178E+03  0.39008400881E+03  0.92562921768E+02 0.  0.
    9000005    2    3    3    0    0  0.65346433110E+01 -0.16406878119E+02 -0.36910729443E+03  0.36986955307E+03  0.15855733036E+02 0.  0.
         22    1    3    3    0    0 -0.65346433110E+01  0.16406878119E+02 -0.98354973448E+01  0.20214455739E+02  0.00000000000E+00 0.  1.
         22    1    4    4    0    0 -0.46114071797E+01 -0.12804620970E+01 -0.93613406055E+02  0.93735662650E+02  0.00000000000E+00 0. -1.
         22    1    4    4    0    0  0.11146050491E+02 -0.15126416022E+02 -0.27549388838E+03  0.27613389042E+03  0.00000000000E+00 0. -1.
<mgrwt>
<rscale>  0 0.92562922E+02</rscale>
<asrwt>0</asrwt>
<pdfrwt beam="2">  1        1 0.59155887E-01 0.92562922E+02</pdfrwt>
<pdfrwt beam="1">  1       -1 0.85701700E-03 0.92562922E+02</pdfrwt>
<totfact> 0.12873587E+05</totfact>
</mgrwt>
</event>
<event>
 7    1  0.3345055E-009  0.9132950E+02  0.7818608E-02  0.1299664E+00
         -1   -1    0    0    0  501 -0.00000000000E+00  0.00000000000E+00  0.46691394942E+03  0.46691394945E+03  0.50400000000E-02 0.  1.
          1   -1    0    0  501    0  0.00000000000E+00 -0.00000000000E+00 -0.44660664245E+01  0.44660692683E+01  0.50400000000E-02 0. -1.
         23    2    1    2    0    0  0.00000000000E+00  0.35527136788E-14  0.46244788300E+03  0.47138001872E+03  0.91329499929E+02 0.  0.
    9000005    2    3    3    0    0 -0.32931319161E+02  0.22636834298E+02  0.34475866641E+03  0.34709144423E+03  0.41272920659E+01 0.  0.
         22    1    3    3    0    0  0.32931319161E+02 -0.22636834298E+02  0.11768921659E+03  0.12428857449E+03  0.00000000000E+00 0. -1.
         22    1    4    4    0    0 -0.83714923927E+01  0.56310000714E+01  0.10343098961E+03  0.10392189210E+03  0.00000000000E+00 0.  1.
         22    1    4    4    0    0 -0.24559826768E+02  0.17005834226E+02  0.24132767680E+03  0.24316955212E+03  0.00000000000E+00 0.  1.
<mgrwt>
<rscale>  0 0.91329500E+02</rscale>
<asrwt>0</asrwt>
<pdfrwt beam="2">  1        1 0.68708748E-03 0.91329500E+02</pdfrwt>
<pdfrwt beam="1">  1       -1 0.71832903E-01 0.91329500E+02</pdfrwt>
<totfact> 0.48794075E+04</totfact>
</mgrwt>
</event>
<event>
 7    1  0.3345055E-009  0.9208527E+02  0.7818608E-02  0.1297879E+00
         -1   -1    0    0    0  501 -0.00000000000E+00  0.00000000000E+00  0.10354715153E+03  0.10354715166E+03  0.50400000000E-02 0.  1.
          1   -1    0    0  501    0  0.00000000000E+00 -0.00000000000E+00 -0.20473032098E+02  0.20473032718E+02  0.50400000000E-02 0. -1.
         23    2    1    2    0    0  0.71054273576E-14  0.00000000000E+00  0.83074119435E+02  0.12402018437E+03  0.92085269246E+02 0.  0.
    9000005    2    3    3    0    0  0.43773067579E+02 -0.34464808752E+01  0.56735078067E+02  0.72817598737E+02  0.12472927759E+02 0.  0.
         22    1    3    3    0    0 -0.43773067579E+02  0.34464808752E+01  0.26339041368E+02  0.51202585637E+02  0.00000000000E+00 0. -1.
         22    1    4    4    0    0  0.53086976851E+01  0.37178893820E+01  0.70490338073E+01  0.95756905852E+01  0.00000000000E+00 0.  1.
         22    1    4    4    0    0  0.38464369894E+02 -0.71643702572E+01  0.49686044259E+02  0.63241908151E+02  0.00000000000E+00 0.  1.
<mgrwt>
<rscale>  0 0.92085269E+02</rscale>
<asrwt>0</asrwt>
<pdfrwt beam="2">  1        1 0.31496973E-02 0.92085269E+02</pdfrwt>
<pdfrwt beam="1">  1       -1 0.15930331E-01 0.92085269E+02</pdfrwt>
<totfact> 0.78798621E+04</totfact>
</mgrwt>
</event>
<event>
 7    1  0.3345055E-009  0.9015457E+02  0.7818608E-02  0.1302478E+00
         -1   -1    0    0    0  501 -0.00000000000E+00  0.00000000000E+00  0.93005688521E+01  0.93005702177E+01  0.50400000000E-02 0.  1.
          1   -1    0    0  501    0  0.00000000000E+00 -0.00000000000E+00 -0.21847711901E+03  0.21847711907E+03  0.50400000000E-02 0. -1.
         23    2    1    2    0    0  0.00000000000E+00  0.00000000000E+00 -0.20917655016E+03  0.22777768929E+03  0.90154570602E+02 0.  0.
    9000005    2    3    3    0    0  0.42008462595E+02  0.14424010201E+02 -0.11915621879E+03  0.12739630127E+03  0.76713819916E+01 0.  0.
         22    1    3    3    0    0 -0.42008462595E+02 -0.14424010201E+02 -0.90020331368E+02  0.10038138801E+03  0.00000000000E+00 0.  1.
         22    1    4    4    0    0  0.32898825555E+02  0.13394488345E+02 -0.87377247007E+02  0.94321409740E+02  0.00000000000E+00 0. -1.
         22    1    4    4    0    0  0.91096370403E+01  0.10295218561E+01 -0.31778971784E+02  0.33074891532E+02  0.00000000000E+00 0. -1.
<mgrwt>
<rscale>  0 0.90154571E+02</rscale>
<asrwt>0</asrwt>
<pdfrwt beam="2">  1        1 0.33611861E-01 0.90154571E+02</pdfrwt>
<pdfrwt beam="1">  1       -1 0.14308570E-02 0.90154571E+02</pdfrwt>
<totfact> 0.12414787E+05</totfact>
</mgrwt>
</event>
<event>
 7    1  0.3345055E-009  0.9166814E+02  0.7818608E-02  0.1298862E+00
         -1   -1    0    0    0  501 -0.00000000000E+00  0.00000000000E+00  0.64154904174E+02  0.64154904372E+02  0.50400000000E-02 0.  1.
          1   -1    0    0  501    0  0.00000000000E+00 -0.00000000000E+00 -0.32745153095E+02  0.32745153483E+02  0.50400000000E-02 0. -1.
         23    2    1    2    0    0  0.00000000000E+00 -0.17763568394E-14  0.31409751079E+02  0.96900057854E+02  0.91668144681E+02 0.  0.
    9000005    2    3    3    0    0 -0.22314153688E+02  0.13949990379E+02 -0.22431950767E+02  0.36971328984E+02  0.13082930299E+02 0.  0.
         22    1    3    3    0    0  0.22314153688E+02 -0.13949990379E+02  0.53841701846E+02  0.59928728871E+02  0.00000000000E+00 0.  1.
         22    1    4    4    0    0 -0.15485403592E+02  0.25051995820E+01 -0.15037508527E+02  0.21730172850E+02  0.00000000000E+00 0. -1.
         22    1    4    4    0    0 -0.68287500959E+01  0.11444790797E+02 -0.73944422394E+01  0.15241156134E+02  0.00000000000E+00 0. -1.
<mgrwt>
<rscale>  0 0.91668145E+02</rscale>
<asrwt>0</asrwt>
<pdfrwt beam="2">  1        1 0.50377160E-02 0.91668145E+02</pdfrwt>
<pdfrwt beam="1">  1       -1 0.98699852E-02 0.91668145E+02</pdfrwt>
<totfact> 0.86562139E+04</totfact>
</mgrwt>
</event>
<event>
 7    1  0.3345055E-009  0.8949098E+02  0.7818608E-02  0.1304089E+00
          1   -1    0    0  501    0  0.00000000000E+00  0.00000000000E+00  0.28814663516E+03  0.28814663521E+03  0.50400000000E-02 0.  1.
         -1   -1    0    0    0  501 -0.00000000000E+00 -0.00000000000E+00 -0.69484023578E+01  0.69484041856E+01  0.50400000000E-02 0. -1.
         23    2    1    2    0    0 -0.35527136788E-14  0.35527136788E-14  0.28119823281E+03  0.29509503939E+03  0.89490983576E+02 0.  0.
    9000005    2    3    3    0    0  0.30389823514E+02 -0.26954966112E+02  0.20119008220E+03  0.20536535794E+03  0.68825498670E+01 0.  0.
         22    1    3    3    0    0 -0.30389823514E+02  0.26954966112E+02  0.80008150603E+02  0.89729681456E+02  0.00000000000E+00 0. -1.
         22    1    4    4    0    0  0.17452870013E+01 -0.90438256035E+00  0.46610980966E+01  0.50586332145E+01  0.00000000000E+00 0. -1.
         22    1    4    4    0    0  0.28644536513E+02 -0.26050583551E+02  0.19652898411E+03  0.20030672472E+03  0.00000000000E+00 0. -1.
<mgrwt>
<rscale>  0 0.89490984E+02</rscale>
<asrwt>0</asrwt>
<pdfrwt beam="1">  1        1 0.44330243E-01 0.89490984E+02</pdfrwt>
<pdfrwt beam="2">  1       -1 0.10689853E-02 0.89490984E+02</pdfrwt>
<totfact> 0.13361148E+05</totfact>
</mgrwt>
</event>
<event>
 7    1  0.3345055E-009  0.9060908E+02  0.7818608E-02  0.1301383E+00
         -1   -1    0    0    0  501 -0.00000000000E+00  0.00000000000E+00  0.90823329755E+02  0.90823329894E+02  0.50400000000E-02 0.  1.
          1   -1    0    0  501    0  0.00000000000E+00 -0.00000000000E+00 -0.22598835564E+02  0.22598836126E+02  0.50400000000E-02 0. -1.
         23    2    1    2    0    0  0.00000000000E+00  0.17763568394E-14  0.68224494191E+02  0.11342216602E+03  0.90609084187E+02 0.  0.
    9000005    2    3    3    0    0  0.27762514515E+02  0.10415100857E+02  0.76942117192E+02  0.82515395098E+02  0.30772540090E+01 0.  0.
         22    1    3    3    0    0 -0.27762514515E+02 -0.10415100857E+02 -0.87176230009E+01  0.30906770922E+02  0.00000000000E+00 0. -1.
         22    1    4    4    0    0  0.22743758417E+01  0.10441143205E+01  0.44767329733E+01  0.51287521190E+01  0.00000000000E+00 0. -1.
         22    1    4    4    0    0  0.25488138673E+02  0.93709865370E+01  0.72465384218E+02  0.77386642979E+02  0.00000000000E+00 0. -1.
<mgrwt>
<rscale>  0 0.90609084E+02</rscale>
<asrwt>0</asrwt>
<pdfrwt beam="2">  1        1 0.34767440E-02 0.90609084E+02</pdfrwt>
<pdfrwt beam="1">  1       -1 0.13972820E-01 0.90609084E+02</pdfrwt>
<totfact> 0.84146646E+04</totfact>
</mgrwt>
</event>
<event>
 7    1  0.3345055E-009  0.7998377E+02  0.7818608E-02  0.1329097E+00
          1   -1    0    0  501    0  0.00000000000E+00  0.00000000000E+00  0.18315001546E+02  0.18315002239E+02  0.50400000000E-02 0. -1.
         -1   -1    0    0    0  501 -0.00000000000E+00 -0.00000000000E+00 -0.87324644091E+02  0.87324644236E+02  0.50400000000E-02 0.  1.
         23    2    1    2    0    0  0.00000000000E+00  0.00000000000E+00 -0.69009642545E+02  0.10563964648E+03  0.79983774250E+02 0.  0.
    9000005    2    3    3    0    0  0.10114221586E+02  0.34313831670E+02 -0.15096748234E+02  0.40937740050E+02  0.12971130675E+02 0.  0.
         22    1    3    3    0    0 -0.10114221586E+02 -0.34313831670E+02 -0.53912894311E+02  0.64701906426E+02  0.00000000000E+00 0. -1.
         22    1    4    4    0    0  0.10815154359E+02  0.17140372685E+02 -0.45485872411E+01  0.20771364555E+02  0.00000000000E+00 0. -1.
         22    1    4    4    0    0 -0.70093277321E+00  0.17173458985E+02 -0.10548160993E+02  0.20166375495E+02  0.00000000000E+00 0. -1.
<mgrwt>
<rscale>  0 0.79983774E+02</rscale>
<asrwt>0</asrwt>
<pdfrwt beam="1">  1        1 0.28176927E-02 0.79983774E+02</pdfrwt>
<pdfrwt beam="2">  1       -1 0.13434560E-01 0.79983774E+02</pdfrwt>
<totfact> 0.11659441E+05</totfact>
</mgrwt>
</event>
<event>
 7    1  0.3345055E-009  0.8959040E+02  0.7818608E-02  0.1303847E+00
          1   -1    0    0  501    0  0.00000000000E+00  0.00000000000E+00  0.20284430975E+02  0.20284431601E+02  0.50400000000E-02 0. -1.
         -1   -1    0    0    0  501 -0.00000000000E+00 -0.00000000000E+00 -0.98923645612E+02  0.98923645741E+02  0.50400000000E-02 0.  1.
         23    2    1    2    0    0  0.00000000000E+00  0.00000000000E+00 -0.78639214638E+02  0.11920807734E+03  0.89590399177E+02 0.  0.
    9000005    2    3    3    0    0  0.37788987918E+02 -0.79131275170E+01 -0.67591323075E+02  0.79049876399E+02  0.13772102551E+02 0.  0.
         22    1    3    3    0    0 -0.37788987918E+02  0.79131275170E+01 -0.11047891563E+02  0.40158200943E+02  0.00000000000E+00 0. -1.
         22    1    4    4    0    0  0.30581579288E+02 -0.53090339825E+01 -0.41293596567E+02  0.51658299924E+02  0.00000000000E+00 0. -1.
         22    1    4    4    0    0  0.72074086301E+01 -0.26040935344E+01 -0.26297726508E+02  0.27391576475E+02  0.00000000000E+00 0. -1.
<mgrwt>
<rscale>  0 0.89590399E+02</rscale>
<asrwt>0</asrwt>
<pdfrwt beam="1">  1        1 0.31206818E-02 0.89590399E+02</pdfrwt>
<pdfrwt beam="2">  1       -1 0.15219022E-01 0.89590399E+02</pdfrwt>
<totfact> 0.85298752E+04</totfact>
</mgrwt>
</event>
<event>
 7    1  0.3345055E-009  0.8955768E+02  0.7818608E-02  0.1303926E+00
          1   -1    0    0  501    0  0.00000000000E+00  0.00000000000E+00  0.16260513333E+03  0.16260513341E+03  0.50400000000E-02 0. -1.
         -1   -1    0    0    0  501 -0.00000000000E+00 -0.00000000000E+00 -0.12331372074E+02  0.12331373104E+02  0.50400000000E-02 0.  1.
         23    2    1    2    0    0  0.00000000000E+00  0.00000000000E+00  0.15027376126E+03  0.17493650651E+03  0.89557679674E+02 0.  0.
    9000005    2    3    3    0    0  0.18325911916E+02 -0.18140771830E+02  0.14640064757E+03  0.14886108399E+03  0.78451301134E+01 0.  0.
         22    1    3    3    0    0 -0.18325911916E+02  0.18140771830E+02  0.38731136829E+01  0.26075422523E+02  0.00000000000E+00 0.  1.
         22    1    4    4    0    0  0.74369108899E+01 -0.99130785973E+01  0.89090307535E+02  0.89948094296E+02  0.00000000000E+00 0. -1.
         22    1    4    4    0    0  0.10889001026E+02 -0.82276932324E+01  0.57310340038E+02  0.58912989693E+02  0.00000000000E+00 0. -1.
<mgrwt>
<rscale>  0 0.89557680E+02</rscale>
<asrwt>0</asrwt>
<pdfrwt beam="1">  1        1 0.25016176E-01 0.89557680E+02</pdfrwt>
<pdfrwt beam="2">  1       -1 0.18971342E-02 0.89557680E+02</pdfrwt>
<totfact> 0.11943877E+05</totfact>
</mgrwt>
</event>
<event>
 7    1  0.3345055E-009  0.8885848E+02  0.7818608E-02  0.1305640E+00
          1   -1    0    0  501    0  0.00000000000E+00  0.00000000000E+00  0.32179563631E+02  0.32179564026E+02  0.50400000000E-02 0. -1.
         -1   -1    0    0    0  501 -0.00000000000E+00 -0.00000000000E+00 -0.61341948342E+02  0.61341948549E+02  0.50400000000E-02 0.  1.
         23    2    1    2    0    0  0.17763568394E-14  0.00000000000E+00 -0.29162384711E+02  0.93521512575E+02  0.88858475298E+02 0.  0.
    9000005    2    3    3    0    0  0.11359112169E+02 -0.38684470461E+02  0.32466344420E+01  0.41792775817E+02  0.10515597519E+02 0.  0.
         22    1    3    3    0    0 -0.11359112169E+02  0.38684470461E+02 -0.32409019153E+02  0.51728736758E+02  0.00000000000E+00 0.  1.
         22    1    4    4    0    0  0.10103095299E+01  0.80165090765E-02 -0.11135648067E+01  0.15036010739E+01  0.00000000000E+00 0.  1.
         22    1    4    4    0    0  0.10348802639E+02 -0.38692486970E+02  0.43601992488E+01  0.40289174743E+02  0.00000000000E+00 0.  1.
<mgrwt>
<rscale>  0 0.88858475E+02</rscale>
<asrwt>0</asrwt>
<pdfrwt beam="1">  1        1 0.49507021E-02 0.88858475E+02</pdfrwt>
<pdfrwt beam="2">  1       -1 0.94372229E-02 0.88858475E+02</pdfrwt>
<totfact> 0.94337263E+04</totfact>
</mgrwt>
</event>
<event>
 7    1  0.3730754E-009  0.8542978E+02  0.7818608E-02  0.1314312E+00
         -1   -1    0    0    0  501 -0.00000000000E+00  0.00000000000E+00  0.26786194515E+01  0.26786241931E+01  0.50400000000E-02 0.  1.
          1   -1    0    0  501    0  0.00000000000E+00 -0.00000000000E+00 -0.68115692818E+03  0.68115692820E+03  0.50400000000E-02 0. -1.
         23    2    1    2    0    0 -0.44408920985E-15  0.00000000000E+00 -0.67847830873E+03  0.68383555240E+03  0.85429779936E+02 0.  0.
    9000005    2    3    3    0    0 -0.21414472862E+01  0.25308590744E+02 -0.61147956127E+03  0.61218401561E+03  0.14727680000E+02 0.  0.
         22    1    3    3    0    0  0.21414472862E+01 -0.25308590744E+02 -0.66998747463E+02  0.71651536784E+02  0.00000000000E+00 0.  1.
         22    1    4    4    0    0 -0.52447695144E+01  0.47053127293E+01 -0.25404047076E+03  0.25413816785E+03  0.00000000000E+00 0. -1.
         22    1    4    4    0    0  0.31033222282E+01  0.20603278014E+02 -0.35743909051E+03  0.35804584776E+03  0.00000000000E+00 0. -1.
<mgrwt>
<rscale>  0 0.85429780E+02</rscale>
<asrwt>0</asrwt>
<pdfrwt beam="2">  1        1 0.10479324E+00 0.85429780E+02</pdfrwt>
<pdfrwt beam="1">  1       -1 0.41209621E-03 0.85429780E+02</pdfrwt>
<totfact> 0.16880924E+05</totfact>
</mgrwt>
</event>
<event>
 6    1  0.3345055E-009  0.1356768E+03  0.7818608E-02  0.1219267E+00
         -1   -1    0    0    0  501 -0.00000000000E+00  0.00000000000E+00  0.11586168274E+03  0.11586168285E+03  0.50400000000E-02 0.  1.
          1   -1    0    0  501    0  0.00000000000E+00 -0.00000000000E+00 -0.39720170963E+02  0.39720171283E+02  0.50400000000E-02 0. -1.
    9000005    2    1    2    0    0  0.28191687412E+02  0.41714924558E+02  0.90070677244E+02  0.10334271343E+03  0.56642166986E+01 0.  0.
         22    1    1    2    0    0 -0.28191687412E+02 -0.41714924558E+02 -0.13929165468E+02  0.52239140696E+02  0.00000000000E+00 0. -1.
         22    1    3    3    0    0  0.20714065448E+02  0.31318325182E+02  0.71876264041E+02  0.81093201516E+02  0.00000000000E+00 0.  1.
         22    1    3    3    0    0  0.74776219644E+01  0.10396599376E+02  0.18194413203E+02  0.22249511919E+02  0.00000000000E+00 0.  1.
<mgrwt>
<rscale>  0 0.13567676E+03</rscale>
<asrwt>0</asrwt>
<pdfrwt beam="2">  1        1 0.61107957E-02 0.13567676E+03</pdfrwt>
<pdfrwt beam="1">  1       -1 0.17824874E-01 0.13567676E+03</pdfrwt>
<totfact> 0.28170568E+04</totfact>
</mgrwt>
</event>
<event>
 7    1  0.3345055E-009  0.9019672E+02  0.7818608E-02  0.1302376E+00
          1   -1    0    0  501    0  0.00000000000E+00  0.00000000000E+00  0.45241983256E+01  0.45242011329E+01  0.50400000000E-02 0. -1.
         -1   -1    0    0    0  501 -0.00000000000E+00 -0.00000000000E+00 -0.44955178548E+03  0.44955178551E+03  0.50400000000E-02 0.  1.
         23    2    1    2    0    0 -0.35527136788E-14  0.00000000000E+00 -0.44502758716E+03  0.45407598664E+03  0.90196720093E+02 0.  0.
    9000005    2    3    3    0    0 -0.17949078405E+02  0.33965361350E+02 -0.33713562477E+03  0.33954873776E+03  0.12533979575E+02 0.  0.
         22    1    3    3    0    0  0.17949078405E+02 -0.33965361350E+02 -0.10789196239E+03  0.11452724888E+03  0.00000000000E+00 0. -1.
         22    1    4    4    0    0 -0.12772337304E+02  0.11468627487E+02 -0.12909197418E+03  0.13022826043E+03  0.00000000000E+00 0.  1.
         22    1    4    4    0    0 -0.51767411015E+01  0.22496733863E+02 -0.20804365059E+03  0.20932047734E+03  0.00000000000E+00 0.  1.
<mgrwt>
<rscale>  0 0.90196720E+02</rscale>
<asrwt>0</asrwt>
<pdfrwt beam="1">  1        1 0.69603109E-03 0.90196720E+02</pdfrwt>
<pdfrwt beam="2">  1       -1 0.69161778E-01 0.90196720E+02</pdfrwt>
<totfact> 0.51516833E+04</totfact>
</mgrwt>
</event>
<event>
 7    1  0.3345055E-009  0.9225332E+02  0.7818608E-02  0.1297485E+00
         -1   -1    0    0    0  501 -0.00000000000E+00  0.00000000000E+00  0.27919721145E+03  0.27919721149E+03  0.50400000000E-02 0.  1.
          1   -1    0    0  501    0  0.00000000000E+00 -0.00000000000E+00 -0.76206660175E+01  0.76206676841E+01  0.50400000000E-02 0. -1.
         23    2    1    2    0    0  0.00000000000E+00  0.17763568394E-14  0.27157654543E+03  0.28681787918E+03  0.92253323994E+02 0.  0.
    9000005    2    3    3    0    0 -0.39225644052E+02 -0.94633790479E+01  0.20177648403E+03  0.20619371862E+03  0.13186864518E+02 0.  0.
         22    1    3    3    0    0  0.39225644052E+02  0.94633790479E+01  0.69800061394E+02  0.80624160553E+02  0.00000000000E+00 0. -1.
         22    1    4    4    0    0 -0.35675331525E+02 -0.69123674356E+01  0.15451982497E+03  0.15873527148E+03  0.00000000000E+00 0. -1.
         22    1    4    4    0    0 -0.35503125270E+01 -0.25510116123E+01  0.47256659061E+02  0.47458447140E+02  0.00000000000E+00 0. -1.
<mgrwt>
<rscale>  0 0.92253324E+02</rscale>
<asrwt>0</asrwt>
<pdfrwt beam="2">  1        1 0.11724102E-02 0.92253324E+02</pdfrwt>
<pdfrwt beam="1">  1       -1 0.42953422E-01 0.92253324E+02</pdfrwt>
<totfact> 0.60390713E+04</totfact>
</mgrwt>
</event>
<event>
 7    1  0.3345055E-009  0.9155911E+02  0.7818608E-02  0.1299119E+00
          1   -1    0    0  501    0  0.00000000000E+00  0.00000000000E+00  0.36011597352E+03  0.36011597355E+03  0.50400000000E-02 0. -1.
         -1   -1    0    0    0  501 -0.00000000000E+00 -0.00000000000E+00 -0.58197009954E+01  0.58197031778E+01  0.50400000000E-02 0.  1.
         23    2    1    2    0    0  0.00000000000E+00  0.00000000000E+00  0.35429627252E+03  0.36593567673E+03  0.91559110858E+02 0.  0.
    9000005    2    3    3    0    0  0.37016387501E+02  0.21635506080E+02  0.23098493995E+03  0.23538303292E+03  0.14588407477E+02 0.  0.
         22    1    3    3    0    0 -0.37016387501E+02 -0.21635506080E+02  0.12331133257E+03  0.13055264381E+03  0.00000000000E+00 0.  1.
         22    1    4    4    0    0  0.24803459154E+02  0.18981059816E+02  0.18949082765E+03  0.19204756177E+03  0.00000000000E+00 0.  1.
         22    1    4    4    0    0  0.12212928347E+02  0.26544462642E+01  0.41494112306E+02  0.43335471151E+02  0.00000000000E+00 0.  1.
<mgrwt>
<rscale>  0 0.91559111E+02</rscale>
<asrwt>0</asrwt>
<pdfrwt beam="1">  1        1 0.55402435E-01 0.91559111E+02</pdfrwt>
<pdfrwt beam="2">  1       -1 0.89533915E-03 0.91559111E+02</pdfrwt>
<totfact> 0.13103276E+05</totfact>
</mgrwt>
</event>
<event>
 7    1  0.3345055E-009  0.9483924E+02  0.7818608E-02  0.1291539E+00
         -1   -1    0    0    0  501 -0.00000000000E+00  0.00000000000E+00  0.61922639619E+02  0.61922639824E+02  0.50400000000E-02 0.  1.
          1   -1    0    0  501    0  0.00000000000E+00 -0.00000000000E+00 -0.36313380645E+02  0.36313380995E+02  0.50400000000E-02 0. -1.
         23    2    1    2    0    0 -0.35527136788E-14  0.00000000000E+00  0.25609258974E+02  0.98236020820E+02  0.94839241041E+02 0.  0.
    9000005    2    3    3    0    0 -0.16836292140E+02  0.33399795363E+02 -0.14758965517E+02  0.43203297719E+02  0.15801607746E+02 0.  0.
         22    1    3    3    0    0  0.16836292140E+02 -0.33399795363E+02  0.40368224491E+02  0.55032723100E+02  0.00000000000E+00 0.  1.
         22    1    4    4    0    0 -0.19745789029E+02  0.25976287285E+02 -0.12015873296E+02  0.34771322905E+02  0.00000000000E+00 0.  1.
         22    1    4    4    0    0  0.29094968893E+01  0.74235080778E+01 -0.27430922203E+01  0.84319748138E+01  0.00000000000E+00 0.  1.
<mgrwt>
<rscale>  0 0.94839241E+02</rscale>
<asrwt>0</asrwt>
<pdfrwt beam="2">  1        1 0.55866740E-02 0.94839241E+02</pdfrwt>
<pdfrwt beam="1">  1       -1 0.95265600E-02 0.94839241E+02</pdfrwt>
<totfact> 0.79841354E+04</totfact>
</mgrwt>
</event>
<event>
 7    1  0.3345055E-009  0.9380158E+02  0.7818608E-02  0.1293898E+00
          1   -1    0    0  501    0  0.00000000000E+00  0.00000000000E+00  0.40060040125E+03  0.40060040128E+03  0.50400000000E-02 0. -1.
         -1   -1    0    0    0  501 -0.00000000000E+00 -0.00000000000E+00 -0.54909670550E+01  0.54909693680E+01  0.50400000000E-02 0.  1.
         23    2    1    2    0    0  0.00000000000E+00  0.00000000000E+00  0.39510943419E+03  0.40609137065E+03  0.93801579551E+02 0.  0.
    9000005    2    3    3    0    0  0.45141929917E+02 -0.89767693475E+01  0.18098472989E+03  0.18707592549E+03  0.11115449619E+02 0.  0.
         22    1    3    3    0    0 -0.45141929917E+02  0.89767693475E+01  0.21412470430E+03  0.21901544516E+03  0.00000000000E+00 0.  1.
         22    1    4    4    0    0  0.12569898701E+02 -0.82736461686E+00  0.32821537574E+02  0.35155941379E+02  0.00000000000E+00 0. -1.
         22    1    4    4    0    0  0.32572031216E+02 -0.81494047307E+01  0.14816319232E+03  0.15191998411E+03  0.00000000000E+00 0. -1.
<mgrwt>
<rscale>  0 0.93801580E+02</rscale>
<asrwt>0</asrwt>
<pdfrwt beam="1">  1        1 0.61630817E-01 0.93801580E+02</pdfrwt>
<pdfrwt beam="2">  1       -1 0.84476454E-03 0.93801580E+02</pdfrwt>
<totfact> 0.12511282E+05</totfact>
</mgrwt>
</event>
<event>
 7    1  0.3345055E-009  0.9324479E+02  0.7818608E-02  0.1295179E+00
          1   -1    0    0  501    0  0.00000000000E+00  0.00000000000E+00  0.77843765728E+03  0.77843765729E+03  0.50400000000E-02 0. -1.
         -1   -1    0    0    0  501 -0.00000000000E+00 -0.00000000000E+00 -0.27923184763E+01  0.27923230247E+01  0.50400000000E-02 0.  1.
         23    2    1    2    0    0  0.00000000000E+00 -0.35527136788E-14  0.77564533880E+03  0.78122998032E+03  0.93244788296E+02 0.  0.
    9000005    2    3    3    0    0 -0.36519292704E+02  0.25030331480E+02  0.51021071523E+03  0.51212829763E+03  0.49301882859E+00 0.  0.
         22    1    3    3    0    0  0.36519292704E+02 -0.25030331480E+02  0.26543462357E+03  0.26910168268E+03  0.00000000000E+00 0.  1.
         22    1    4    4    0    0 -0.29877530583E+02  0.20257221619E+02  0.41663640946E+03  0.41819722566E+03  0.00000000000E+00 0. -1.
         22    1    4    4    0    0 -0.66417621216E+01  0.47731098614E+01  0.93574305767E+02  0.93931071971E+02  0.00000000000E+00 0. -1.
<mgrwt>
<rscale>  0 0.93244788E+02</rscale>
<asrwt>0</asrwt>
<pdfrwt beam="1">  1        1 0.11975969E+00 0.93244788E+02</pdfrwt>
<pdfrwt beam="2">  1       -1 0.42958764E-03 0.93244788E+02</pdfrwt>
<totfact> 0.13344043E+05</totfact>
</mgrwt>
</event>
<event>
 7    1  0.3345055E-009  0.9181505E+02  0.7818608E-02  0.1298515E+00
         -1   -1    0    0    0  501 -0.00000000000E+00  0.00000000000E+00  0.11561491025E+03  0.11561491036E+03  0.50400000000E-02 0.  1.
          1   -1    0    0  501    0  0.00000000000E+00 -0.00000000000E+00 -0.18228623129E+02  0.18228623826E+02  0.50400000000E-02 0. -1.
         23    2    1    2    0    0  0.17763568394E-14  0.00000000000E+00  0.97386287119E+02  0.13384353418E+03  0.91815046284E+02 0.  0.
    9000005    2    3    3    0    0 -0.11952066613E+02 -0.10196645045E+02  0.11147259369E+03  0.11274264559E+03  0.61596691780E+01 0.  0.
         22    1    3    3    0    0  0.11952066613E+02  0.10196645045E+02 -0.14086306572E+02  0.21100888592E+02  0.00000000000E+00 0. -1.
         22    1    4    4    0    0 -0.57430714901E+01 -0.86000730025E+01  0.62026852489E+02  0.62883022792E+02  0.00000000000E+00 0.  1.
         22    1    4    4    0    0 -0.62089951233E+01 -0.15965720428E+01  0.49445741202E+02  0.49859622800E+02  0.00000000000E+00 0.  1.
<mgrwt>
<rscale>  0 0.91815046E+02</rscale>
<asrwt>0</asrwt>
<pdfrwt beam="2">  1        1 0.28044036E-02 0.91815046E+02</pdfrwt>
<pdfrwt beam="1">  1       -1 0.17786910E-01 0.91815046E+02</pdfrwt>
<totfact> 0.77710134E+04</totfact>
</mgrwt>
</event>
<event>
 7    1  0.3345055E-009  0.8962622E+02  0.7818608E-02  0.1303759E+00
          1   -1    0    0  501    0  0.00000000000E+00  0.00000000000E+00  0.10332990049E+03  0.10332990061E+03  0.50400000000E-02 0. -1.
         -1   -1    0    0    0  501 -0.00000000000E+00 -0.00000000000E+00 -0.19434983976E+02  0.19434984630E+02  0.50400000000E-02 0.  1.
         23    2    1    2    0    0  0.88817841970E-15  0.00000000000E+00  0.83894916510E+02  0.12276488524E+03  0.89626224017E+02 0.  0.
    9000005    2    3    3    0    0  0.55653510582E+01 -0.36322887521E+02  0.76940421705E+02  0.85365817226E+02  0.41435453575E+01 0.  0.
         22    1    3    3    0    0 -0.55653510582E+01  0.36322887521E+02  0.69544948047E+01  0.37399068014E+02  0.00000000000E+00 0.  1.
         22    1    4    4    0    0  0.28228676495E+01 -0.90322920682E+01  0.17246828520E+02  0.19672416623E+02  0.00000000000E+00 0. -1.
         22    1    4    4    0    0  0.27424834087E+01 -0.27290595453E+02  0.59693593185E+02  0.65693400603E+02  0.00000000000E+00 0. -1.
<mgrwt>
<rscale>  0 0.89626224E+02</rscale>
<asrwt>0</asrwt>
<pdfrwt beam="1">  1        1 0.15896908E-01 0.89626224E+02</pdfrwt>
<pdfrwt beam="2">  1       -1 0.29899976E-02 0.89626224E+02</pdfrwt>
<totfact> 0.11003762E+05</totfact>
</mgrwt>
</event>
<event>
 7    1  0.6344219E-009  0.8990552E+02  0.7818608E-02  0.1303081E+00
          1   -1    0    0  501    0  0.00000000000E+00  0.00000000000E+00  0.20236619093E+03  0.20236619100E+03  0.50400000000E-02 0. -1.
         -1   -1    0    0    0  501 -0.00000000000E+00 -0.00000000000E+00 -0.99856127308E+01  0.99856140027E+01  0.50400000000E-02 0.  1.
         23    2    1    2    0    0  0.00000000000E+00  0.17763568394E-14  0.19238057820E+03  0.21235180500E+03  0.89905518277E+02 0.  0.
    9000005    2    3    3    0    0 -0.13650812252E+02  0.11282979200E+02  0.19337665125E+03  0.19461364116E+03  0.12895339518E+02 0.  0.
         22    1    3    3    0    0  0.13650812252E+02 -0.11282979200E+02 -0.99607305217E+00  0.17738163836E+02  0.00000000000E+00 0.  1.
         22    1    4    4    0    0  0.17524141107E+01  0.43582776889E+01  0.29865474273E+02  0.30232632918E+02  0.00000000000E+00 0. -1.
         22    1    4    4    0    0 -0.15403226363E+02  0.69247015109E+01  0.16351117698E+03  0.16438100824E+03  0.00000000000E+00 0. -1.
<mgrwt>
<rscale>  0 0.89905518E+02</rscale>
<asrwt>0</asrwt>
<pdfrwt beam="1">  1        1 0.31133262E-01 0.89905518E+02</pdfrwt>
<pdfrwt beam="2">  1       -1 0.15362481E-02 0.89905518E+02</pdfrwt>
<totfact> 0.12322349E+05</totfact>
</mgrwt>
</event>
<event>
 7    1  0.3345055E-009  0.9240927E+02  0.7818608E-02  0.1297120E+00
          1   -1    0    0  501    0  0.00000000000E+00  0.00000000000E+00  0.25509766332E+03  0.25509766337E+03  0.50400000000E-02 0. -1.
         -1   -1    0    0    0  501 -0.00000000000E+00 -0.00000000000E+00 -0.83688260067E+01  0.83688275243E+01  0.50400000000E-02 0.  1.
         23    2    1    2    0    0  0.00000000000E+00 -0.35527136788E-14  0.24672883731E+03  0.26346649089E+03  0.92409267187E+02 0.  0.
    9000005    2    3    3    0    0  0.18576327667E+02 -0.30562003240E+02  0.48326352007E+02  0.61866237503E+02  0.14590375349E+02 0.  0.
         22    1    3    3    0    0 -0.18576327667E+02  0.30562003240E+02  0.19840248531E+03  0.20160025339E+03  0.00000000000E+00 0. -1.
         22    1    4    4    0    0  0.56726834589E+01 -0.18591102329E+02  0.16496786376E+02  0.25494163727E+02  0.00000000000E+00 0.  1.
         22    1    4    4    0    0  0.12903644208E+02 -0.11970900911E+02  0.31829565631E+02  0.36372073776E+02  0.00000000000E+00 0.  1.
<mgrwt>
<rscale>  0 0.92409267E+02</rscale>
<asrwt>0</asrwt>
<pdfrwt beam="1">  1        1 0.39245795E-01 0.92409267E+02</pdfrwt>
<pdfrwt beam="2">  1       -1 0.12875118E-02 0.92409267E+02</pdfrwt>
<totfact> 0.11977768E+05</totfact>
</mgrwt>
</event>
<event>
 7    1  0.3345055E-009  0.9168439E+02  0.7818608E-02  0.1298823E+00
         -1   -1    0    0    0  501 -0.00000000000E+00  0.00000000000E+00  0.60486335721E+01  0.60486356719E+01  0.50400000000E-02 0.  1.
          1   -1    0    0  501    0  0.00000000000E+00 -0.00000000000E+00 -0.34743489149E+03  0.34743489152E+03  0.50400000000E-02 0. -1.
         23    2    1    2    0    0  0.35527136788E-14  0.17763568394E-14 -0.34138625791E+03  0.35348352719E+03  0.91684387468E+02 0.  0.
    9000005    2    3    3    0    0  0.30187348235E+02  0.10342219241E+02 -0.29595819288E+03  0.29796824474E+03  0.13250866151E+02 0.  0.
         22    1    3    3    0    0 -0.30187348235E+02 -0.10342219241E+02 -0.45428065037E+02  0.55515282449E+02  0.00000000000E+00 0.  1.
         22    1    4    4    0    0  0.16197861994E+02  0.75050292388E+01 -0.10768693989E+03  0.10915664533E+03  0.00000000000E+00 0. -1.
         22    1    4    4    0    0  0.13989486241E+02  0.28371900025E+01 -0.18827125298E+03  0.18881159941E+03  0.00000000000E+00 0. -1.
<mgrwt>
<rscale>  0 0.91684387E+02</rscale>
<asrwt>0</asrwt>
<pdfrwt beam="2">  1        1 0.53451506E-01 0.91684387E+02</pdfrwt>
<pdfrwt beam="1">  1       -1 0.93055945E-03 0.91684387E+02</pdfrwt>
<totfact> 0.12972807E+05</totfact>
</mgrwt>
</event>
<event>
 7    1  0.3345055E-009  0.9158335E+02  0.7818608E-02  0.1299062E+00
         -1   -1    0    0    0  501 -0.00000000000E+00  0.00000000000E+00  0.33135615399E+01  0.33135653729E+01  0.50400000000E-02 0.  1.
          1   -1    0    0  501    0  0.00000000000E+00 -0.00000000000E+00 -0.63281648161E+03  0.63281648163E+03  0.50400000000E-02 0. -1.
         23    2    1    2    0    0 -0.35527136788E-14  0.71054273576E-14 -0.62950292007E+03  0.63613004700E+03  0.91583351779E+02 0.  0.
    9000005    2    3    3    0    0 -0.30166770750E+02  0.32067251943E+02 -0.38592241290E+03  0.38860266230E+03  0.11729350509E+02 0.  0.
         22    1    3    3    0    0  0.30166770750E+02 -0.32067251943E+02 -0.24358050717E+03  0.24752738470E+03  0.00000000000E+00 0.  1.
         22    1    4    4    0    0 -0.24648542082E+02  0.24263927027E+02 -0.25548552727E+03  0.25781610389E+03  0.00000000000E+00 0.  1.
         22    1    4    4    0    0 -0.55182286677E+01  0.78033249162E+01 -0.13043688563E+03  0.13078655840E+03  0.00000000000E+00 0.  1.
<mgrwt>
<rscale>  0 0.91583352E+02</rscale>
<asrwt>0</asrwt>
<pdfrwt beam="2">  1        1 0.97356286E-01 0.91583352E+02</pdfrwt>
<pdfrwt beam="1">  1       -1 0.50977950E-03 0.91583352E+02</pdfrwt>
<totfact> 0.14029670E+05</totfact>
</mgrwt>
</event>
<event>
 7    1  0.3345055E-009  0.9147567E+02  0.7818608E-02  0.1299317E+00
         -1   -1    0    0    0  501 -0.00000000000E+00  0.00000000000E+00  0.12017993143E+02  0.12017994199E+02  0.50400000000E-02 0.  1.
          1   -1    0    0  501    0  0.00000000000E+00 -0.00000000000E+00 -0.17406813334E+03  0.17406813341E+03  0.50400000000E-02 0. -1.
         23    2    1    2    0    0  0.17763568394E-14  0.00000000000E+00 -0.16205014019E+03  0.18608612761E+03  0.91475674098E+02 0.  0.
    9000005    2    3    3    0    0  0.86036737610E+01  0.15840608567E+02 -0.16624654954E+03  0.16757780696E+03  0.10929687449E+02 0.  0.
         22    1    3    3    0    0 -0.86036737610E+01 -0.15840608567E+02  0.41964093479E+01  0.18508320653E+02  0.00000000000E+00 0.  1.
         22    1    4    4    0    0 -0.21228964201E+00  0.32625418881E+01 -0.73119035079E+02  0.73192093408E+02  0.00000000000E+00 0. -1.
         22    1    4    4    0    0  0.88159634030E+01  0.12578066679E+02 -0.93127514462E+02  0.94385713549E+02  0.00000000000E+00 0. -1.
<mgrwt>
<rscale>  0 0.91475674E+02</rscale>
<asrwt>0</asrwt>
<pdfrwt beam="2">  1        1 0.26779711E-01 0.91475674E+02</pdfrwt>
<pdfrwt beam="1">  1       -1 0.18489222E-02 0.91475674E+02</pdfrwt>
<totfact> 0.11427786E+05</totfact>
</mgrwt>
</event>
<event>
 7    1  0.3345055E-009  0.8912627E+02  0.7818608E-02  0.1304981E+00
          1   -1    0    0  501    0  0.00000000000E+00  0.00000000000E+00  0.99657805272E+02  0.99657805399E+02  0.50400000000E-02 0. -1.
         -1   -1    0    0    0  501 -0.00000000000E+00 -0.00000000000E+00 -0.19926917967E+02  0.19926918604E+02  0.50400000000E-02 0.  1.
         23    2    1    2    0    0 -0.35527136788E-14  0.00000000000E+00  0.79730887305E+02  0.11958472400E+03  0.89126268993E+02 0.  0.
    9000005    2    3    3    0    0 -0.29883416934E+02  0.52178736040E+01  0.83046383628E+02  0.89068542584E+02  0.10782329602E+02 0.  0.
         22    1    3    3    0    0  0.29883416934E+02 -0.52178736040E+01 -0.33154963236E+01  0.30516181420E+02  0.00000000000E+00 0.  1.
         22    1    4    4    0    0 -0.10312549743E+02  0.55397100086E+01  0.21442615608E+02  0.24429957701E+02  0.00000000000E+00 0. -1.
         22    1    4    4    0    0 -0.19570867191E+02 -0.32183640466E+00  0.61603768021E+02  0.64638584883E+02  0.00000000000E+00 0. -1.
<mgrwt>
<rscale>  0 0.89126269E+02</rscale>
<asrwt>0</asrwt>
<pdfrwt beam="1">  1        1 0.15331970E-01 0.89126269E+02</pdfrwt>
<pdfrwt beam="2">  1       -1 0.30656797E-02 0.89126269E+02</pdfrwt>
<totfact> 0.11105551E+05</totfact>
</mgrwt>
</event>
<event>
 6    1  0.3345055E-009  0.1297802E+03  0.7818608E-02  0.1227782E+00
          1   -1    0    0  501    0  0.00000000000E+00  0.00000000000E+00  0.91184004987E+01  0.91184018916E+01  0.50400000000E-02 0. -1.
         -1   -1    0    0    0  501 -0.00000000000E+00 -0.00000000000E+00 -0.46178316308E+03  0.46178316311E+03  0.50400000000E-02 0.  1.
    9000005    2    1    2    0    0 -0.44884593036E+02  0.18691172297E+02 -0.38164957377E+03  0.38483680069E+03  0.88870350941E+01 0.  0.
         22    1    1    2    0    0  0.44884593036E+02 -0.18691172297E+02 -0.71015188816E+02  0.86064764314E+02  0.00000000000E+00 0. -1.
         22    1    3    3    0    0 -0.19371314833E+02  0.12671314478E+02 -0.18884397376E+03  0.19025734276E+03  0.00000000000E+00 0.  1.
         22    1    3    3    0    0 -0.25513278203E+02  0.60198578182E+01 -0.19280560001E+03  0.19457945792E+03  0.00000000000E+00 0.  1.
<mgrwt>
<rscale>  0 0.12978019E+03</rscale>
<asrwt>0</asrwt>
<pdfrwt beam="1">  1        1 0.14028313E-02 0.12978019E+03</pdfrwt>
<pdfrwt beam="2">  1       -1 0.71043545E-01 0.12978019E+03</pdfrwt>
<totfact> 0.19318848E+04</totfact>
</mgrwt>
</event>
<event>
 7    1  0.3345055E-009  0.9007594E+02  0.7818608E-02  0.1302668E+00
          1   -1    0    0  501    0  0.00000000000E+00  0.00000000000E+00  0.31933186346E+03  0.31933186350E+03  0.50400000000E-02 0. -1.
         -1   -1    0    0    0  501 -0.00000000000E+00 -0.00000000000E+00 -0.63520699464E+01  0.63520719459E+01  0.50400000000E-02 0.  1.
         23    2    1    2    0    0  0.00000000000E+00  0.00000000000E+00  0.31297979352E+03  0.32568393545E+03  0.90075938294E+02 0.  0.
    9000005    2    3    3    0    0  0.25529739174E+01  0.32234222942E+02  0.26952878699E+03  0.27152165363E+03  0.57165167981E+01 0.  0.
         22    1    3    3    0    0 -0.25529739174E+01 -0.32234222942E+02  0.43451006522E+02  0.54162281823E+02  0.00000000000E+00 0.  1.
         22    1    4    4    0    0  0.41835231531E+00  0.54108119737E+00  0.20010256930E+01  0.21146846919E+01  0.00000000000E+00 0. -1.
         22    1    4    4    0    0  0.21346216020E+01  0.31693141745E+02  0.26752776130E+03  0.26940696893E+03  0.00000000000E+00 0. -1.
<mgrwt>
<rscale>  0 0.90075938E+02</rscale>
<asrwt>0</asrwt>
<pdfrwt beam="1">  1        1 0.49127983E-01 0.90075938E+02</pdfrwt>
<pdfrwt beam="2">  1       -1 0.97724160E-03 0.90075938E+02</pdfrwt>
<totfact> 0.13389755E+05</totfact>
</mgrwt>
</event>
<event>
 7    1  0.3345055E-009  0.9075614E+02  0.7818608E-02  0.1301031E+00
          1   -1    0    0  501    0  0.00000000000E+00  0.00000000000E+00  0.82538178536E+02  0.82538178690E+02  0.50400000000E-02 0. -1.
         -1   -1    0    0    0  501 -0.00000000000E+00 -0.00000000000E+00 -0.24948079605E+02  0.24948080114E+02  0.50400000000E-02 0.  1.
         23    2    1    2    0    0 -0.71054273576E-14 -0.17763568394E-14  0.57590098931E+02  0.10748625880E+03  0.90756136634E+02 0.  0.
    9000005    2    3    3    0    0  0.35197135809E+02  0.14950005146E+02  0.56883700189E+02  0.69239167121E+02  0.97962183174E+01 0.  0.
         22    1    3    3    0    0 -0.35197135809E+02 -0.14950005146E+02  0.70639874164E+00  0.38247091683E+02  0.00000000000E+00 0.  1.
         22    1    4    4    0    0  0.22911243674E+01 -0.10304133736E+01  0.65601132713E+01  0.70246771256E+01  0.00000000000E+00 0. -1.
         22    1    4    4    0    0  0.32906011441E+02  0.15980418520E+02  0.50323586918E+02  0.62214489995E+02  0.00000000000E+00 0. -1.
<mgrwt>
<rscale>  0 0.90756137E+02</rscale>
<asrwt>0</asrwt>
<pdfrwt beam="1">  1        1 0.12698181E-01 0.90756137E+02</pdfrwt>
<pdfrwt beam="2">  1       -1 0.38381661E-02 0.90756137E+02</pdfrwt>
<totfact> 0.10253492E+05</totfact>
</mgrwt>
</event>
<event>
 7    1  0.3345055E-009  0.9191935E+02  0.7818608E-02  0.1298269E+00
         -1   -1    0    0    0  501 -0.00000000000E+00  0.00000000000E+00  0.31218925178E+01  0.31218965861E+01  0.50400000000E-02 0.  1.
          1   -1    0    0  501    0  0.00000000000E+00 -0.00000000000E+00 -0.67660572700E+03  0.67660572702E+03  0.50400000000E-02 0. -1.
         23    2    1    2    0    0  0.00000000000E+00  0.00000000000E+00 -0.67348383448E+03  0.67972762360E+03  0.91919350425E+02 0.  0.
    9000005    2    3    3    0    0 -0.38275805476E+02  0.16904973588E+02 -0.46911816028E+03  0.47112238827E+03  0.11560320418E+02 0.  0.
         22    1    3    3    0    0  0.38275805476E+02 -0.16904973588E+02 -0.20436567420E+03  0.20860523533E+03  0.00000000000E+00 0.  1.
         22    1    4    4    0    0 -0.83265039056E+01  0.58075728075E+01 -0.70563985322E+02  0.71290494414E+02  0.00000000000E+00 0.  1.
         22    1    4    4    0    0 -0.29949301570E+02  0.11097400781E+02 -0.39855417496E+03  0.39983189385E+03  0.00000000000E+00 0.  1.
<mgrwt>
<rscale>  0 0.91919350E+02</rscale>
<asrwt>0</asrwt>
<pdfrwt beam="2">  1        1 0.10409307E+00 0.91919350E+02</pdfrwt>
<pdfrwt beam="1">  1       -1 0.48029201E-03 0.91919350E+02</pdfrwt>
<totfact> 0.13915888E+05</totfact>
</mgrwt>
</event>
<event>
 7    1  0.3345055E-009  0.8773723E+02  0.7818608E-02  0.1308426E+00
          1   -1    0    0  501    0  0.00000000000E+00  0.00000000000E+00  0.40662987479E+03  0.40662987482E+03  0.50400000000E-02 0. -1.
         -1   -1    0    0    0  501 -0.00000000000E+00 -0.00000000000E+00 -0.47326938384E+01  0.47326965221E+01  0.50400000000E-02 0.  1.
         23    2    1    2    0    0  0.17763568394E-14 -0.71054273576E-14  0.40189718095E+03  0.41136257135E+03  0.87737227249E+02 0.  0.
    9000005    2    3    3    0    0  0.88713486578E+01 -0.42545727122E+02  0.17682981284E+03  0.18213744202E+03  0.40528205308E+01 0.  0.
         22    1    3    3    0    0 -0.88713486578E+01  0.42545727122E+02  0.22506736811E+03  0.22922512932E+03  0.00000000000E+00 0. -1.
         22    1    4    4    0    0  0.42054227046E+01 -0.21086818539E+02  0.95909660155E+02  0.98290398347E+02  0.00000000000E+00 0. -1.
         22    1    4    4    0    0  0.46659259532E+01 -0.21458908582E+02  0.80920152685E+02  0.83847043676E+02  0.00000000000E+00 0. -1.
<mgrwt>
<rscale>  0 0.87737227E+02</rscale>
<asrwt>0</asrwt>
<pdfrwt beam="1">  1        1 0.62558451E-01 0.87737227E+02</pdfrwt>
<pdfrwt beam="2">  1       -1 0.72810686E-03 0.87737227E+02</pdfrwt>
<totfact> 0.14975452E+05</totfact>
</mgrwt>
</event>
<event>
 7    1  0.3345055E-009  0.1069306E+03  0.7818608E-02  0.1266362E+00
         -1   -1    0    0    0  501 -0.00000000000E+00  0.00000000000E+00  0.16537439222E+02  0.16537439990E+02  0.50400000000E-02 0.  1.
          1   -1    0    0  501    0  0.00000000000E+00 -0.00000000000E+00 -0.17285268583E+03  0.17285268591E+03  0.50400000000E-02 0. -1.
         23    2    1    2    0    0 -0.35527136788E-14  0.00000000000E+00 -0.15631524661E+03  0.18939012590E+03  0.10693064792E+03 0.  0.
    9000005    2    3    3    0    0  0.28879347305E+02  0.44816486484E+02 -0.71201591241E+02  0.88956722630E+02  0.10477328834E+01 0.  0.
         22    1    3    3    0    0 -0.28879347305E+02 -0.44816486484E+02 -0.85113655371E+02  0.10043340327E+03  0.00000000000E+00 0.  1.
         22    1    4    4    0    0  0.18947381438E+01  0.26595783871E+01 -0.47019649834E+01  0.57246715658E+01  0.00000000000E+00 0.  1.
         22    1    4    4    0    0  0.26984609161E+02  0.42156908097E+02 -0.66499626258E+02  0.83232051064E+02  0.00000000000E+00 0.  1.
<mgrwt>
<rscale>  0 0.10693065E+03</rscale>
<asrwt>0</asrwt>
<pdfrwt beam="2">  1        1 0.26592720E-01 0.10693065E+03</pdfrwt>
<pdfrwt beam="1">  1       -1 0.25442216E-02 0.10693065E+03</pdfrwt>
<totfact> 0.74689400E+04</totfact>
</mgrwt>
</event>
<event>
 7    1  0.3345055E-009  0.9361118E+02  0.7818608E-02  0.1294335E+00
          1   -1    0    0  501    0  0.00000000000E+00  0.00000000000E+00  0.44755747560E+02  0.44755747844E+02  0.50400000000E-02 0. -1.
         -1   -1    0    0    0  501 -0.00000000000E+00 -0.00000000000E+00 -0.48949315393E+02  0.48949315653E+02  0.50400000000E-02 0.  1.
         23    2    1    2    0    0  0.00000000000E+00  0.00000000000E+00 -0.41935678333E+01  0.93705063496E+02  0.93611179427E+02 0.  0.
    9000005    2    3    3    0    0  0.40031032637E+02  0.72364536038E+01  0.19052581493E+02  0.46851746717E+02  0.13312981413E+02 0.  0.
         22    1    3    3    0    0 -0.40031032637E+02 -0.72364536038E+01 -0.23246149326E+02  0.46853316780E+02  0.00000000000E+00 0. -1.
         22    1    4    4    0    0  0.49085663846E+01  0.57555637104E+01  0.22715078049E+01  0.78981190979E+01  0.00000000000E+00 0.  1.
         22    1    4    4    0    0  0.35122466253E+02  0.14808898934E+01  0.16781073688E+02  0.38953627619E+02  0.00000000000E+00 0.  1.
<mgrwt>
<rscale>  0 0.93611179E+02</rscale>
<asrwt>0</asrwt>
<pdfrwt beam="1">  1        1 0.68854996E-02 0.93611179E+02</pdfrwt>
<pdfrwt beam="2">  1       -1 0.75306640E-02 0.93611179E+02</pdfrwt>
<totfact> 0.85616878E+04</totfact>
</mgrwt>
</event>
<event>
 7    1  0.3345055E-009  0.9108720E+02  0.7818608E-02  0.1300240E+00
          1   -1    0    0  501    0  0.00000000000E+00  0.00000000000E+00  0.64482946990E+02  0.64482947187E+02  0.50400000000E-02 0. -1.
         -1   -1    0    0    0  501 -0.00000000000E+00 -0.00000000000E+00 -0.32166947172E+02  0.32166947567E+02  0.50400000000E-02 0.  1.
         23    2    1    2    0    0  0.00000000000E+00 -0.88817841970E-15  0.32315999819E+02  0.96649894754E+02  0.91087201690E+02 0.  0.
    9000005    2    3    3    0    0 -0.25471295432E+02 -0.46734277600E+01  0.54654340164E+02  0.62450051664E+02  0.15565482197E+02 0.  0.
         22    1    3    3    0    0  0.25471295432E+02  0.46734277600E+01 -0.22338340345E+02  0.34199843090E+02  0.00000000000E+00 0.  1.
         22    1    4    4    0    0 -0.23635754761E+02 -0.33006634934E+01  0.33275961349E+02  0.40949150008E+02  0.00000000000E+00 0.  1.
         22    1    4    4    0    0 -0.18355406709E+01 -0.13727642666E+01  0.21378378814E+02  0.21500901656E+02  0.00000000000E+00 0.  1.
<mgrwt>
<rscale>  0 0.91087202E+02</rscale>
<asrwt>0</asrwt>
<pdfrwt beam="1">  1        1 0.99204533E-02 0.91087202E+02</pdfrwt>
<pdfrwt beam="2">  1       -1 0.49487612E-02 0.91087202E+02</pdfrwt>
<totfact> 0.97697760E+04</totfact>
</mgrwt>
</event>
<event>
 7    1  0.3345055E-009  0.8947290E+02  0.7818608E-02  0.1304133E+00
         -1   -1    0    0    0  501 -0.00000000000E+00  0.00000000000E+00  0.20538534486E+02  0.20538535105E+02  0.50400000000E-02 0.  1.
          1   -1    0    0  501    0  0.00000000000E+00 -0.00000000000E+00 -0.97443658515E+02  0.97443658645E+02  0.50400000000E-02 0. -1.
         23    2    1    2    0    0  0.00000000000E+00  0.71054273576E-14 -0.76905124028E+02  0.11798219375E+03  0.89472900591E+02 0.  0.
    9000005    2    3    3    0    0  0.97251734503E+01  0.33403937505E+02 -0.53913063175E+01  0.38454662900E+02  0.15469094203E+02 0.  0.
         22    1    3    3    0    0 -0.97251734503E+01 -0.33403937505E+02 -0.71513817711E+02  0.79527530850E+02  0.00000000000E+00 0. -1.
         22    1    4    4    0    0  0.51908832129E+01  0.33124782559E+02 -0.45926297497E+01  0.33842114830E+02  0.00000000000E+00 0. -1.
         22    1    4    4    0    0  0.45342902373E+01  0.27915494594E+00 -0.79867656779E+00  0.46125480702E+01  0.00000000000E+00 0. -1.
<mgrwt>
<rscale>  0 0.89472901E+02</rscale>
<asrwt>0</asrwt>
<pdfrwt beam="2">  1        1 0.14991332E-01 0.89472901E+02</pdfrwt>
<pdfrwt beam="1">  1       -1 0.31597746E-02 0.89472901E+02</pdfrwt>
<totfact> 0.10948589E+05</totfact>
</mgrwt>
</event>
<event>
 7    1  0.3345055E-009  0.9110961E+02  0.7818608E-02  0.1300187E+00
         -1   -1    0    0    0  501 -0.00000000000E+00  0.00000000000E+00  0.13107755154E+02  0.13107756123E+02  0.50400000000E-02 0.  1.
          1   -1    0    0  501    0  0.00000000000E+00 -0.00000000000E+00 -0.15832155153E+03  0.15832155161E+03  0.50400000000E-02 0. -1.
         23    2    1    2    0    0  0.00000000000E+00  0.00000000000E+00 -0.14521379638E+03  0.17142930773E+03  0.91109609217E+02 0.  0.
    9000005    2    3    3    0    0  0.83671471294E+01  0.38663985702E+02 -0.11454860875E+03  0.12137666870E+03  0.67822561429E+01 0.  0.
         22    1    3    3    0    0 -0.83671471294E+01 -0.38663985702E+02 -0.30665187630E+02  0.50052639030E+02  0.00000000000E+00 0.  1.
         22    1    4    4    0    0 -0.95592541909E+00  0.69818141855E+01 -0.17655046596E+02  0.19009476401E+02  0.00000000000E+00 0.  1.
         22    1    4    4    0    0  0.93230725485E+01  0.31682171516E+02 -0.96893562150E+02  0.10236719230E+03  0.00000000000E+00 0.  1.
<mgrwt>
<rscale>  0 0.91109609E+02</rscale>
<asrwt>0</asrwt>
<pdfrwt beam="2">  1        1 0.24357161E-01 0.91109609E+02</pdfrwt>
<pdfrwt beam="1">  1       -1 0.20165779E-02 0.91109609E+02</pdfrwt>
<totfact> 0.11348325E+05</totfact>
</mgrwt>
</event>
<event>
 7    1  0.3345055E-009  0.9241470E+02  0.7818608E-02  0.1297107E+00
          1   -1    0    0  501    0  0.00000000000E+00  0.00000000000E+00  0.12116074442E+02  0.12116075490E+02  0.50400000000E-02 0. -1.
         -1   -1    0    0    0  501 -0.00000000000E+00 -0.00000000000E+00 -0.17622201947E+03  0.17622201955E+03  0.50400000000E-02 0.  1.
         23    2    1    2    0    0  0.35527136788E-14  0.00000000000E+00 -0.16410594503E+03  0.18833809504E+03  0.92414700384E+02 0.  0.
    9000005    2    3    3    0    0  0.28102786827E+02 -0.18382823480E+02 -0.18930195786E+02  0.39329058412E+02  0.77927977321E+01 0.  0.
         22    1    3    3    0    0 -0.28102786827E+02  0.18382823480E+02 -0.14517574925E+03  0.14900903663E+03  0.00000000000E+00 0.  1.
         22    1    4    4    0    0  0.16621286691E+02 -0.80734801374E+01 -0.13818210954E+02  0.23073604113E+02  0.00000000000E+00 0. -1.
         22    1    4    4    0    0  0.11481500136E+02 -0.10309343343E+02 -0.51119848326E+01  0.16255454299E+02  0.00000000000E+00 0. -1.
<mgrwt>
<rscale>  0 0.92414700E+02</rscale>
<asrwt>0</asrwt>
<pdfrwt beam="1">  1        1 0.18640117E-02 0.92414700E+02</pdfrwt>
<pdfrwt beam="2">  1       -1 0.27111078E-01 0.92414700E+02</pdfrwt>
<totfact> 0.69389239E+04</totfact>
</mgrwt>
</event>
<event>
 7    1  0.3345055E-009  0.9225727E+02  0.7818608E-02  0.1297476E+00
          1   -1    0    0  501    0  0.00000000000E+00  0.00000000000E+00  0.41961545715E+02  0.41961546017E+02  0.50400000000E-02 0. -1.
         -1   -1    0    0    0  501 -0.00000000000E+00 -0.00000000000E+00 -0.50709547626E+02  0.50709547877E+02  0.50400000000E-02 0.  1.
         23    2    1    2    0    0 -0.17763568394E-14  0.00000000000E+00 -0.87480019116E+01  0.92671093894E+02  0.92257271291E+02 0.  0.
    9000005    2    3    3    0    0 -0.94811406580E+01  0.41276282242E+01  0.40694431314E+02  0.42158882042E+02  0.37954251567E+01 0.  0.
         22    1    3    3    0    0  0.94811406580E+01 -0.41276282242E+01 -0.49442433226E+02  0.50512211852E+02  0.00000000000E+00 0.  1.
         22    1    4    4    0    0  0.96697531273E-02 -0.35199166103E+00  0.46634510460E+00  0.58435382274E+00  0.00000000000E+00 0.  1.
         22    1    4    4    0    0 -0.94908104111E+01  0.44796198853E+01  0.40228086209E+02  0.41574528219E+02  0.00000000000E+00 0.  1.
<mgrwt>
<rscale>  0 0.92257271E+02</rscale>
<asrwt>0</asrwt>
<pdfrwt beam="1">  1        1 0.64556225E-02 0.92257271E+02</pdfrwt>
<pdfrwt beam="2">  1       -1 0.78014689E-02 0.92257271E+02</pdfrwt>
<totfact> 0.88336263E+04</totfact>
</mgrwt>
</event>
<event>
 7    1  0.3345055E-009  0.9145202E+02  0.7818608E-02  0.1299373E+00
          1   -1    0    0  501    0  0.00000000000E+00  0.00000000000E+00  0.37419481762E+01  0.37419515704E+01  0.50400000000E-02 0. -1.
         -1   -1    0    0    0  501 -0.00000000000E+00 -0.00000000000E+00 -0.55876435322E+03  0.55876435324E+03  0.50400000000E-02 0.  1.
         23    2    1    2    0    0 -0.35527136788E-14 -0.35527136788E-14 -0.55502240504E+03  0.56250630481E+03  0.91452024876E+02 0.  0.
    9000005    2    3    3    0    0  0.28999228172E+02 -0.21997057179E+02 -0.44333967436E+03  0.44504202048E+03  0.13693333381E+02 0.  0.
         22    1    3    3    0    0 -0.28999228172E+02  0.21997057179E+02 -0.11168273069E+03  0.11746428433E+03  0.00000000000E+00 0. -1.
         22    1    4    4    0    0  0.17715856299E+02 -0.20967407374E+02 -0.32843343235E+03  0.32957852360E+03  0.00000000000E+00 0.  1.
         22    1    4    4    0    0  0.11283371873E+02 -0.10296498045E+01 -0.11490624201E+03  0.11546349688E+03  0.00000000000E+00 0.  1.
<mgrwt>
<rscale>  0 0.91452025E+02</rscale>
<asrwt>0</asrwt>
<pdfrwt beam="1">  1        1 0.57568504E-03 0.91452025E+02</pdfrwt>
<pdfrwt beam="2">  1       -1 0.85963681E-01 0.91452025E+02</pdfrwt>
<totfact> 0.43420810E+04</totfact>
</mgrwt>
</event>
<event>
 7    1  0.3345055E-009  0.1114428E+03  0.7818608E-02  0.1257921E+00
         -1   -1    0    0    0  501 -0.00000000000E+00  0.00000000000E+00  0.22360025331E+01  0.22360082132E+01  0.50400000000E-02 0.  1.
          1   -1    0    0  501    0  0.00000000000E+00 -0.00000000000E+00 -0.13885809954E+04  0.13885809954E+04  0.50400000000E-02 0. -1.
         23    2    1    2    0    0  0.00000000000E+00  0.00000000000E+00 -0.13863449929E+04  0.13908170037E+04  0.11144280290E+03 0.  0.
    9000005    2    3    3    0    0  0.15558935105E+02  0.16575389445E+02 -0.13278969004E+04  0.13281033408E+04  0.56108511161E+01 0.  0.
         22    1    3    3    0    0 -0.15558935105E+02 -0.16575389445E+02 -0.58448092508E+02  0.62713662903E+02  0.00000000000E+00 0.  1.
         22    1    4    4    0    0  0.13424829510E+02  0.16054332298E+02 -0.12511225478E+04  0.12512975654E+04  0.00000000000E+00 0.  1.
         22    1    4    4    0    0  0.21341055951E+01  0.52105714724E+00 -0.76774352601E+02  0.76805775333E+02  0.00000000000E+00 0.  1.
<mgrwt>
<rscale>  0 0.11144280E+03</rscale>
<asrwt>0</asrwt>
<pdfrwt beam="2">  1        1 0.21362716E+00 0.11144280E+03</pdfrwt>
<pdfrwt beam="1">  1       -1 0.34400194E-03 0.11144280E+03</pdfrwt>
<totfact> 0.68496565E+04</totfact>
</mgrwt>
</event>
<event>
 7    1  0.3345055E-009  0.9495792E+02  0.7818608E-02  0.1291271E+00
         -1   -1    0    0    0  501 -0.00000000000E+00  0.00000000000E+00  0.64537136885E+02  0.64537137082E+02  0.50400000000E-02 0.  1.
          1   -1    0    0  501    0  0.00000000000E+00 -0.00000000000E+00 -0.34929529885E+02  0.34929530249E+02  0.50400000000E-02 0. -1.
         23    2    1    2    0    0  0.00000000000E+00  0.00000000000E+00  0.29607607000E+02  0.99466667330E+02  0.94957924986E+02 0.  0.
    9000005    2    3    3    0    0  0.37302046758E+02  0.13207270323E+02 -0.12158041083E+02  0.41931947017E+02  0.66779889146E+01 0.  0.
         22    1    3    3    0    0 -0.37302046758E+02 -0.13207270323E+02  0.41765648083E+02  0.57534720313E+02  0.00000000000E+00 0.  1.
         22    1    4    4    0    0  0.24356255097E+02  0.62125706772E+01 -0.10034094623E+02  0.27064852700E+02  0.00000000000E+00 0. -1.
         22    1    4    4    0    0  0.12945791661E+02  0.69946996459E+01 -0.21239464598E+01  0.14867094317E+02  0.00000000000E+00 0. -1.
<mgrwt>
<rscale>  0 0.94957925E+02</rscale>
<asrwt>0</asrwt>
<pdfrwt beam="2">  1        1 0.53737739E-02 0.94957925E+02</pdfrwt>
<pdfrwt beam="1">  1       -1 0.99287903E-02 0.94957925E+02</pdfrwt>
<totfact> 0.79058550E+04</totfact>
</mgrwt>
</event>
<event>
 7    1  0.3345055E-009  0.8075230E+02  0.7818608E-02  0.1326930E+00
         -1   -1    0    0    0  501 -0.00000000000E+00  0.00000000000E+00  0.12056730371E+02  0.12056731424E+02  0.50400000000E-02 0.  1.
          1   -1    0    0  501    0  0.00000000000E+00 -0.00000000000E+00 -0.13521355300E+03  0.13521355309E+03  0.50400000000E-02 0. -1.
         23    2    1    2    0    0  0.00000000000E+00  0.00000000000E+00 -0.12315682262E+03  0.14727028451E+03  0.80752298678E+02 0.  0.
    9000005    2    3    3    0    0 -0.16695310751E+02 -0.36081323151E+02 -0.68000002590E+02  0.79278593273E+02  0.89721634923E+01 0.  0.
         22    1    3    3    0    0  0.16695310751E+02  0.36081323151E+02 -0.55156820035E+02  0.67991691241E+02  0.00000000000E+00 0.  1.
         22    1    4    4    0    0 -0.27939949361E+01 -0.14776982639E+02 -0.29861792275E+02  0.33434895865E+02  0.00000000000E+00 0. -1.
         22    1    4    4    0    0 -0.13901315815E+02 -0.21304340512E+02 -0.38138210314E+02  0.45843697408E+02  0.00000000000E+00 0. -1.
<mgrwt>
<rscale>  0 0.80752299E+02</rscale>
<asrwt>0</asrwt>
<pdfrwt beam="2">  1        1 0.20802084E-01 0.80752299E+02</pdfrwt>
<pdfrwt beam="1">  1       -1 0.18548818E-02 0.80752299E+02</pdfrwt>
<totfact> 0.15241416E+05</totfact>
</mgrwt>
</event>
<event>
 7    1  0.5878969E-009  0.9122594E+02  0.7818608E-02  0.1299910E+00
         -1   -1    0    0    0  501 -0.00000000000E+00  0.00000000000E+00  0.10218675408E+02  0.10218676651E+02  0.50400000000E-02 0.  1.
          1   -1    0    0  501    0  0.00000000000E+00 -0.00000000000E+00 -0.20360199356E+03  0.20360199362E+03  0.50400000000E-02 0. -1.
         23    2    1    2    0    0  0.71054273576E-14  0.00000000000E+00 -0.19338331815E+03  0.21382067027E+03  0.91225935438E+02 0.  0.
    9000005    2    3    3    0    0 -0.36228599531E+02  0.11951961085E+02 -0.47185891068E+02  0.62727823045E+02  0.15903165417E+02 0.  0.
         22    1    3    3    0    0  0.36228599531E+02 -0.11951961085E+02 -0.14619742708E+03  0.15109284723E+03  0.00000000000E+00 0. -1.
         22    1    4    4    0    0  0.81357125650E+00 -0.11965915317E+01 -0.18744294808E+00  0.14590628300E+01  0.00000000000E+00 0.  1.
         22    1    4    4    0    0 -0.37042170787E+02  0.13148552617E+02 -0.46998448120E+02  0.61268760215E+02  0.00000000000E+00 0.  1.
<mgrwt>
<rscale>  0 0.91225935E+02</rscale>
<asrwt>0</asrwt>
<pdfrwt beam="2">  1        1 0.31323381E-01 0.91225935E+02</pdfrwt>
<pdfrwt beam="1">  1       -1 0.15721042E-02 0.91225935E+02</pdfrwt>
<totfact> 0.11864547E+05</totfact>
</mgrwt>
</event>
<event>
 7    1  0.3345055E-009  0.9257763E+02  0.7818608E-02  0.1296727E+00
         -1   -1    0    0    0  501 -0.00000000000E+00  0.00000000000E+00  0.35404984969E+02  0.35404985328E+02  0.50400000000E-02 0.  1.
          1   -1    0    0  501    0  0.00000000000E+00 -0.00000000000E+00 -0.60518443818E+02  0.60518444028E+02  0.50400000000E-02 0. -1.
         23    2    1    2    0    0  0.00000000000E+00  0.00000000000E+00 -0.25113458849E+02  0.95923429356E+02  0.92577634902E+02 0.  0.
    9000005    2    3    3    0    0  0.11444040667E+02  0.38282365499E+01 -0.58678775691E+02  0.60254788275E+02  0.64667867986E+01 0.  0.
         22    1    3    3    0    0 -0.11444040667E+02 -0.38282365499E+01  0.33565316842E+02  0.35668641081E+02  0.00000000000E+00 0.  1.
         22    1    4    4    0    0  0.23808653201E+01 -0.17910265930E+01 -0.15009921753E+02  0.15302746386E+02  0.00000000000E+00 0. -1.
         22    1    4    4    0    0  0.90631753474E+01  0.56192631429E+01 -0.43668853938E+02  0.44952041889E+02  0.00000000000E+00 0. -1.
<mgrwt>
<rscale>  0 0.92577635E+02</rscale>
<asrwt>0</asrwt>
<pdfrwt beam="2">  1        1 0.93105299E-02 0.92577635E+02</pdfrwt>
<pdfrwt beam="1">  1       -1 0.54469208E-02 0.92577635E+02</pdfrwt>
<totfact> 0.92494085E+04</totfact>
</mgrwt>
</event>
<event>
 7    1  0.3345055E-009  0.8911352E+02  0.7818608E-02  0.1305013E+00
         -1   -1    0    0    0  501 -0.00000000000E+00  0.00000000000E+00  0.82678712778E+01  0.82678728139E+01  0.50400000000E-02 0.  1.
          1   -1    0    0  501    0  0.00000000000E+00 -0.00000000000E+00 -0.24012281398E+03  0.24012281403E+03  0.50400000000E-02 0. -1.
         23    2    1    2    0    0  0.00000000000E+00 -0.17763568394E-14 -0.23185494270E+03  0.24839068684E+03  0.89113516689E+02 0.  0.
    9000005    2    3    3    0    0 -0.40204040185E+02  0.13776323148E+02 -0.92847417034E+02  0.10303166883E+03  0.13737903958E+02 0.  0.
         22    1    3    3    0    0  0.40204040185E+02 -0.13776323148E+02 -0.13900752566E+03  0.14535901801E+03  0.00000000000E+00 0. -1.
         22    1    4    4    0    0 -0.94425491849E+01 -0.11230484134E+01 -0.30265621375E+02  0.31724293689E+02  0.00000000000E+00 0.  1.
         22    1    4    4    0    0 -0.30761491000E+02  0.14899371561E+02 -0.62581795658E+02  0.71307375139E+02  0.00000000000E+00 0.  1.
<mgrwt>
<rscale>  0 0.89113517E+02</rscale>
<asrwt>0</asrwt>
<pdfrwt beam="2">  1        1 0.36941966E-01 0.89113517E+02</pdfrwt>
<pdfrwt beam="1">  1       -1 0.12719805E-02 0.89113517E+02</pdfrwt>
<totfact> 0.13043003E+05</totfact>
</mgrwt>
</event>
<event>
 7    1  0.3345055E-009  0.9111560E+02  0.7818608E-02  0.1300172E+00
         -1   -1    0    0    0  501 -0.00000000000E+00  0.00000000000E+00  0.33411710367E+02  0.33411710747E+02  0.50400000000E-02 0.  1.
          1   -1    0    0  501    0  0.00000000000E+00 -0.00000000000E+00 -0.62119329788E+02  0.62119329992E+02  0.50400000000E-02 0. -1.
         23    2    1    2    0    0  0.35527136788E-14  0.35527136788E-14 -0.28707619421E+02  0.95531040739E+02  0.91115598730E+02 0.  0.
    9000005    2    3    3    0    0 -0.30278032923E+02 -0.27431761696E+02 -0.34934778719E+02  0.54202620247E+02  0.69443826303E+01 0.  0.
         22    1    3    3    0    0  0.30278032923E+02  0.27431761696E+02  0.62271592983E+01  0.41328420492E+02  0.00000000000E+00 0.  1.
         22    1    4    4    0    0 -0.93863152859E+00  0.27759550674E+00 -0.30490872413E+00  0.10252110719E+01  0.00000000000E+00 0.  1.
         22    1    4    4    0    0 -0.29339401394E+02 -0.27709357203E+02 -0.34629869995E+02  0.53177409176E+02  0.00000000000E+00 0.  1.
<mgrwt>
<rscale>  0 0.91115599E+02</rscale>
<asrwt>0</asrwt>
<pdfrwt beam="2">  1        1 0.95568200E-02 0.91115599E+02</pdfrwt>
<pdfrwt beam="1">  1       -1 0.51402632E-02 0.91115599E+02</pdfrwt>
<totfact> 0.97060439E+04</totfact>
</mgrwt>
</event>
<event>
 7    1  0.3345055E-009  0.9153798E+02  0.7818608E-02  0.1299169E+00
          1   -1    0    0  501    0  0.00000000000E+00  0.00000000000E+00  0.30420998560E+02  0.30420998978E+02  0.50400000000E-02 0. -1.
         -1   -1    0    0    0  501 -0.00000000000E+00 -0.00000000000E+00 -0.68860341196E+02  0.68860341381E+02  0.50400000000E-02 0.  1.
         23    2    1    2    0    0  0.55511151231E-16  0.00000000000E+00 -0.38439342636E+02  0.99281340359E+02  0.91537978354E+02 0.  0.
    9000005    2    3    3    0    0  0.31387566743E+00 -0.31109858245E+02  0.14852596495E+02  0.37572730147E+02  0.14939498990E+02 0.  0.
         22    1    3    3    0    0 -0.31387566743E+00  0.31109858245E+02 -0.53291939131E+02  0.61708610212E+02  0.00000000000E+00 0.  1.
         22    1    4    4    0    0 -0.13506471687E+01 -0.22010312863E+02  0.25768347709E+01  0.22201761135E+02  0.00000000000E+00 0. -1.
         22    1    4    4    0    0  0.16645228361E+01 -0.90995453826E+01  0.12275761724E+02  0.15370969011E+02  0.00000000000E+00 0. -1.
<mgrwt>
<rscale>  0 0.91537978E+02</rscale>
<asrwt>0</asrwt>
<pdfrwt beam="1">  1        1 0.46801537E-02 0.91537978E+02</pdfrwt>
<pdfrwt beam="2">  1       -1 0.10593899E-01 0.91537978E+02</pdfrwt>
<totfact> 0.85898309E+04</totfact>
</mgrwt>
</event>
<event>
 7    1  0.3345055E-009  0.9123676E+02  0.7818608E-02  0.1299884E+00
          1   -1    0    0  501    0  0.00000000000E+00  0.00000000000E+00  0.88730599384E+03  0.88730599385E+03  0.50400000000E-02 0. -1.
         -1   -1    0    0    0  501 -0.00000000000E+00 -0.00000000000E+00 -0.23453398854E+01  0.23453453007E+01  0.50400000000E-02 0.  1.
         23    2    1    2    0    0  0.00000000000E+00  0.17763568394E-14  0.88496065395E+03  0.88965133915E+03  0.91236759108E+02 0.  0.
    9000005    2    3    3    0    0 -0.45421487517E+01  0.90829753124E+01  0.87579699574E+03  0.87597273587E+03  0.14308203663E+02 0.  0.
         22    1    3    3    0    0  0.45421487517E+01 -0.90829753124E+01  0.91636582115E+01  0.13678603278E+02  0.00000000000E+00 0.  1.
         22    1    4    4    0    0 -0.27871023312E+00 -0.26335260212E+01  0.42477138367E+02  0.42559610225E+02  0.00000000000E+00 0.  1.
         22    1    4    4    0    0 -0.42634385186E+01  0.11716501334E+02  0.83331985737E+03  0.83341312565E+03  0.00000000000E+00 0.  1.
<mgrwt>
<rscale>  0 0.91236759E+02</rscale>
<asrwt>0</asrwt>
<pdfrwt beam="1">  1        1 0.13650843E+00 0.91236759E+02</pdfrwt>
<pdfrwt beam="2">  1       -1 0.36082243E-03 0.91236759E+02</pdfrwt>
<totfact> 0.13926547E+05</totfact>
</mgrwt>
</event>
<event>
 7    1  0.3345055E-009  0.9211601E+02  0.7818608E-02  0.1297807E+00
         -1   -1    0    0    0  501 -0.00000000000E+00  0.00000000000E+00  0.22454511168E+01  0.22454567731E+01  0.50400000000E-02 0.  1.
          1   -1    0    0  501    0  0.00000000000E+00 -0.00000000000E+00 -0.94472641269E+03  0.94472641271E+03  0.50400000000E-02 0. -1.
         23    2    1    2    0    0  0.00000000000E+00 -0.88817841970E-15 -0.94248096158E+03  0.94697186948E+03  0.92116006492E+02 0.  0.
    9000005    2    3    3    0    0 -0.18334332089E+02 -0.73137330001E+01 -0.89814640460E+03  0.89844155559E+03  0.11858595998E+02 0.  0.
         22    1    3    3    0    0  0.18334332089E+02  0.73137330001E+01 -0.44334556979E+02  0.48530313888E+02  0.00000000000E+00 0.  1.
         22    1    4    4    0    0  0.89546871799E-01 -0.73193531613E+00 -0.24745795248E+03  0.24745905115E+03  0.00000000000E+00 0. -1.
         22    1    4    4    0    0 -0.18423878961E+02 -0.65817976839E+01 -0.65068845212E+03  0.65098250444E+03  0.00000000000E+00 0. -1.
<mgrwt>
<rscale>  0 0.92116006E+02</rscale>
<asrwt>0</asrwt>
<pdfrwt beam="2">  1        1 0.14534221E+00 0.92116006E+02</pdfrwt>
<pdfrwt beam="1">  1       -1 0.34545521E-03 0.92116006E+02</pdfrwt>
<totfact> 0.13419215E+05</totfact>
</mgrwt>
</event>
<event>
 7    1  0.3345055E-009  0.8933944E+02  0.7818608E-02  0.1304459E+00
         -1   -1    0    0    0  501 -0.00000000000E+00  0.00000000000E+00  0.37654004709E+02  0.37654005046E+02  0.50400000000E-02 0.  1.
          1   -1    0    0  501    0  0.00000000000E+00 -0.00000000000E+00 -0.52992611446E+02  0.52992611685E+02  0.50400000000E-02 0. -1.
         23    2    1    2    0    0  0.00000000000E+00  0.00000000000E+00 -0.15338606737E+02  0.90646616731E+02  0.89339444078E+02 0.  0.
    9000005    2    3    3    0    0  0.26561830118E+02  0.11120128467E+02  0.26100111469E+02  0.40185191435E+02  0.10219868671E+02 0.  0.
         22    1    3    3    0    0 -0.26561830118E+02 -0.11120128467E+02 -0.41438718206E+02  0.50461425296E+02  0.00000000000E+00 0. -1.
         22    1    4    4    0    0  0.10993460278E+02  0.16030171414E+01  0.47026989284E+01  0.12064046172E+02  0.00000000000E+00 0.  1.
         22    1    4    4    0    0  0.15568369840E+02  0.95171113251E+01  0.21397412541E+02  0.28121145263E+02  0.00000000000E+00 0.  1.
<mgrwt>
<rscale>  0 0.89339444E+02</rscale>
<asrwt>0</asrwt>
<pdfrwt beam="2">  1        1 0.81527095E-02 0.89339444E+02</pdfrwt>
<pdfrwt beam="1">  1       -1 0.57929238E-02 0.89339444E+02</pdfrwt>
<totfact> 0.10009520E+05</totfact>
</mgrwt>
</event>
<event>
 7    1  0.3345055E-009  0.8960332E+02  0.7818608E-02  0.1303815E+00
          1   -1    0    0  501    0  0.00000000000E+00  0.00000000000E+00  0.22141417729E+02  0.22141418303E+02  0.50400000000E-02 0. -1.
         -1   -1    0    0    0  501 -0.00000000000E+00 -0.00000000000E+00 -0.90653122821E+02  0.90653122961E+02  0.50400000000E-02 0.  1.
         23    2    1    2    0    0 -0.35527136788E-14  0.00000000000E+00 -0.68511705091E+02  0.11279454126E+03  0.89603319160E+02 0.  0.
    9000005    2    3    3    0    0  0.22355490771E+02  0.38538529870E+02 -0.32459929286E+02  0.55482092434E+02  0.62951822432E+01 0.  0.
         22    1    3    3    0    0 -0.22355490771E+02 -0.38538529870E+02 -0.36051775805E+02  0.57312448830E+02  0.00000000000E+00 0. -1.
         22    1    4    4    0    0  0.68626392863E+01  0.78120561941E+01 -0.54729926359E+01  0.11750646295E+02  0.00000000000E+00 0. -1.
         22    1    4    4    0    0  0.15492851484E+02  0.30726473676E+02 -0.26986936650E+02  0.43731446140E+02  0.00000000000E+00 0. -1.
<mgrwt>
<rscale>  0 0.89603319E+02</rscale>
<asrwt>0</asrwt>
<pdfrwt beam="1">  1        1 0.34063721E-02 0.89603319E+02</pdfrwt>
<pdfrwt beam="2">  1       -1 0.13946634E-01 0.89603319E+02</pdfrwt>
<totfact> 0.86619789E+04</totfact>
</mgrwt>
</event>
<event>
 7    1  0.3345055E-009  0.8985915E+02  0.7818608E-02  0.1303193E+00
         -1   -1    0    0    0  501 -0.00000000000E+00  0.00000000000E+00  0.16296700474E+02  0.16296701253E+02  0.50400000000E-02 0.  1.
          1   -1    0    0  501    0  0.00000000000E+00 -0.00000000000E+00 -0.12386965878E+03  0.12386965888E+03  0.50400000000E-02 0. -1.
         23    2    1    2    0    0  0.17763568394E-14  0.00000000000E+00 -0.10757295830E+03  0.14016636013E+03  0.89859151758E+02 0.  0.
    9000005    2    3    3    0    0 -0.98388442835E+01 -0.40841033662E+02 -0.35447333574E+02  0.56698410416E+02  0.13906955050E+02 0.  0.
         22    1    3    3    0    0  0.98388442835E+01  0.40841033662E+02 -0.72125624728E+02  0.83467949716E+02  0.00000000000E+00 0. -1.
         22    1    4    4    0    0 -0.62162481234E+01 -0.12614261001E+02 -0.47601432201E+01  0.14846558012E+02  0.00000000000E+00 0.  1.
         22    1    4    4    0    0 -0.36225961601E+01 -0.28226772661E+02 -0.30687190354E+02  0.41851852403E+02  0.00000000000E+00 0.  1.
<mgrwt>
<rscale>  0 0.89859152E+02</rscale>
<asrwt>0</asrwt>
<pdfrwt beam="2">  1        1 0.19056870E-01 0.89859152E+02</pdfrwt>
<pdfrwt beam="1">  1       -1 0.25071848E-02 0.89859152E+02</pdfrwt>
<totfact> 0.11269021E+05</totfact>
</mgrwt>
</event>
<event>
 7    1  0.3345055E-009  0.9103181E+02  0.7818608E-02  0.1300372E+00
         -1   -1    0    0    0  501 -0.00000000000E+00  0.00000000000E+00  0.13056526247E+03  0.13056526257E+03  0.50400000000E-02 0.  1.
          1   -1    0    0  501    0  0.00000000000E+00 -0.00000000000E+00 -0.15867141546E+02  0.15867142346E+02  0.50400000000E-02 0. -1.
         23    2    1    2    0    0  0.00000000000E+00 -0.17763568394E-14  0.11469812093E+03  0.14643240492E+03  0.91031809085E+02 0.  0.
    9000005    2    3    3    0    0 -0.18631447784E+02 -0.96222225919E+01 -0.55694471746E+01  0.24350440846E+02  0.11054737147E+02 0.  0.
         22    1    3    3    0    0  0.18631447784E+02  0.96222225919E+01  0.12026756810E+03  0.12208196407E+03  0.00000000000E+00 0.  1.
         22    1    4    4    0    0 -0.15500620678E+02 -0.68404432622E+01 -0.87712170220E+01  0.19078657014E+02  0.00000000000E+00 0. -1.
         22    1    4    4    0    0 -0.31308271070E+01 -0.27817793297E+01  0.32017698474E+01  0.52717838318E+01  0.00000000000E+00 0. -1.
<mgrwt>
<rscale>  0 0.91031809E+02</rscale>
<asrwt>0</asrwt>
<pdfrwt beam="2">  1        1 0.24410986E-02 0.91031809E+02</pdfrwt>
<pdfrwt beam="1">  1       -1 0.20086965E-01 0.91031809E+02</pdfrwt>
<totfact> 0.77471881E+04</totfact>
</mgrwt>
</event>
<event>
 7    1  0.3345055E-009  0.8738012E+02  0.7818608E-02  0.1309323E+00
         -1   -1    0    0    0  501 -0.00000000000E+00  0.00000000000E+00  0.23655349781E+02  0.23655350318E+02  0.50400000000E-02 0.  1.
          1   -1    0    0  501    0  0.00000000000E+00 -0.00000000000E+00 -0.80693011344E+02  0.80693011501E+02  0.50400000000E-02 0. -1.
         23    2    1    2    0    0 -0.71054273576E-14 -0.17763568394E-14 -0.57037661563E+02  0.10434836182E+03  0.87380122326E+02 0.  0.
    9000005    2    3    3    0    0 -0.32869127759E+02 -0.88287553561E+01 -0.60405938888E+02  0.70147897305E+02  0.10654743668E+02 0.  0.
         22    1    3    3    0    0  0.32869127759E+02  0.88287553561E+01  0.33682773249E+01  0.34200464513E+02  0.00000000000E+00 0.  1.
         22    1    4    4    0    0 -0.33161396046E+02 -0.81000796256E+01 -0.60380892162E+02  0.69362393384E+02  0.00000000000E+00 0. -1.
         22    1    4    4    0    0  0.29226828700E+00 -0.72867573053E+00 -0.25046725872E-01  0.78550392127E+00  0.00000000000E+00 0. -1.
<mgrwt>
<rscale>  0 0.87380122E+02</rscale>
<asrwt>0</asrwt>
<pdfrwt beam="2">  1        1 0.12414309E-01 0.87380122E+02</pdfrwt>
<pdfrwt beam="1">  1       -1 0.36392847E-02 0.87380122E+02</pdfrwt>
<totfact> 0.11332093E+05</totfact>
</mgrwt>
</event>
<event>
 7    1  0.3345055E-009  0.9242975E+02  0.7818608E-02  0.1297072E+00
         -1   -1    0    0    0  501 -0.00000000000E+00  0.00000000000E+00  0.14719700196E+03  0.14719700205E+03  0.50400000000E-02 0.  1.
          1   -1    0    0  501    0  0.00000000000E+00 -0.00000000000E+00 -0.14509905382E+02  0.14509906258E+02  0.50400000000E-02 0. -1.
         23    2    1    2    0    0  0.00000000000E+00  0.00000000000E+00  0.13268709658E+03  0.16170690831E+03  0.92429749514E+02 0.  0.
    9000005    2    3    3    0    0 -0.22160795158E+02 -0.25795237132E+02  0.13914332127E+02  0.38161513100E+02  0.10305209499E+02 0.  0.
         22    1    3    3    0    0  0.22160795158E+02  0.25795237132E+02  0.11877276446E+03  0.12354539521E+03  0.00000000000E+00 0.  1.
         22    1    4    4    0    0 -0.61560387305E+01 -0.58162652845E+01  0.84943227776E+01  0.11994968702E+02  0.00000000000E+00 0.  1.
         22    1    4    4    0    0 -0.16004756428E+02 -0.19978971847E+02  0.54200093490E+01  0.26166544398E+02  0.00000000000E+00 0.  1.
<mgrwt>
<rscale>  0 0.92429750E+02</rscale>
<asrwt>0</asrwt>
<pdfrwt beam="2">  1        1 0.22322931E-02 0.92429750E+02</pdfrwt>
<pdfrwt beam="1">  1       -1 0.22645694E-01 0.92429750E+02</pdfrwt>
<totfact> 0.72500781E+04</totfact>
</mgrwt>
</event>
<event>
 7    1  0.3345055E-009  0.8923536E+02  0.7818608E-02  0.1304714E+00
         -1   -1    0    0    0  501 -0.00000000000E+00  0.00000000000E+00  0.35196829919E+01  0.35196866004E+01  0.50400000000E-02 0.  1.
          1   -1    0    0  501    0  0.00000000000E+00 -0.00000000000E+00 -0.56560103284E+03  0.56560103286E+03  0.50400000000E-02 0. -1.
         23    2    1    2    0    0  0.00000000000E+00  0.00000000000E+00 -0.56208134985E+03  0.56912071946E+03  0.89235360003E+02 0.  0.
    9000005    2    3    3    0    0  0.39896707045E+02  0.17062452989E+02 -0.34087422962E+03  0.34369786221E+03  0.70785259592E+01 0.  0.
         22    1    3    3    0    0 -0.39896707045E+02 -0.17062452989E+02 -0.22120712023E+03  0.22542285726E+03  0.00000000000E+00 0.  1.
         22    1    4    4    0    0  0.38606864971E+02  0.15864301335E+02 -0.33415902463E+03  0.33675572723E+03  0.00000000000E+00 0. -1.
         22    1    4    4    0    0  0.12898420735E+01  0.11981516543E+01 -0.67152049940E+01  0.69421349794E+01  0.00000000000E+00 0. -1.
<mgrwt>
<rscale>  0 0.89235360E+02</rscale>
<asrwt>0</asrwt>
<pdfrwt beam="2">  1        1 0.87015472E-01 0.89235360E+02</pdfrwt>
<pdfrwt beam="1">  1       -1 0.54149042E-03 0.89235360E+02</pdfrwt>
<totfact> 0.14925553E+05</totfact>
</mgrwt>
</event>
<event>
 7    1  0.3345055E-009  0.9595718E+02  0.7818608E-02  0.1289035E+00
          1   -1    0    0  501    0  0.00000000000E+00  0.00000000000E+00  0.39287277934E+02  0.39287278257E+02  0.50400000000E-02 0. -1.
         -1   -1    0    0    0  501 -0.00000000000E+00 -0.00000000000E+00 -0.58592632902E+02  0.58592633119E+02  0.50400000000E-02 0.  1.
         23    2    1    2    0    0 -0.88817841970E-15  0.00000000000E+00 -0.19305354968E+02  0.97879911376E+02  0.95957179620E+02 0.  0.
    9000005    2    3    3    0    0 -0.73807160175E+01 -0.97670076419E+01 -0.55832500231E+02  0.59355870204E+02  0.15999432440E+02 0.  0.
         22    1    3    3    0    0  0.73807160175E+01  0.97670076419E+01  0.36527145263E+02  0.38524041172E+02  0.00000000000E+00 0. -1.
         22    1    4    4    0    0 -0.48508966171E+01 -0.94250990553E+01 -0.14588653365E+02  0.18033094499E+02  0.00000000000E+00 0.  1.
         22    1    4    4    0    0 -0.25298194004E+01 -0.34190858661E+00 -0.41243846866E+02  0.41322775705E+02  0.00000000000E+00 0.  1.
<mgrwt>
<rscale>  0 0.95957180E+02</rscale>
<asrwt>0</asrwt>
<pdfrwt beam="1">  1        1 0.60441966E-02 0.95957180E+02</pdfrwt>
<pdfrwt beam="2">  1       -1 0.90142513E-02 0.95957180E+02</pdfrwt>
<totfact> 0.78192148E+04</totfact>
</mgrwt>
</event>
<event>
 7    1  0.3345055E-009  0.1186821E+03  0.7818608E-02  0.1245287E+00
          1   -1    0    0  501    0  0.00000000000E+00  0.00000000000E+00  0.16683729153E+03  0.16683729161E+03  0.50400000000E-02 0. -1.
         -1   -1    0    0    0  501 -0.00000000000E+00 -0.00000000000E+00 -0.21106542162E+02  0.21106542764E+02  0.50400000000E-02 0.  1.
         23    2    1    2    0    0  0.71054273576E-14 -0.71054273576E-14  0.14573074937E+03  0.18794383437E+03  0.11868206927E+03 0.  0.
    9000005    2    3    3    0    0 -0.42976939675E+02  0.39292628481E+02  0.66536363536E+02  0.89644908923E+02  0.14771392166E+02 0.  0.
         22    1    3    3    0    0  0.42976939675E+02 -0.39292628481E+02  0.79194385834E+02  0.98298925449E+02  0.00000000000E+00 0.  1.
         22    1    4    4    0    0 -0.14427094542E+02  0.21609405138E+02  0.23311111513E+02  0.34907239468E+02  0.00000000000E+00 0.  1.
         22    1    4    4    0    0 -0.28549845133E+02  0.17683223343E+02  0.43225252023E+02  0.54737669455E+02  0.00000000000E+00 0.  1.
<mgrwt>
<rscale>  0 0.11868207E+03</rscale>
<asrwt>0</asrwt>
<pdfrwt beam="1">  1        1 0.25667276E-01 0.11868207E+03</pdfrwt>
<pdfrwt beam="2">  1       -1 0.32471603E-02 0.11868207E+03</pdfrwt>
<totfact> 0.55608574E+04</totfact>
</mgrwt>
</event>
<event>
 7    1  0.3345055E-009  0.9133771E+02  0.7818608E-02  0.1299644E+00
         -1   -1    0    0    0  501 -0.00000000000E+00  0.00000000000E+00  0.43194059224E+01  0.43194088628E+01  0.50400000000E-02 0.  1.
          1   -1    0    0  501    0  0.00000000000E+00 -0.00000000000E+00 -0.48285425492E+03  0.48285425495E+03  0.50400000000E-02 0. -1.
         23    2    1    2    0    0  0.44408920985E-15  0.00000000000E+00 -0.47853484900E+03  0.48717366381E+03  0.91337708556E+02 0.  0.
    9000005    2    3    3    0    0 -0.33906338277E+01  0.17627787579E+02 -0.46313303249E+03  0.46352094210E+03  0.61010398696E+01 0.  0.
         22    1    3    3    0    0  0.33906338277E+01 -0.17627787579E+02 -0.15401816512E+02  0.23652721715E+02  0.00000000000E+00 0.  1.
         22    1    4    4    0    0 -0.45049310703E+01  0.15242489440E+02 -0.35467625777E+03  0.35503221785E+03  0.00000000000E+00 0.  1.
         22    1    4    4    0    0  0.11142972426E+01  0.23852981389E+01 -0.10845677472E+03  0.10848872424E+03  0.00000000000E+00 0.  1.
<mgrwt>
<rscale>  0 0.91337709E+02</rscale>
<asrwt>0</asrwt>
<pdfrwt beam="2">  1        1 0.74285228E-01 0.91337709E+02</pdfrwt>
<pdfrwt beam="1">  1       -1 0.66452460E-03 0.91337709E+02</pdfrwt>
<totfact> 0.13802424E+05</totfact>
</mgrwt>
</event>
<event>
 7    1  0.3345055E-009  0.9022929E+02  0.7818608E-02  0.1302297E+00
         -1   -1    0    0    0  501 -0.00000000000E+00  0.00000000000E+00  0.36343494776E+02  0.36343495125E+02  0.50400000000E-02 0.  1.
          1   -1    0    0  501    0  0.00000000000E+00 -0.00000000000E+00 -0.56002627797E+02  0.56002628024E+02  0.50400000000E-02 0. -1.
         23    2    1    2    0    0  0.00000000000E+00 -0.35527136788E-14 -0.19659133021E+02  0.92346123149E+02  0.90229290973E+02 0.  0.
    9000005    2    3    3    0    0 -0.24374435896E+02 -0.25852146623E+02 -0.36675472854E+02  0.52950661081E+02  0.14008411387E+02 0.  0.
         22    1    3    3    0    0  0.24374435896E+02  0.25852146623E+02  0.17016339833E+02  0.39395462068E+02  0.00000000000E+00 0.  1.
         22    1    4    4    0    0 -0.12502875461E+02 -0.13077373972E+02 -0.28337227588E+02  0.33620500772E+02  0.00000000000E+00 0. -1.
         22    1    4    4    0    0 -0.11871560435E+02 -0.12774772651E+02 -0.83382452660E+01  0.19330160309E+02  0.00000000000E+00 0. -1.
<mgrwt>
<rscale>  0 0.90229291E+02</rscale>
<asrwt>0</asrwt>
<pdfrwt beam="2">  1        1 0.86157890E-02 0.90229291E+02</pdfrwt>
<pdfrwt beam="1">  1       -1 0.55913069E-02 0.90229291E+02</pdfrwt>
<totfact> 0.98181589E+04</totfact>
</mgrwt>
</event>
<event>
 7    1  0.3345055E-009  0.8882163E+02  0.7818608E-02  0.1305731E+00
          1   -1    0    0  501    0  0.00000000000E+00  0.00000000000E+00  0.10159145465E+03  0.10159145478E+03  0.50400000000E-02 0. -1.
         -1   -1    0    0    0  501 -0.00000000000E+00 -0.00000000000E+00 -0.19414234006E+02  0.19414234660E+02  0.50400000000E-02 0.  1.
         23    2    1    2    0    0  0.00000000000E+00 -0.35527136788E-14  0.82177220645E+02  0.12100568944E+03  0.88821626212E+02 0.  0.
    9000005    2    3    3    0    0  0.22990642728E+02 -0.20091475726E+02  0.84868309727E+02  0.90354767585E+02  0.53960151675E+01 0.  0.
         22    1    3    3    0    0 -0.22990642728E+02  0.20091475726E+02 -0.26910890814E+01  0.30650921851E+02  0.00000000000E+00 0.  1.
         22    1    4    4    0    0  0.16257513096E+02 -0.16791995035E+02  0.67682858935E+02  0.71604798882E+02  0.00000000000E+00 0.  1.
         22    1    4    4    0    0  0.67331296316E+01 -0.32994806904E+01  0.17185450792E+02  0.18749968703E+02  0.00000000000E+00 0.  1.
<mgrwt>
<rscale>  0 0.88821626E+02</rscale>
<asrwt>0</asrwt>
<pdfrwt beam="1">  1        1 0.15629455E-01 0.88821626E+02</pdfrwt>
<pdfrwt beam="2">  1       -1 0.29868053E-02 0.88821626E+02</pdfrwt>
<totfact> 0.11244779E+05</totfact>
</mgrwt>
</event>
<event>
 7    1  0.3345055E-009  0.9101347E+02  0.7818608E-02  0.1300416E+00
         -1   -1    0    0    0  501 -0.00000000000E+00  0.00000000000E+00  0.62115426764E+01  0.62115447211E+01  0.50400000000E-02 0.  1.
          1   -1    0    0  501    0  0.00000000000E+00 -0.00000000000E+00 -0.33338941709E+03  0.33338941713E+03  0.50400000000E-02 0. -1.
         23    2    1    2    0    0  0.00000000000E+00  0.00000000000E+00 -0.32717787442E+03  0.33960096185E+03  0.91013470339E+02 0.  0.
    9000005    2    3    3    0    0 -0.11773053459E+02 -0.40057394778E+02 -0.22759311112E+03  0.23161797827E+03  0.10250071256E+02 0.  0.
         22    1    3    3    0    0  0.11773053459E+02  0.40057394778E+02 -0.99584763293E+02  0.10798298359E+03  0.00000000000E+00 0.  1.
         22    1    4    4    0    0 -0.56551681469E+01 -0.25797434684E+02 -0.16669184997E+03  0.16877103250E+03  0.00000000000E+00 0.  1.
         22    1    4    4    0    0 -0.61178853122E+01 -0.14259960094E+02 -0.60901261151E+02  0.62846945768E+02  0.00000000000E+00 0.  1.
<mgrwt>
<rscale>  0 0.91013470E+02</rscale>
<asrwt>0</asrwt>
<pdfrwt beam="2">  1        1 0.51290666E-01 0.91013470E+02</pdfrwt>
<pdfrwt beam="1">  1       -1 0.95562237E-03 0.91013470E+02</pdfrwt>
<totfact> 0.13130333E+05</totfact>
</mgrwt>
</event>
<event>
 7    1  0.3345055E-009  0.9049214E+02  0.7818608E-02  0.1301664E+00
         -1   -1    0    0    0  501 -0.00000000000E+00  0.00000000000E+00  0.39214409048E+01  0.39214441436E+01  0.50400000000E-02 0.  1.
          1   -1    0    0  501    0  0.00000000000E+00 -0.00000000000E+00 -0.52205450763E+03  0.52205450765E+03  0.50400000000E-02 0. -1.
         23    2    1    2    0    0  0.00000000000E+00  0.00000000000E+00 -0.51813306672E+03  0.52597595180E+03  0.90492137977E+02 0.  0.
    9000005    2    3    3    0    0  0.25958075597E+02  0.26247981016E+02 -0.40681655718E+03  0.40869789122E+03  0.13094918636E+02 0.  0.
         22    1    3    3    0    0 -0.25958075597E+02 -0.26247981016E+02 -0.11131650955E+03  0.11727806058E+03  0.00000000000E+00 0.  1.
         22    1    4    4    0    0  0.48504180526E+01  0.13741641972E+02 -0.14059701610E+03  0.14135020416E+03  0.00000000000E+00 0. -1.
         22    1    4    4    0    0  0.21107657544E+02  0.12506339044E+02 -0.26621954108E+03  0.26734768706E+03  0.00000000000E+00 0. -1.
<mgrwt>
<rscale>  0 0.90492138E+02</rscale>
<asrwt>0</asrwt>
<pdfrwt beam="2">  1        1 0.80316023E-01 0.90492138E+02</pdfrwt>
<pdfrwt beam="1">  1       -1 0.60329927E-03 0.90492138E+02</pdfrwt>
<totfact> 0.14276178E+05</totfact>
</mgrwt>
</event>
<event>
 7    1  0.3345055E-009  0.8982315E+02  0.7818608E-02  0.1303281E+00
         -1   -1    0    0    0  501 -0.00000000000E+00  0.00000000000E+00  0.51149175731E+01  0.51149200562E+01  0.50400000000E-02 0.  1.
          1   -1    0    0  501    0  0.00000000000E+00 -0.00000000000E+00 -0.39434635012E+03  0.39434635015E+03  0.50400000000E-02 0. -1.
         23    2    1    2    0    0  0.00000000000E+00  0.00000000000E+00 -0.38923143255E+03  0.39946127021E+03  0.89823150212E+02 0.  0.
    9000005    2    3    3    0    0  0.41637307009E+02  0.11680652639E+02 -0.23317618622E+03  0.23752503928E+03  0.13300657278E+02 0.  0.
         22    1    3    3    0    0 -0.41637307009E+02 -0.11680652639E+02 -0.15605524633E+03  0.16193623093E+03  0.00000000000E+00 0.  1.
         22    1    4    4    0    0  0.20262409088E+02  0.11959766673E+02 -0.10760922463E+03  0.11015147055E+03  0.00000000000E+00 0.  1.
         22    1    4    4    0    0  0.21374897921E+02 -0.27911403414E+00 -0.12556696160E+03  0.12737356873E+03  0.00000000000E+00 0.  1.
<mgrwt>
<rscale>  0 0.89823150E+02</rscale>
<asrwt>0</asrwt>
<pdfrwt beam="2">  1        1 0.60668646E-01 0.89823150E+02</pdfrwt>
<pdfrwt beam="1">  1       -1 0.78691090E-03 0.89823150E+02</pdfrwt>
<totfact> 0.14002259E+05</totfact>
</mgrwt>
</event>
<event>
 7    1  0.3345055E-009  0.9043315E+02  0.7818608E-02  0.1301806E+00
         -1   -1    0    0    0  501 -0.00000000000E+00  0.00000000000E+00  0.53934276969E+02  0.53934277204E+02  0.50400000000E-02 0.  1.
          1   -1    0    0  501    0  0.00000000000E+00 -0.00000000000E+00 -0.37907962120E+02  0.37907962455E+02  0.50400000000E-02 0. -1.
         23    2    1    2    0    0  0.00000000000E+00  0.00000000000E+00  0.16026314849E+02  0.91842239659E+02  0.90433147783E+02 0.  0.
    9000005    2    3    3    0    0 -0.36748892170E+02  0.82986358926E+01 -0.16511522859E+02  0.42062130016E+02  0.87888543607E+01 0.  0.
         22    1    3    3    0    0  0.36748892170E+02 -0.82986358926E+01  0.32537837708E+02  0.49780109643E+02  0.00000000000E+00 0.  1.
         22    1    4    4    0    0 -0.10129267400E+02  0.59077046826E+01 -0.29500071946E+01  0.12091549740E+02  0.00000000000E+00 0.  1.
         22    1    4    4    0    0 -0.26619624770E+02  0.23909312099E+01 -0.13561515664E+02  0.29970580276E+02  0.00000000000E+00 0.  1.
<mgrwt>
<rscale>  0 0.90433148E+02</rscale>
<asrwt>0</asrwt>
<pdfrwt beam="2">  1        1 0.58319943E-02 0.90433148E+02</pdfrwt>
<pdfrwt beam="1">  1       -1 0.82975810E-02 0.90433148E+02</pdfrwt>
<totfact> 0.92031494E+04</totfact>
</mgrwt>
</event>
<event>
 7    1  0.3345055E-009  0.9159780E+02  0.7818608E-02  0.1299028E+00
          1   -1    0    0  501    0  0.00000000000E+00  0.00000000000E+00  0.30104910986E+03  0.30104910990E+03  0.50400000000E-02 0. -1.
         -1   -1    0    0    0  501 -0.00000000000E+00 -0.00000000000E+00 -0.69674307817E+01  0.69674326045E+01  0.50400000000E-02 0.  1.
         23    2    1    2    0    0  0.00000000000E+00  0.00000000000E+00  0.29408167908E+03  0.30801654250E+03  0.91597797398E+02 0.  0.
    9000005    2    3    3    0    0 -0.94201935045E+01  0.12698211252E+02  0.29129568568E+03  0.29196206108E+03  0.11776417061E+02 0.  0.
         22    1    3    3    0    0  0.94201935045E+01 -0.12698211252E+02  0.27859933970E+01  0.16054481427E+02  0.00000000000E+00 0.  1.
         22    1    4    4    0    0 -0.19668910327E+01 -0.17617628741E+00  0.12147390899E+03  0.12148995952E+03  0.00000000000E+00 0.  1.
         22    1    4    4    0    0 -0.74533024718E+01  0.12874387540E+02  0.16982177669E+03  0.17047210156E+03  0.00000000000E+00 0.  1.
<mgrwt>
<rscale>  0 0.91597797E+02</rscale>
<asrwt>0</asrwt>
<pdfrwt beam="1">  1        1 0.46315244E-01 0.91597797E+02</pdfrwt>
<pdfrwt beam="2">  1       -1 0.10719127E-02 0.91597797E+02</pdfrwt>
<totfact> 0.12664190E+05</totfact>
</mgrwt>
</event>
<event>
 7    1  0.3345055E-009  0.1049677E+03  0.7818608E-02  0.1270183E+00
         -1   -1    0    0    0  501 -0.00000000000E+00  0.00000000000E+00  0.33502628213E+01  0.33502666122E+01  0.50400000000E-02 0.  1.
          1   -1    0    0  501    0  0.00000000000E+00 -0.00000000000E+00 -0.82219023296E+03  0.82219023297E+03  0.50400000000E-02 0. -1.
         23    2    1    2    0    0  0.00000000000E+00  0.00000000000E+00 -0.81883997013E+03  0.82554049958E+03  0.10496770819E+03 0.  0.
    9000005    2    3    3    0    0 -0.33400972724E+02  0.36201085398E+02 -0.53297615445E+03  0.53546419121E+03  0.15237299335E+02 0.  0.
         22    1    3    3    0    0  0.33400972724E+02 -0.36201085398E+02 -0.28586381568E+03  0.29007630837E+03  0.00000000000E+00 0.  1.
         22    1    4    4    0    0 -0.20424096189E+02  0.11967850819E+02 -0.28000731507E+03  0.28100617369E+03  0.00000000000E+00 0.  1.
         22    1    4    4    0    0 -0.12976876534E+02  0.24233234579E+02 -0.25296883939E+03  0.25445801753E+03  0.00000000000E+00 0.  1.
<mgrwt>
<rscale>  0 0.10496771E+03</rscale>
<asrwt>0</asrwt>
<pdfrwt beam="2">  1        1 0.12649064E+00 0.10496771E+03</pdfrwt>
<pdfrwt beam="1">  1       -1 0.51542600E-03 0.10496771E+03</pdfrwt>
<totfact> 0.96868447E+04</totfact>
</mgrwt>
</event>
<event>
 7    1  0.3345055E-009  0.8749906E+02  0.7818608E-02  0.1309024E+00
         -1   -1    0    0    0  501 -0.00000000000E+00  0.00000000000E+00  0.10278193302E+02  0.10278194538E+02  0.50400000000E-02 0.  1.
          1   -1    0    0  501    0  0.00000000000E+00 -0.00000000000E+00 -0.18622155888E+03  0.18622155895E+03  0.50400000000E-02 0. -1.
         23    2    1    2    0    0  0.00000000000E+00  0.44408920985E-15 -0.17594336558E+03  0.19649975349E+03  0.87499058447E+02 0.  0.
    9000005    2    3    3    0    0 -0.10236785893E+02  0.35821299261E+01 -0.18304612347E+03  0.18353547140E+03  0.78589124891E+01 0.  0.
         22    1    3    3    0    0  0.10236785893E+02 -0.35821299261E+01  0.71027578926E+01  0.12964282082E+02  0.00000000000E+00 0.  1.
         22    1    4    4    0    0 -0.31885068123E+01  0.48550854567E+01 -0.10531993814E+03  0.10547998768E+03  0.00000000000E+00 0.  1.
         22    1    4    4    0    0 -0.70482790805E+01 -0.12729555306E+01 -0.77726185327E+02  0.78055483724E+02  0.00000000000E+00 0.  1.
<mgrwt>
<rscale>  0 0.87499058E+02</rscale>
<asrwt>0</asrwt>
<pdfrwt beam="2">  1        1 0.28649468E-01 0.87499058E+02</pdfrwt>
<pdfrwt beam="1">  1       -1 0.15812607E-02 0.87499058E+02</pdfrwt>
<totfact> 0.13039541E+05</totfact>
</mgrwt>
</event>
<event>
 7    1  0.3345055E-009  0.9180122E+02  0.7818608E-02  0.1298547E+00
         -1   -1    0    0    0  501 -0.00000000000E+00  0.00000000000E+00  0.17775071226E+02  0.17775071941E+02  0.50400000000E-02 0.  1.
          1   -1    0    0  501    0  0.00000000000E+00 -0.00000000000E+00 -0.11852924480E+03  0.11852924490E+03  0.50400000000E-02 0. -1.
         23    2    1    2    0    0  0.00000000000E+00  0.00000000000E+00 -0.10075417357E+03  0.13630431684E+03  0.91801216215E+02 0.  0.
    9000005    2    3    3    0    0 -0.23000564174E+02 -0.31848926836E+02 -0.84362760901E+02  0.93736036374E+02  0.11224481961E+02 0.  0.
         22    1    3    3    0    0  0.23000564174E+02  0.31848926836E+02 -0.16391412669E+02  0.42568280471E+02  0.00000000000E+00 0.  1.
         22    1    4    4    0    0 -0.19385944688E+02 -0.19456538165E+02 -0.63747948377E+02  0.69413058218E+02  0.00000000000E+00 0.  1.
         22    1    4    4    0    0 -0.36146194862E+01 -0.12392388671E+02 -0.20614812524E+02  0.24322978157E+02  0.00000000000E+00 0.  1.
<mgrwt>
<rscale>  0 0.91801216E+02</rscale>
<asrwt>0</asrwt>
<pdfrwt beam="2">  1        1 0.18235268E-01 0.91801216E+02</pdfrwt>
<pdfrwt beam="1">  1       -1 0.27346265E-02 0.91801216E+02</pdfrwt>
<totfact> 0.10553369E+05</totfact>
</mgrwt>
</event>
<event>
 7    1  0.3345055E-009  0.9254537E+02  0.7818608E-02  0.1296802E+00
         -1   -1    0    0    0  501 -0.00000000000E+00  0.00000000000E+00  0.17472226672E+02  0.17472227399E+02  0.50400000000E-02 0.  1.
          1   -1    0    0  501    0  0.00000000000E+00 -0.00000000000E+00 -0.12254657179E+03  0.12254657190E+03  0.50400000000E-02 0. -1.
         23    2    1    2    0    0 -0.35527136788E-14  0.00000000000E+00 -0.10507434512E+03  0.14001879930E+03  0.92545373485E+02 0.  0.
    9000005    2    3    3    0    0  0.30624111547E+02  0.34392328847E+02 -0.54614828494E+02  0.71704589135E+02  0.61725294668E+01 0.  0.
         22    1    3    3    0    0 -0.30624111547E+02 -0.34392328847E+02 -0.50459516627E+02  0.68314210160E+02  0.00000000000E+00 0. -1.
         22    1    4    4    0    0  0.10801002588E+02  0.16238288960E+02 -0.20898431878E+02  0.28584753632E+02  0.00000000000E+00 0.  1.
         22    1    4    4    0    0  0.19823108959E+02  0.18154039887E+02 -0.33716396617E+02  0.43119835503E+02  0.00000000000E+00 0.  1.
<mgrwt>
<rscale>  0 0.92545373E+02</rscale>
<asrwt>0</asrwt>
<pdfrwt beam="2">  1        1 0.18853318E-01 0.92545373E+02</pdfrwt>
<pdfrwt beam="1">  1       -1 0.26880350E-02 0.92545373E+02</pdfrwt>
<totfact> 0.10384657E+05</totfact>
</mgrwt>
</event>
<event>
 7    1  0.3345055E-009  0.8716154E+02  0.7818608E-02  0.1309875E+00
         -1   -1    0    0    0  501 -0.00000000000E+00  0.00000000000E+00  0.17601843594E+02  0.17601844316E+02  0.50400000000E-02 0. -1.
          1   -1    0    0  501    0  0.00000000000E+00 -0.00000000000E+00 -0.10790253337E+03  0.10790253349E+03  0.50400000000E-02 0.  1.
         23    2    1    2    0    0  0.00000000000E+00  0.00000000000E+00 -0.90300689777E+02  0.12550437780E+03  0.87161541254E+02 0.  0.
    9000005    2    3    3    0    0  0.17687764311E+02  0.26467062406E+01  0.88536741636E+01  0.24749973689E+02  0.14639384931E+02 0.  0.
         22    1    3    3    0    0 -0.17687764311E+02 -0.26467062406E+01 -0.99154363941E+02  0.10075440412E+03  0.00000000000E+00 0.  1.
         22    1    4    4    0    0  0.18049380763E+02 -0.59053921244E+00  0.10714727400E+02  0.20998434840E+02  0.00000000000E+00 0.  1.
         22    1    4    4    0    0 -0.36161645211E+00  0.32372454530E+01 -0.18610532364E+01  0.37515388483E+01  0.00000000000E+00 0.  1.
<mgrwt>
<rscale>  0 0.87161541E+02</rscale>
<asrwt>0</asrwt>
<pdfrwt beam="2">  1        1 0.16600389E-01 0.87161541E+02</pdfrwt>
<pdfrwt beam="1">  1       -1 0.27079761E-02 0.87161541E+02</pdfrwt>
<totfact> 0.11952682E+05</totfact>
</mgrwt>
</event>
<event>
 7    1  0.3345055E-009  0.1103882E+03  0.7818608E-02  0.1259853E+00
          1   -1    0    0  501    0  0.00000000000E+00  0.00000000000E+00  0.10402184327E+04  0.10402184327E+04  0.50400000000E-02 0. -1.
         -1   -1    0    0    0  501 -0.00000000000E+00 -0.00000000000E+00 -0.29286038768E+01  0.29286082136E+01  0.50400000000E-02 0.  1.
         23    2    1    2    0    0  0.00000000000E+00  0.00000000000E+00  0.10372898288E+04  0.10431470409E+04  0.11038822406E+03 0.  0.
    9000005    2    3    3    0    0 -0.16462393845E+02 -0.14464622134E+02  0.99715444792E+03  0.99741866347E+03  0.68382397539E+01 0.  0.
         22    1    3    3    0    0  0.16462393845E+02  0.14464622134E+02  0.40135380896E+02  0.45728377451E+02  0.00000000000E+00 0.  1.
         22    1    4    4    0    0 -0.78204900023E+01 -0.10847285449E+02  0.51759697691E+03  0.51776969221E+03  0.00000000000E+00 0. -1.
         22    1    4    4    0    0 -0.86419038429E+01 -0.36173366858E+01  0.47955747101E+03  0.47964897126E+03  0.00000000000E+00 0. -1.
<mgrwt>
<rscale>  0 0.11038822E+03</rscale>
<asrwt>0</asrwt>
<pdfrwt beam="1">  1        1 0.16003400E+00 0.11038822E+03</pdfrwt>
<pdfrwt beam="2">  1       -1 0.45055366E-03 0.11038822E+03</pdfrwt>
<totfact> 0.80759760E+04</totfact>
</mgrwt>
</event>
<event>
 7    1  0.3345055E-009  0.8997666E+02  0.7818608E-02  0.1302908E+00
         -1   -1    0    0    0  501 -0.00000000000E+00  0.00000000000E+00  0.90867264371E+02  0.90867264510E+02  0.50400000000E-02 0.  1.
          1   -1    0    0  501    0  0.00000000000E+00 -0.00000000000E+00 -0.22273694506E+02  0.22273695076E+02  0.50400000000E-02 0. -1.
         23    2    1    2    0    0  0.00000000000E+00  0.00000000000E+00  0.68593569865E+02  0.11314095959E+03  0.89976657580E+02 0.  0.
    9000005    2    3    3    0    0 -0.10340422885E+02  0.41808580198E+02  0.46032244284E+02  0.64521054860E+02  0.13751991959E+02 0.  0.
         22    1    3    3    0    0  0.10340422885E+02 -0.41808580198E+02  0.22561325581E+02  0.48619904726E+02  0.00000000000E+00 0. -1.
         22    1    4    4    0    0 -0.87776041953E+01  0.38517344860E+02  0.34574216655E+02  0.52497701357E+02  0.00000000000E+00 0.  1.
         22    1    4    4    0    0 -0.15628186900E+01  0.32912353377E+01  0.11458027629E+02  0.12023353503E+02  0.00000000000E+00 0.  1.
<mgrwt>
<rscale>  0 0.89976658E+02</rscale>
<asrwt>0</asrwt>
<pdfrwt beam="2">  1        1 0.34267224E-02 0.89976658E+02</pdfrwt>
<pdfrwt beam="1">  1       -1 0.13979579E-01 0.89976658E+02</pdfrwt>
<totfact> 0.85665048E+04</totfact>
</mgrwt>
</event>
<event>
 7    1  0.3345055E-009  0.8824655E+02  0.7818608E-02  0.1307154E+00
         -1   -1    0    0    0  501 -0.00000000000E+00  0.00000000000E+00  0.51758243486E+02  0.51758243731E+02  0.50400000000E-02 0.  1.
          1   -1    0    0  501    0  0.00000000000E+00 -0.00000000000E+00 -0.37614554815E+02  0.37614555152E+02  0.50400000000E-02 0. -1.
         23    2    1    2    0    0  0.00000000000E+00 -0.35527136788E-14  0.14143688671E+02  0.89372798883E+02  0.88246548097E+02 0.  0.
    9000005    2    3    3    0    0 -0.10537271789E+02 -0.26814879989E+02 -0.25758829538E+02  0.40156106136E+02  0.10905213212E+02 0.  0.
         22    1    3    3    0    0  0.10537271789E+02  0.26814879989E+02  0.39902518209E+02  0.49216692748E+02  0.00000000000E+00 0.  1.
         22    1    4    4    0    0 -0.14748383014E+01 -0.27916509910E+01 -0.88919238404E+01  0.94358239097E+01  0.00000000000E+00 0.  1.
         22    1    4    4    0    0 -0.90624334874E+01 -0.24023228998E+02 -0.16866905698E+02  0.30720282226E+02  0.00000000000E+00 0.  1.
<mgrwt>
<rscale>  0 0.88246548E+02</rscale>
<asrwt>0</asrwt>
<pdfrwt beam="2">  1        1 0.57868547E-02 0.88246548E+02</pdfrwt>
<pdfrwt beam="1">  1       -1 0.79628067E-02 0.88246548E+02</pdfrwt>
<totfact> 0.98494218E+04</totfact>
</mgrwt>
</event>
<event>
 7    1  0.3345055E-009  0.9045925E+02  0.7818608E-02  0.1301743E+00
         -1   -1    0    0    0  501 -0.00000000000E+00  0.00000000000E+00  0.74406012152E+01  0.74406029221E+01  0.50400000000E-02 0.  1.
          1   -1    0    0  501    0  0.00000000000E+00 -0.00000000000E+00 -0.27493998701E+03  0.27493998705E+03  0.50400000000E-02 0. -1.
         23    2    1    2    0    0  0.00000000000E+00  0.00000000000E+00 -0.26749938579E+03  0.28238058998E+03  0.90459251577E+02 0.  0.
    9000005    2    3    3    0    0  0.36578706244E+02  0.41165008571E+01 -0.21465776132E+03  0.21798195174E+03  0.91230181226E+01 0.  0.
         22    1    3    3    0    0 -0.36578706244E+02 -0.41165008571E+01 -0.52841624472E+02  0.64398638236E+02  0.00000000000E+00 0.  1.
         22    1    4    4    0    0  0.67195386947E+01  0.33699079416E+01 -0.30195031257E+02  0.31116689934E+02  0.00000000000E+00 0. -1.
         22    1    4    4    0    0  0.29859167549E+02  0.74659291551E+00 -0.18446273006E+03  0.18686526181E+03  0.00000000000E+00 0. -1.
<mgrwt>
<rscale>  0 0.90459252E+02</rscale>
<asrwt>0</asrwt>
<pdfrwt beam="2">  1        1 0.42298452E-01 0.90459252E+02</pdfrwt>
<pdfrwt beam="1">  1       -1 0.11447082E-02 0.90459252E+02</pdfrwt>
<totfact> 0.12866790E+05</totfact>
</mgrwt>
</event>
<event>
 7    1  0.3345055E-009  0.9196080E+02  0.7818608E-02  0.1298172E+00
         -1   -1    0    0    0  501 -0.00000000000E+00  0.00000000000E+00  0.15495139810E+02  0.15495140630E+02  0.50400000000E-02 0.  1.
          1   -1    0    0  501    0  0.00000000000E+00 -0.00000000000E+00 -0.13644260022E+03  0.13644260031E+03  0.50400000000E-02 0. -1.
         23    2    1    2    0    0 -0.88817841970E-15 -0.35527136788E-14 -0.12094746041E+03  0.15193774094E+03  0.91960801122E+02 0.  0.
    9000005    2    3    3    0    0  0.48191029067E+01  0.30230768979E+02 -0.11633366863E+03  0.12097953976E+03  0.12860926722E+02 0.  0.
         22    1    3    3    0    0 -0.48191029067E+01 -0.30230768979E+02 -0.46137917718E+01  0.30958201182E+02  0.00000000000E+00 0.  1.
         22    1    4    4    0    0  0.54265846546E+01  0.15095650247E+02 -0.38891140672E+02  0.42069553126E+02  0.00000000000E+00 0.  1.
         22    1    4    4    0    0 -0.60748174783E+00  0.15135118732E+02 -0.77442527962E+02  0.78909986632E+02  0.00000000000E+00 0.  1.
<mgrwt>
<rscale>  0 0.91960801E+02</rscale>
<asrwt>0</asrwt>
<pdfrwt beam="2">  1        1 0.20991169E-01 0.91960801E+02</pdfrwt>
<pdfrwt beam="1">  1       -1 0.23838678E-02 0.91960801E+02</pdfrwt>
<totfact> 0.10769144E+05</totfact>
</mgrwt>
</event>
<event>
 7    1  0.3345055E-009  0.8749549E+02  0.7818608E-02  0.1309033E+00
         -1   -1    0    0    0  501 -0.00000000000E+00  0.00000000000E+00  0.24340342178E+02  0.24340342700E+02  0.50400000000E-02 0.  1.
          1   -1    0    0  501    0  0.00000000000E+00 -0.00000000000E+00 -0.78629342074E+02  0.78629342235E+02  0.50400000000E-02 0. -1.
         23    2    1    2    0    0 -0.17763568394E-14  0.00000000000E+00 -0.54288999896E+02  0.10296968494E+03  0.87495488489E+02 0.  0.
    9000005    2    3    3    0    0  0.11881768399E+02  0.17798148679E+02 -0.71118718625E+02  0.75744881002E+02  0.14881678082E+02 0.  0.
         22    1    3    3    0    0 -0.11881768399E+02 -0.17798148679E+02  0.16829718729E+02  0.27224803933E+02  0.00000000000E+00 0.  1.
         22    1    4    4    0    0 -0.21929543449E+01  0.28468642285E+01 -0.25059097416E+02  0.25315450776E+02  0.00000000000E+00 0.  1.
         22    1    4    4    0    0  0.14074722744E+02  0.14951284451E+02 -0.46059621209E+02  0.50429430226E+02  0.00000000000E+00 0.  1.
<mgrwt>
<rscale>  0 0.87495488E+02</rscale>
<asrwt>0</asrwt>
<pdfrwt beam="2">  1        1 0.12096822E-01 0.87495488E+02</pdfrwt>
<pdfrwt beam="1">  1       -1 0.37446681E-02 0.87495488E+02</pdfrwt>
<totfact> 0.11246416E+05</totfact>
</mgrwt>
</event>
<event>
 7    1  0.3345055E-009  0.8558325E+02  0.7818608E-02  0.1313914E+00
         -1   -1    0    0    0  501 -0.00000000000E+00  0.00000000000E+00  0.70113486671E+01  0.70113504786E+01  0.50400000000E-02 0.  1.
          1   -1    0    0  501    0  0.00000000000E+00 -0.00000000000E+00 -0.26116558389E+03  0.26116558394E+03  0.50400000000E-02 0. -1.
         23    2    1    2    0    0  0.00000000000E+00  0.00000000000E+00 -0.25415423522E+03  0.26817693442E+03  0.85583251116E+02 0.  0.
    9000005    2    3    3    0    0  0.14333176603E+02  0.35509685978E+02 -0.72418229544E+02  0.82450378669E+02  0.93427631182E+01 0.  0.
         22    1    3    3    0    0 -0.14333176603E+02 -0.35509685978E+02 -0.18173600568E+03  0.18572655575E+03  0.00000000000E+00 0. -1.
         22    1    4    4    0    0  0.98494435905E+00  0.12052491060E+02 -0.17677494100E+02  0.21417900312E+02  0.00000000000E+00 0.  1.
         22    1    4    4    0    0  0.13348232244E+02  0.23457194918E+02 -0.54740735444E+02  0.61032478357E+02  0.00000000000E+00 0.  1.
<mgrwt>
<rscale>  0 0.85583251E+02</rscale>
<asrwt>0</asrwt>
<pdfrwt beam="2">  1        1 0.40179313E-01 0.85583251E+02</pdfrwt>
<pdfrwt beam="1">  1       -1 0.10786694E-02 0.85583251E+02</pdfrwt>
<totfact> 0.14760158E+05</totfact>
</mgrwt>
</event>
<event>
 7    1  0.4901486E-009  0.9425576E+02  0.7818608E-02  0.1292861E+00
         -1   -1    0    0    0  501 -0.00000000000E+00  0.00000000000E+00  0.91079081227E+01  0.91079095172E+01  0.50400000000E-02 0.  1.
          1   -1    0    0  501    0  0.00000000000E+00 -0.00000000000E+00 -0.24385808392E+03  0.24385808397E+03  0.50400000000E-02 0. -1.
         23    2    1    2    0    0  0.00000000000E+00  0.00000000000E+00 -0.23475017579E+03  0.25296599348E+03  0.94255762821E+02 0.  0.
    9000005    2    3    3    0    0  0.45100988866E+01 -0.36801702339E+02 -0.19366778568E+03  0.19762641394E+03  0.13201590380E+02 0.  0.
         22    1    3    3    0    0 -0.45100988866E+01  0.36801702339E+02 -0.41082390109E+02  0.55339579544E+02  0.00000000000E+00 0. -1.
         22    1    4    4    0    0  0.89790548101E+01 -0.19400932039E+02 -0.10782380100E+03  0.10992266213E+03  0.00000000000E+00 0. -1.
         22    1    4    4    0    0 -0.44689559235E+01 -0.17400770300E+02 -0.85843984687E+02  0.87703751807E+02  0.00000000000E+00 0. -1.
<mgrwt>
<rscale>  0 0.94255763E+02</rscale>
<asrwt>0</asrwt>
<pdfrwt beam="2">  1        1 0.37516624E-01 0.94255763E+02</pdfrwt>
<pdfrwt beam="1">  1       -1 0.14012169E-02 0.94255763E+02</pdfrwt>
<totfact> 0.11259480E+05</totfact>
</mgrwt>
</event>
<event>
 7    1  0.3345055E-009  0.8896524E+02  0.7818608E-02  0.1305377E+00
         -1   -1    0    0    0  501 -0.00000000000E+00  0.00000000000E+00  0.11183226671E+03  0.11183226682E+03  0.50400000000E-02 0.  1.
          1   -1    0    0  501    0  0.00000000000E+00 -0.00000000000E+00 -0.17693491405E+02  0.17693492123E+02  0.50400000000E-02 0. -1.
         23    2    1    2    0    0  0.00000000000E+00  0.00000000000E+00  0.94138775305E+02  0.12952575895E+03  0.88965235991E+02 0.  0.
    9000005    2    3    3    0    0 -0.18873089312E+02  0.33185176340E+02  0.18823075478E+02  0.45086999663E+02  0.14868757153E+02 0.  0.
         22    1    3    3    0    0  0.18873089312E+02 -0.33185176340E+02  0.75315699827E+02  0.84438759284E+02  0.00000000000E+00 0.  1.
         22    1    4    4    0    0 -0.39968481191E+01  0.19562214867E+02  0.48451682615E+01  0.20545819548E+02  0.00000000000E+00 0.  1.
         22    1    4    4    0    0 -0.14876241193E+02  0.13622961473E+02  0.13977907216E+02  0.24541180116E+02  0.00000000000E+00 0.  1.
<mgrwt>
<rscale>  0 0.88965236E+02</rscale>
<asrwt>0</asrwt>
<pdfrwt beam="2">  1        1 0.27220757E-02 0.88965236E+02</pdfrwt>
<pdfrwt beam="1">  1       -1 0.17204964E-01 0.88965236E+02</pdfrwt>
<totfact> 0.84854116E+04</totfact>
</mgrwt>
</event>
<event>
 7    1  0.3345055E-009  0.9049609E+02  0.7818608E-02  0.1301655E+00
          1   -1    0    0  501    0  0.00000000000E+00  0.00000000000E+00  0.10659850274E+03  0.10659850286E+03  0.50400000000E-02 0. -1.
         -1   -1    0    0    0  501 -0.00000000000E+00 -0.00000000000E+00 -0.19206511351E+02  0.19206512012E+02  0.50400000000E-02 0.  1.
         23    2    1    2    0    0  0.88817841970E-15  0.71054273576E-14  0.87391991393E+02  0.12580501488E+03  0.90496086149E+02 0.  0.
    9000005    2    3    3    0    0  0.78521797606E+01  0.43121405019E+02  0.41569573945E+02  0.62395187258E+02  0.15621063252E+02 0.  0.
         22    1    3    3    0    0 -0.78521797606E+01 -0.43121405019E+02  0.45822417448E+02  0.63409827618E+02  0.00000000000E+00 0. -1.
         22    1    4    4    0    0  0.67450675451E+01  0.43811663387E+02  0.37307702502E+02  0.57938091536E+02  0.00000000000E+00 0.  1.
         22    1    4    4    0    0  0.11071122155E+01 -0.69025836747E+00  0.42618714436E+01  0.44570957218E+01  0.00000000000E+00 0.  1.
<mgrwt>
<rscale>  0 0.90496086E+02</rscale>
<asrwt>0</asrwt>
<pdfrwt beam="1">  1        1 0.16399770E-01 0.90496086E+02</pdfrwt>
<pdfrwt beam="2">  1       -1 0.29548479E-02 0.90496086E+02</pdfrwt>
<totfact> 0.10774898E+05</totfact>
</mgrwt>
</event>
<event>
 7    1  0.3345055E-009  0.9808229E+02  0.7818608E-02  0.1284381E+00
         -1   -1    0    0    0  501 -0.00000000000E+00  0.00000000000E+00  0.17108829609E+02  0.17108830351E+02  0.50400000000E-02 0.  1.
          1   -1    0    0  501    0  0.00000000000E+00 -0.00000000000E+00 -0.14057265655E+03  0.14057265664E+03  0.50400000000E-02 0. -1.
         23    2    1    2    0    0  0.35527136788E-14  0.00000000000E+00 -0.12346382694E+03  0.15768148700E+03  0.98082285746E+02 0.  0.
    9000005    2    3    3    0    0 -0.30752080701E+02 -0.20251664768E+02 -0.11377416433E+03  0.11960643013E+03  0.23059201511E+01 0.  0.
         22    1    3    3    0    0  0.30752080701E+02  0.20251664768E+02 -0.96896626173E+01  0.38075056861E+02  0.00000000000E+00 0.  1.
         22    1    4    4    0    0 -0.24187233171E+02 -0.17026598607E+02 -0.91069776489E+02  0.95752971225E+02  0.00000000000E+00 0. -1.
         22    1    4    4    0    0 -0.65648475302E+01 -0.32250661610E+01 -0.22704387838E+02  0.23853458910E+02  0.00000000000E+00 0. -1.
<mgrwt>
<rscale>  0 0.98082286E+02</rscale>
<asrwt>0</asrwt>
<pdfrwt beam="2">  1        1 0.21626562E-01 0.98082286E+02</pdfrwt>
<pdfrwt beam="1">  1       -1 0.26321278E-02 0.98082286E+02</pdfrwt>
<totfact> 0.90885000E+04</totfact>
</mgrwt>
</event>
<event>
 7    1  0.3345055E-009  0.8986869E+02  0.7818608E-02  0.1303170E+00
         -1   -1    0    0    0  501 -0.00000000000E+00  0.00000000000E+00  0.20304162277E+01  0.20304224830E+01  0.50400000000E-02 0.  1.
          1   -1    0    0  501    0  0.00000000000E+00 -0.00000000000E+00 -0.99442284673E+03  0.99442284674E+03  0.50400000000E-02 0. -1.
         23    2    1    2    0    0 -0.17763568394E-14  0.00000000000E+00 -0.99239243050E+03  0.99645326923E+03  0.89868691058E+02 0.  0.
    9000005    2    3    3    0    0  0.10964308984E+02  0.30063195636E+02 -0.84072548260E+03  0.84144722131E+03  0.13786854620E+02 0.  0.
         22    1    3    3    0    0 -0.10964308984E+02 -0.30063195636E+02 -0.15166694791E+03  0.15500604792E+03  0.00000000000E+00 0.  1.
         22    1    4    4    0    0  0.24698958870E+01  0.12515910783E+02 -0.18891212795E+03  0.18934238958E+03  0.00000000000E+00 0.  1.
         22    1    4    4    0    0  0.84944130966E+01  0.17547284853E+02 -0.65181335465E+03  0.65210483173E+03  0.00000000000E+00 0.  1.
<mgrwt>
<rscale>  0 0.89868691E+02</rscale>
<asrwt>0</asrwt>
<pdfrwt beam="2">  1        1 0.15298774E+00 0.89868691E+02</pdfrwt>
<pdfrwt beam="1">  1       -1 0.31237300E-03 0.89868691E+02</pdfrwt>
<totfact> 0.14151671E+05</totfact>
</mgrwt>
</event>
<event>
 7    1  0.3345055E-009  0.9108221E+02  0.7818608E-02  0.1300252E+00
         -1   -1    0    0    0  501 -0.00000000000E+00  0.00000000000E+00  0.12919844589E+01  0.12919942893E+01  0.50400000000E-02 0.  1.
          1   -1    0    0  501    0  0.00000000000E+00 -0.00000000000E+00 -0.16052702152E+04  0.16052702152E+04  0.50400000000E-02 0. -1.
         23    2    1    2    0    0 -0.19428902931E-15  0.00000000000E+00 -0.16039782308E+04  0.16065622095E+04  0.91082206239E+02 0.  0.
    9000005    2    3    3    0    0  0.10950307702E+00 -0.23699438659E+02 -0.14852407685E+04  0.14854826475E+04  0.12525188765E+02 0.  0.
         22    1    3    3    0    0 -0.10950307702E+00  0.23699438659E+02 -0.11873746227E+03  0.12107956198E+03  0.00000000000E+00 0.  1.
         22    1    4    4    0    0 -0.34245138003E+01 -0.52152251885E+01 -0.18388092755E+03  0.18398674241E+03  0.00000000000E+00 0. -1.
         22    1    4    4    0    0  0.35340168774E+01 -0.18484213470E+02 -0.13013598410E+04  0.13014959051E+04  0.00000000000E+00 0. -1.
<mgrwt>
<rscale>  0 0.91082206E+02</rscale>
<asrwt>0</asrwt>
<pdfrwt beam="2">  1        1 0.24696305E+00 0.91082206E+02</pdfrwt>
<pdfrwt beam="1">  1       -1 0.19876888E-03 0.91082206E+02</pdfrwt>
<totfact> 0.10436374E+05</totfact>
</mgrwt>
</event>
<event>
 7    1  0.3345055E-009  0.9652312E+02  0.7818608E-02  0.1287782E+00
          1   -1    0    0  501    0  0.00000000000E+00  0.00000000000E+00  0.16982065912E+03  0.16982065919E+03  0.50400000000E-02 0. -1.
         -1   -1    0    0    0  501 -0.00000000000E+00 -0.00000000000E+00 -0.13715517637E+02  0.13715518563E+02  0.50400000000E-02 0.  1.
         23    2    1    2    0    0  0.00000000000E+00  0.00000000000E+00  0.15610514148E+03  0.18353617775E+03  0.96523123387E+02 0.  0.
    9000005    2    3    3    0    0  0.24597150273E+01  0.45921990025E+02  0.10210804200E+03  0.11260969386E+03  0.11832647362E+02 0.  0.
         22    1    3    3    0    0 -0.24597150273E+01 -0.45921990025E+02  0.53997099477E+02  0.70926483895E+02  0.00000000000E+00 0.  1.
         22    1    4    4    0    0  0.67416197282E+00  0.25771537464E+01  0.15685141075E+02  0.15909741240E+02  0.00000000000E+00 0.  1.
         22    1    4    4    0    0  0.17855530545E+01  0.43344836278E+02  0.86422900927E+02  0.96699952618E+02  0.00000000000E+00 0.  1.
<mgrwt>
<rscale>  0 0.96523123E+02</rscale>
<asrwt>0</asrwt>
<pdfrwt beam="1">  1        1 0.26126255E-01 0.96523123E+02</pdfrwt>
<pdfrwt beam="2">  1       -1 0.21100797E-02 0.96523123E+02</pdfrwt>
<totfact> 0.98382926E+04</totfact>
</mgrwt>
</event>
<event>
 7    1  0.3345055E-009  0.9249434E+02  0.7818608E-02  0.1296921E+00
          1   -1    0    0  501    0  0.00000000000E+00  0.00000000000E+00  0.56594461835E+02  0.56594462059E+02  0.50400000000E-02 0. -1.
         -1   -1    0    0    0  501 -0.00000000000E+00 -0.00000000000E+00 -0.37791699351E+02  0.37791699687E+02  0.50400000000E-02 0.  1.
         23    2    1    2    0    0  0.00000000000E+00  0.00000000000E+00  0.18802762484E+02  0.94386161746E+02  0.92494343892E+02 0.  0.
    9000005    2    3    3    0    0 -0.23899803587E+02  0.39105832826E+02  0.71881555055E+01  0.47106505785E+02  0.81784188739E+01 0.  0.
         22    1    3    3    0    0  0.23899803587E+02 -0.39105832826E+02  0.11614606979E+02  0.47279655960E+02  0.00000000000E+00 0.  1.
         22    1    4    4    0    0 -0.14134652687E+02  0.23998895040E+02  0.32640711601E+00  0.27853938883E+02  0.00000000000E+00 0.  1.
         22    1    4    4    0    0 -0.97651508995E+01  0.15106937786E+02  0.68617483895E+01  0.19252566902E+02  0.00000000000E+00 0.  1.
<mgrwt>
<rscale>  0 0.92494344E+02</rscale>
<asrwt>0</asrwt>
<pdfrwt beam="1">  1        1 0.87068403E-02 0.92494344E+02</pdfrwt>
<pdfrwt beam="2">  1       -1 0.58141076E-02 0.92494344E+02</pdfrwt>
<totfact> 0.91782188E+04</totfact>
</mgrwt>
</event>
<event>
 7    1  0.3345055E-009  0.9055835E+02  0.7818608E-02  0.1301505E+00
          1   -1    0    0  501    0  0.00000000000E+00  0.00000000000E+00  0.21223289884E+02  0.21223290482E+02  0.50400000000E-02 0. -1.
         -1   -1    0    0    0  501 -0.00000000000E+00 -0.00000000000E+00 -0.96601593954E+02  0.96601594085E+02  0.50400000000E-02 0.  1.
         23    2    1    2    0    0  0.00000000000E+00  0.00000000000E+00 -0.75378304070E+02  0.11782488457E+03  0.90558349692E+02 0.  0.
    9000005    2    3    3    0    0  0.28051548396E+02 -0.19948423097E+02 -0.75353463083E+02  0.83403531187E+02  0.96527542437E+01 0.  0.
         22    1    3    3    0    0 -0.28051548396E+02  0.19948423097E+02 -0.24840986725E-01  0.34421353380E+02  0.00000000000E+00 0. -1.
         22    1    4    4    0    0  0.13096977259E+02 -0.77316716343E+01 -0.44276088567E+02  0.46815398945E+02  0.00000000000E+00 0. -1.
         22    1    4    4    0    0  0.14954571137E+02 -0.12216751462E+02 -0.31077374516E+02  0.36588132242E+02  0.00000000000E+00 0. -1.
<mgrwt>
<rscale>  0 0.90558350E+02</rscale>
<asrwt>0</asrwt>
<pdfrwt beam="1">  1        1 0.32651216E-02 0.90558350E+02</pdfrwt>
<pdfrwt beam="2">  1       -1 0.14861784E-01 0.90558350E+02</pdfrwt>
<totfact> 0.83337050E+04</totfact>
</mgrwt>
</event>
<event>
 7    1  0.3345055E-009  0.9063166E+02  0.7818608E-02  0.1301329E+00
         -1   -1    0    0    0  501 -0.00000000000E+00  0.00000000000E+00  0.11217906914E+02  0.11217908046E+02  0.50400000000E-02 0.  1.
          1   -1    0    0  501    0  0.00000000000E+00 -0.00000000000E+00 -0.18305771244E+03  0.18305771251E+03  0.50400000000E-02 0. -1.
         23    2    1    2    0    0  0.00000000000E+00  0.00000000000E+00 -0.17183980553E+03  0.19427562056E+03  0.90631661019E+02 0.  0.
    9000005    2    3    3    0    0  0.21106471894E+02  0.25379614188E+02 -0.24618285706E+02  0.43398903099E+02  0.13703898241E+02 0.  0.
         22    1    3    3    0    0 -0.21106471894E+02 -0.25379614188E+02 -0.14722151982E+03  0.15087671746E+03  0.00000000000E+00 0. -1.
         22    1    4    4    0    0  0.46030810995E+01  0.53384421219E+01 -0.13351124568E+02  0.15097676879E+02  0.00000000000E+00 0.  1.
         22    1    4    4    0    0  0.16503390795E+02  0.20041172066E+02 -0.11267161138E+02  0.28301226221E+02  0.00000000000E+00 0.  1.
<mgrwt>
<rscale>  0 0.90631661E+02</rscale>
<asrwt>0</asrwt>
<pdfrwt beam="2">  1        1 0.28162723E-01 0.90631661E+02</pdfrwt>
<pdfrwt beam="1">  1       -1 0.17258321E-02 0.90631661E+02</pdfrwt>
<totfact> 0.11829017E+05</totfact>
</mgrwt>
</event>
<event>
 7    1  0.3345055E-009  0.8884711E+02  0.7818608E-02  0.1305668E+00
         -1   -1    0    0    0  501 -0.00000000000E+00  0.00000000000E+00  0.64614287322E+03  0.64614287324E+03  0.50400000000E-02 0.  1.
          1   -1    0    0  501    0  0.00000000000E+00 -0.00000000000E+00 -0.30542018013E+01  0.30542059598E+01  0.50400000000E-02 0. -1.
         23    2    1    2    0    0  0.00000000000E+00  0.71054273576E-14  0.64308867142E+03  0.64919707920E+03  0.88847106503E+02 0.  0.
    9000005    2    3    3    0    0 -0.17527707447E+02  0.38504708458E+02  0.40312266558E+03  0.40553026353E+03  0.12533077437E+02 0.  0.
         22    1    3    3    0    0  0.17527707447E+02 -0.38504708458E+02  0.23996600583E+03  0.24366681567E+03  0.00000000000E+00 0. -1.
         22    1    4    4    0    0 -0.17965386816E+02  0.37091015886E+02  0.35490276282E+03  0.35728765672E+03  0.00000000000E+00 0.  1.
         22    1    4    4    0    0  0.43767936826E+00  0.14136925717E+01  0.48219902757E+02  0.48242606810E+02  0.00000000000E+00 0.  1.
<mgrwt>
<rscale>  0 0.88847107E+02</rscale>
<asrwt>0</asrwt>
<pdfrwt beam="2">  1        1 0.46987741E-03 0.88847107E+02</pdfrwt>
<pdfrwt beam="1">  1       -1 0.99406620E-01 0.88847107E+02</pdfrwt>
<totfact> 0.42107416E+04</totfact>
</mgrwt>
</event>
<event>
 7    1  0.3345055E-009  0.9373446E+02  0.7818608E-02  0.1294052E+00
          1   -1    0    0  501    0  0.00000000000E+00  0.00000000000E+00  0.61276678601E+02  0.61276678808E+02  0.50400000000E-02 0. -1.
         -1   -1    0    0    0  501 -0.00000000000E+00 -0.00000000000E+00 -0.35846221448E+02  0.35846221802E+02  0.50400000000E-02 0.  1.
         23    2    1    2    0    0  0.35527136788E-14  0.00000000000E+00  0.25430457153E+02  0.97122900610E+02  0.93734463630E+02 0.  0.
    9000005    2    3    3    0    0  0.27834186465E+02  0.17784788887E+02 -0.20905016532E+02  0.40219326263E+02  0.94622321330E+01 0.  0.
         22    1    3    3    0    0 -0.27834186465E+02 -0.17784788887E+02  0.46335473685E+02  0.56903574347E+02  0.00000000000E+00 0. -1.
         22    1    4    4    0    0  0.11368494996E+02  0.10487542638E+02 -0.51836125385E+01  0.16312604574E+02  0.00000000000E+00 0.  1.
         22    1    4    4    0    0  0.16465691469E+02  0.72972462491E+01 -0.15721403994E+02  0.23906721689E+02  0.00000000000E+00 0.  1.
<mgrwt>
<rscale>  0 0.93734464E+02</rscale>
<asrwt>0</asrwt>
<pdfrwt beam="1">  1        1 0.94271813E-02 0.93734464E+02</pdfrwt>
<pdfrwt beam="2">  1       -1 0.55148034E-02 0.93734464E+02</pdfrwt>
<totfact> 0.89522892E+04</totfact>
</mgrwt>
</event>
<event>
 7    1  0.3345055E-009  0.9149387E+02  0.7818608E-02  0.1299274E+00
          1   -1    0    0  501    0  0.00000000000E+00  0.00000000000E+00  0.27041660598E+02  0.27041661068E+02  0.50400000000E-02 0. -1.
         -1   -1    0    0    0  501 -0.00000000000E+00 -0.00000000000E+00 -0.77391036117E+02  0.77391036281E+02  0.50400000000E-02 0.  1.
         23    2    1    2    0    0  0.00000000000E+00  0.00000000000E+00 -0.50349375519E+02  0.10443269735E+03  0.91493872256E+02 0.  0.
    9000005    2    3    3    0    0  0.80405499394E+01  0.38595793759E+02  0.99762479705E+00  0.39696307423E+02  0.45294402033E+01 0.  0.
         22    1    3    3    0    0 -0.80405499394E+01 -0.38595793759E+02 -0.51347000316E+02  0.64736389926E+02  0.00000000000E+00 0.  1.
         22    1    4    4    0    0  0.83197707296E+01  0.38477441928E+02  0.10820575069E+01  0.39381505440E+02  0.00000000000E+00 0. -1.
         22    1    4    4    0    0 -0.27922079022E+00  0.11835183111E+00 -0.84432709824E-01  0.31480198237E+00  0.00000000000E+00 0. -1.
<mgrwt>
<rscale>  0 0.91493872E+02</rscale>
<asrwt>0</asrwt>
<pdfrwt beam="1">  1        1 0.41602556E-02 0.91493872E+02</pdfrwt>
<pdfrwt beam="2">  1       -1 0.11906313E-01 0.91493872E+02</pdfrwt>
<totfact> 0.84370610E+04</totfact>
</mgrwt>
</event>
<event>
 7    1  0.3345055E-009  0.9055336E+02  0.7818608E-02  0.1301517E+00
         -1   -1    0    0    0  501 -0.00000000000E+00  0.00000000000E+00  0.14268578335E+03  0.14268578344E+03  0.50400000000E-02 0.  1.
          1   -1    0    0  501    0  0.00000000000E+00 -0.00000000000E+00 -0.14367077225E+02  0.14367078109E+02  0.50400000000E-02 0. -1.
         23    2    1    2    0    0 -0.35527136788E-14  0.71054273576E-14  0.12831870613E+03  0.15705286155E+03  0.90553359841E+02 0.  0.
    9000005    2    3    3    0    0 -0.23581055543E+02  0.35070009031E+02  0.91647840380E+02  0.10109998755E+03  0.59924220923E+01 0.  0.
         22    1    3    3    0    0  0.23581055543E+02 -0.35070009031E+02  0.36670865745E+02  0.55952873996E+02  0.00000000000E+00 0.  1.
         22    1    4    4    0    0 -0.20387062105E+02  0.30037179882E+02  0.83054348792E+02  0.90641543068E+02  0.00000000000E+00 0.  1.
         22    1    4    4    0    0 -0.31939934379E+01  0.50328291491E+01  0.85934915885E+01  0.10458444483E+02  0.00000000000E+00 0.  1.
<mgrwt>
<rscale>  0 0.90553360E+02</rscale>
<asrwt>0</asrwt>
<pdfrwt beam="2">  1        1 0.22103197E-02 0.90553360E+02</pdfrwt>
<pdfrwt beam="1">  1       -1 0.21951659E-01 0.90553360E+02</pdfrwt>
<totfact> 0.77012533E+04</totfact>
</mgrwt>
</event>
<event>
 7    1  0.3345055E-009  0.9262765E+02  0.7818608E-02  0.1296610E+00
          1   -1    0    0  501    0  0.00000000000E+00  0.00000000000E+00  0.93685494168E+03  0.93685494169E+03  0.50400000000E-02 0. -1.
         -1   -1    0    0    0  501 -0.00000000000E+00 -0.00000000000E+00 -0.22895408888E+01  0.22895464361E+01  0.50400000000E-02 0.  1.
         23    2    1    2    0    0  0.00000000000E+00  0.00000000000E+00  0.93456540079E+03  0.93914448813E+03  0.92627648293E+02 0.  0.
    9000005    2    3    3    0    0  0.72128808631E+01  0.34344386594E+02  0.76924057057E+03  0.77013602080E+03  0.12119099988E+02 0.  0.
         22    1    3    3    0    0 -0.72128808631E+01 -0.34344386594E+02  0.16532483022E+03  0.16900846733E+03  0.00000000000E+00 0.  1.
         22    1    4    4    0    0 -0.32330853713E+01  0.49312065928E+01  0.13116858672E+03  0.13130105781E+03  0.00000000000E+00 0.  1.
         22    1    4    4    0    0  0.10445966234E+02  0.29413180002E+02  0.63807198385E+03  0.63883496299E+03  0.00000000000E+00 0.  1.
<mgrwt>
<rscale>  0 0.92627648E+02</rscale>
<asrwt>0</asrwt>
<pdfrwt beam="1">  1        1 0.14413137E+00 0.92627648E+02</pdfrwt>
<pdfrwt beam="2">  1       -1 0.35223787E-03 0.92627648E+02</pdfrwt>
<totfact> 0.13247191E+05</totfact>
</mgrwt>
</event>
<event>
 7    1  0.3345055E-009  0.8864963E+02  0.7818608E-02  0.1306155E+00
         -1   -1    0    0    0  501 -0.00000000000E+00  0.00000000000E+00  0.18491741431E+03  0.18491741438E+03  0.50400000000E-02 0.  1.
          1   -1    0    0  501    0  0.00000000000E+00 -0.00000000000E+00 -0.10624684336E+02  0.10624685531E+02  0.50400000000E-02 0. -1.
         23    2    1    2    0    0  0.00000000000E+00  0.00000000000E+00  0.17429272997E+03  0.19554209991E+03  0.88649631217E+02 0.  0.
    9000005    2    3    3    0    0  0.43710292924E+02  0.25379195626E+01  0.75665281881E+02  0.87632859061E+02  0.61034712920E+01 0.  0.
         22    1    3    3    0    0 -0.43710292924E+02 -0.25379195626E+01  0.98627448091E+02  0.10790924085E+03  0.00000000000E+00 0.  1.
         22    1    4    4    0    0  0.15213645893E+02 -0.19054884714E+01  0.27911370712E+02  0.31845416039E+02  0.00000000000E+00 0.  1.
         22    1    4    4    0    0  0.28496647031E+02  0.44434080340E+01  0.47753911170E+02  0.55787443022E+02  0.00000000000E+00 0.  1.
<mgrwt>
<rscale>  0 0.88649631E+02</rscale>
<asrwt>0</asrwt>
<pdfrwt beam="2">  1        1 0.16345669E-02 0.88649631E+02</pdfrwt>
<pdfrwt beam="1">  1       -1 0.28448834E-01 0.88649631E+02</pdfrwt>
<totfact> 0.76332845E+04</totfact>
</mgrwt>
</event>
<event>
 7    1  0.3345055E-009  0.9890303E+02  0.7818608E-02  0.1282620E+00
          1   -1    0    0  501    0  0.00000000000E+00  0.00000000000E+00  0.49705521305E+02  0.49705521561E+02  0.50400000000E-02 0. -1.
         -1   -1    0    0    0  501 -0.00000000000E+00 -0.00000000000E+00 -0.49198803798E+02  0.49198804056E+02  0.50400000000E-02 0.  1.
         23    2    1    2    0    0  0.00000000000E+00  0.00000000000E+00  0.50671750726E+00  0.98904325617E+02  0.98903027573E+02 0.  0.
    9000005    2    3    3    0    0 -0.18309538236E+02 -0.20250850784E+02  0.39972173034E+02  0.50916219509E+02  0.15790840515E+02 0.  0.
         22    1    3    3    0    0  0.18309538236E+02  0.20250850784E+02 -0.39465455527E+02  0.47988106108E+02  0.00000000000E+00 0.  1.
         22    1    4    4    0    0 -0.40787557783E+01 -0.77407068324E+00  0.17372395782E+02  0.17861566822E+02  0.00000000000E+00 0.  1.
         22    1    4    4    0    0 -0.14230782457E+02 -0.19476780101E+02  0.22599777252E+02  0.33054652687E+02  0.00000000000E+00 0.  1.
<mgrwt>
<rscale>  0 0.98903028E+02</rscale>
<asrwt>0</asrwt>
<pdfrwt beam="1">  1        1 0.76470033E-02 0.98903028E+02</pdfrwt>
<pdfrwt beam="2">  1       -1 0.75690468E-02 0.98903028E+02</pdfrwt>
<totfact> 0.74500454E+04</totfact>
</mgrwt>
</event>
<event>
 7    1  0.3345055E-009  0.8944123E+02  0.7818608E-02  0.1304211E+00
         -1   -1    0    0    0  501 -0.00000000000E+00  0.00000000000E+00  0.18229702533E+03  0.18229702540E+03  0.50400000000E-02 0.  1.
          1   -1    0    0  501    0  0.00000000000E+00 -0.00000000000E+00 -0.10970739981E+02  0.10970741139E+02  0.50400000000E-02 0. -1.
         23    2    1    2    0    0  0.00000000000E+00 -0.35527136788E-14  0.17132628535E+03  0.19326776653E+03  0.89441229481E+02 0.  0.
    9000005    2    3    3    0    0 -0.29998312962E+02  0.31791709357E+02  0.10293766552E+03  0.11210364339E+03  0.77751086182E+01 0.  0.
         22    1    3    3    0    0  0.29998312962E+02 -0.31791709357E+02  0.68388619830E+02  0.81164123149E+02  0.00000000000E+00 0. -1.
         22    1    4    4    0    0 -0.79133694237E+01  0.39097853120E+01  0.20134800087E+02  0.21984494794E+02  0.00000000000E+00 0. -1.
         22    1    4    4    0    0 -0.22084943538E+02  0.27881924045E+02  0.82802865429E+02  0.90119148591E+02  0.00000000000E+00 0. -1.
<mgrwt>
<rscale>  0 0.89441229E+02</rscale>
<asrwt>0</asrwt>
<pdfrwt beam="2">  1        1 0.16878064E-02 0.89441229E+02</pdfrwt>
<pdfrwt beam="1">  1       -1 0.28045693E-01 0.89441229E+02</pdfrwt>
<totfact> 0.74876735E+04</totfact>
</mgrwt>
</event>
<event>
 7    1  0.3345055E-009  0.9409772E+02  0.7818608E-02  0.1293221E+00
          1   -1    0    0  501    0  0.00000000000E+00  0.00000000000E+00  0.55883332035E+02  0.55883332263E+02  0.50400000000E-02 0. -1.
         -1   -1    0    0    0  501 -0.00000000000E+00 -0.00000000000E+00 -0.39611011709E+02  0.39611012030E+02  0.50400000000E-02 0.  1.
         23    2    1    2    0    0  0.00000000000E+00  0.00000000000E+00  0.16272320326E+02  0.95494344292E+02  0.94097722518E+02 0.  0.
    9000005    2    3    3    0    0  0.32954179081E+02 -0.70361407855E+01  0.41369888033E+02  0.53478001034E+02  0.35977441117E+01 0.  0.
         22    1    3    3    0    0 -0.32954179081E+02  0.70361407855E+01 -0.25097567707E+02  0.42016343259E+02  0.00000000000E+00 0.  1.
         22    1    4    4    0    0  0.23528324054E+02 -0.64325698096E+01  0.28471524048E+02  0.37491167877E+02  0.00000000000E+00 0. -1.
         22    1    4    4    0    0  0.94258550261E+01 -0.60357097585E+00  0.12898363985E+02  0.15986833157E+02  0.00000000000E+00 0. -1.
<mgrwt>
<rscale>  0 0.94097723E+02</rscale>
<asrwt>0</asrwt>
<pdfrwt beam="1">  1        1 0.85974357E-02 0.94097723E+02</pdfrwt>
<pdfrwt beam="2">  1       -1 0.60940018E-02 0.94097723E+02</pdfrwt>
<totfact> 0.87311045E+04</totfact>
</mgrwt>
</event>
<event>
 7    1  0.3345055E-009  0.8347111E+02  0.7818608E-02  0.1319480E+00
          1   -1    0    0  501    0  0.00000000000E+00  0.00000000000E+00  0.85466443498E+03  0.85466443499E+03  0.50400000000E-02 0. -1.
         -1   -1    0    0    0  501 -0.00000000000E+00 -0.00000000000E+00 -0.20380561165E+01  0.20380623483E+01  0.50400000000E-02 0.  1.
         23    2    1    2    0    0  0.00000000000E+00  0.00000000000E+00  0.85262637886E+03  0.85670249734E+03  0.83471114884E+02 0.  0.
    9000005    2    3    3    0    0 -0.14439996987E+02  0.31066594447E+02  0.66668236711E+03  0.66762890768E+03  0.94516105791E+01 0.  0.
         22    1    3    3    0    0  0.14439996987E+02 -0.31066594447E+02  0.18594401175E+03  0.18907358966E+03  0.00000000000E+00 0.  1.
         22    1    4    4    0    0 -0.33152157094E+01  0.16197852301E+02  0.36645444467E+03  0.36682723603E+03  0.00000000000E+00 0.  1.
         22    1    4    4    0    0 -0.11124781277E+02  0.14868742146E+02  0.30022792244E+03  0.30080167164E+03  0.00000000000E+00 0.  1.
<mgrwt>
<rscale>  0 0.83471115E+02</rscale>
<asrwt>0</asrwt>
<pdfrwt beam="1">  1        1 0.13148693E+00 0.83471115E+02</pdfrwt>
<pdfrwt beam="2">  1       -1 0.31354735E-03 0.83471115E+02</pdfrwt>
<totfact> 0.17698355E+05</totfact>
</mgrwt>
</event>
<event>
 7    1  0.3345055E-009  0.9367764E+02  0.7818608E-02  0.1294182E+00
         -1   -1    0    0    0  501 -0.00000000000E+00  0.00000000000E+00  0.93032011478E+01  0.93032025130E+01  0.50400000000E-02 0.  1.
          1   -1    0    0  501    0  0.00000000000E+00 -0.00000000000E+00 -0.23581936053E+03  0.23581936058E+03  0.50400000000E-02 0. -1.
         23    2    1    2    0    0  0.00000000000E+00  0.00000000000E+00 -0.22651615938E+03  0.24512256310E+03  0.93677641291E+02 0.  0.
    9000005    2    3    3    0    0  0.19542372758E+02  0.38826225019E+02 -0.72874592373E+02  0.85450677045E+02  0.10086223861E+02 0.  0.
         22    1    3    3    0    0 -0.19542372758E+02 -0.38826225019E+02 -0.15364156701E+03  0.15967188605E+03  0.00000000000E+00 0.  1.
         22    1    4    4    0    0  0.54850183074E+01  0.22099456112E+02 -0.36731172594E+02  0.43216321297E+02  0.00000000000E+00 0. -1.
         22    1    4    4    0    0  0.14057354450E+02  0.16726768907E+02 -0.36143419779E+02  0.42234355749E+02  0.00000000000E+00 0. -1.
<mgrwt>
<rscale>  0 0.93677641E+02</rscale>
<asrwt>0</asrwt>
<pdfrwt beam="2">  1        1 0.36279897E-01 0.93677641E+02</pdfrwt>
<pdfrwt beam="1">  1       -1 0.14312620E-02 0.93677641E+02</pdfrwt>
<totfact> 0.11371757E+05</totfact>
</mgrwt>
</event>
<event>
 7    1  0.3345055E-009  0.9369540E+02  0.7818608E-02  0.1294142E+00
         -1   -1    0    0    0  501 -0.00000000000E+00  0.00000000000E+00  0.34659211347E+02  0.34659211714E+02  0.50400000000E-02 0.  1.
          1   -1    0    0  501    0  0.00000000000E+00 -0.00000000000E+00 -0.63322476314E+02  0.63322476514E+02  0.50400000000E-02 0. -1.
         23    2    1    2    0    0 -0.17763568394E-14  0.88817841970E-15 -0.28663264966E+02  0.97981688228E+02  0.93695402606E+02 0.  0.
    9000005    2    3    3    0    0  0.12713665813E+02 -0.45569521363E+01  0.32454811576E+02  0.35389177562E+02  0.40836237475E+01 0.  0.
         22    1    3    3    0    0 -0.12713665813E+02  0.45569521363E+01 -0.61118076543E+02  0.62592510666E+02  0.00000000000E+00 0. -1.
         22    1    4    4    0    0  0.61566450328E+00 -0.13549524782E+01  0.49971349365E+01  0.52140480025E+01  0.00000000000E+00 0. -1.
         22    1    4    4    0    0  0.12098001309E+02 -0.32019996581E+01  0.27457676640E+02  0.30175129560E+02  0.00000000000E+00 0. -1.
<mgrwt>
<rscale>  0 0.93695403E+02</rscale>
<asrwt>0</asrwt>
<pdfrwt beam="2">  1        1 0.97419195E-02 0.93695403E+02</pdfrwt>
<pdfrwt beam="1">  1       -1 0.53321864E-02 0.93695403E+02</pdfrwt>
<totfact> 0.90083915E+04</totfact>
</mgrwt>
</event>
<event>
 7    1  0.3345055E-009  0.9091159E+02  0.7818608E-02  0.1300659E+00
          1   -1    0    0  501    0  0.00000000000E+00  0.00000000000E+00  0.12916340219E+03  0.12916340229E+03  0.50400000000E-02 0. -1.
         -1   -1    0    0    0  501 -0.00000000000E+00 -0.00000000000E+00 -0.15997018741E+02  0.15997019535E+02  0.50400000000E-02 0.  1.
         23    2    1    2    0    0 -0.71054273576E-14  0.88817841970E-15  0.11316638345E+03  0.14516042182E+03  0.90911592885E+02 0.  0.
    9000005    2    3    3    0    0  0.42340359178E+02 -0.49241652256E+01  0.77561322292E+02  0.89620582083E+02  0.14111576759E+02 0.  0.
         22    1    3    3    0    0 -0.42340359178E+02  0.49241652256E+01  0.35605061159E+02  0.55539839742E+02  0.00000000000E+00 0.  1.
         22    1    4    4    0    0  0.35877178676E+02  0.63296663430E+00  0.56892253392E+02  0.67262925097E+02  0.00000000000E+00 0.  1.
         22    1    4    4    0    0  0.64631805014E+01 -0.55571318599E+01  0.20669068900E+02  0.22357656986E+02  0.00000000000E+00 0.  1.
<mgrwt>
<rscale>  0 0.90911593E+02</rscale>
<asrwt>0</asrwt>
<pdfrwt beam="1">  1        1 0.19871293E-01 0.90911593E+02</pdfrwt>
<pdfrwt beam="2">  1       -1 0.24610799E-02 0.90911593E+02</pdfrwt>
<totfact> 0.11000598E+05</totfact>
</mgrwt>
</event>
<event>
 7    1  0.3345055E-009  0.8838066E+02  0.7818608E-02  0.1306821E+00
          1   -1    0    0  501    0  0.00000000000E+00  0.00000000000E+00  0.50794328621E+02  0.50794328871E+02  0.50400000000E-02 0. -1.
         -1   -1    0    0    0  501 -0.00000000000E+00 -0.00000000000E+00 -0.38444946364E+02  0.38444946695E+02  0.50400000000E-02 0.  1.
         23    2    1    2    0    0  0.00000000000E+00  0.00000000000E+00  0.12349382257E+02  0.89239275566E+02  0.88380659997E+02 0.  0.
    9000005    2    3    3    0    0 -0.10179782584E+02 -0.26119093208E+02  0.39202296902E+02  0.50420285002E+02  0.14817221525E+02 0.  0.
         22    1    3    3    0    0  0.10179782584E+02  0.26119093208E+02 -0.26852914646E+02  0.38818990565E+02  0.00000000000E+00 0.  1.
         22    1    4    4    0    0 -0.13262682275E+02 -0.24610422911E+02  0.32348293463E+02  0.42754926581E+02  0.00000000000E+00 0. -1.
         22    1    4    4    0    0  0.30828996905E+01 -0.15086702973E+01  0.68540034391E+01  0.76653584202E+01  0.00000000000E+00 0. -1.
<mgrwt>
<rscale>  0 0.88380660E+02</rscale>
<asrwt>0</asrwt>
<pdfrwt beam="1">  1        1 0.78145121E-02 0.88380660E+02</pdfrwt>
<pdfrwt beam="2">  1       -1 0.59146072E-02 0.88380660E+02</pdfrwt>
<totfact> 0.10249927E+05</totfact>
</mgrwt>
</event>
<event>
 7    1  0.3345055E-009  0.8974288E+02  0.7818608E-02  0.1303476E+00
          1   -1    0    0  501    0  0.00000000000E+00  0.00000000000E+00  0.44247698068E+02  0.44247698355E+02  0.50400000000E-02 0. -1.
         -1   -1    0    0    0  501 -0.00000000000E+00 -0.00000000000E+00 -0.45503978920E+02  0.45503979199E+02  0.50400000000E-02 0.  1.
         23    2    1    2    0    0 -0.17763568394E-14  0.00000000000E+00 -0.12562808523E+01  0.89751677554E+02  0.89742884855E+02 0.  0.
    9000005    2    3    3    0    0  0.15102199340E+02  0.33528325315E+02 -0.26199956346E+02  0.45317321808E+02  0.38725856959E+01 0.  0.
         22    1    3    3    0    0 -0.15102199340E+02 -0.33528325315E+02  0.24943675494E+02  0.44434355745E+02  0.00000000000E+00 0. -1.
         22    1    4    4    0    0  0.73453944661E+01  0.19307481495E+02 -0.12866442799E+02  0.24336783104E+02  0.00000000000E+00 0.  1.
         22    1    4    4    0    0  0.77568048744E+01  0.14220843820E+02 -0.13333513547E+02  0.20980538704E+02  0.00000000000E+00 0.  1.
<mgrwt>
<rscale>  0 0.89742885E+02</rscale>
<asrwt>0</asrwt>
<pdfrwt beam="1">  1        1 0.68073382E-02 0.89742885E+02</pdfrwt>
<pdfrwt beam="2">  1       -1 0.70006122E-02 0.89742885E+02</pdfrwt>
<totfact> 0.96243493E+04</totfact>
</mgrwt>
</event>
<event>
 7    1  0.3345055E-009  0.8727539E+02  0.7818608E-02  0.1309587E+00
         -1   -1    0    0    0  501 -0.00000000000E+00  0.00000000000E+00  0.10339919887E+02  0.10339921116E+02  0.50400000000E-02 0.  1.
          1   -1    0    0  501    0  0.00000000000E+00 -0.00000000000E+00 -0.18416469336E+03  0.18416469343E+03  0.50400000000E-02 0. -1.
         23    2    1    2    0    0 -0.35527136788E-14  0.00000000000E+00 -0.17382477348E+03  0.19450461455E+03  0.87275387174E+02 0.  0.
    9000005    2    3    3    0    0  0.31092071759E+02  0.63549034968E+01 -0.25335699896E+02  0.42662240036E+02  0.13079270275E+02 0.  0.
         22    1    3    3    0    0 -0.31092071759E+02 -0.63549034968E+01 -0.14848907358E+03  0.15184237451E+03  0.00000000000E+00 0. -1.
         22    1    4    4    0    0  0.49346618495E+01  0.38890746718E+01 -0.11163778932E+02  0.12810376630E+02  0.00000000000E+00 0. -1.
         22    1    4    4    0    0  0.26157409910E+02  0.24658288250E+01 -0.14171920965E+02  0.29851863406E+02  0.00000000000E+00 0. -1.
<mgrwt>
<rscale>  0 0.87275387E+02</rscale>
<asrwt>0</asrwt>
<pdfrwt beam="2">  1        1 0.28333027E-01 0.87275387E+02</pdfrwt>
<pdfrwt beam="1">  1       -1 0.15907571E-02 0.87275387E+02</pdfrwt>
<totfact> 0.13101325E+05</totfact>
</mgrwt>
</event>
<event>
 7    1  0.3345055E-009  0.9057205E+02  0.7818608E-02  0.1301472E+00
         -1   -1    0    0    0  501 -0.00000000000E+00  0.00000000000E+00  0.91295524286E+01  0.91295538198E+01  0.50400000000E-02 0.  1.
          1   -1    0    0  501    0  0.00000000000E+00 -0.00000000000E+00 -0.22463577768E+03  0.22463577773E+03  0.50400000000E-02 0. -1.
         23    2    1    2    0    0  0.00000000000E+00  0.00000000000E+00 -0.21550622525E+03  0.23376533155E+03  0.90572054826E+02 0.  0.
    9000005    2    3    3    0    0 -0.28308952681E+02  0.31839311268E+02 -0.68888871492E+02  0.81083351717E+02  0.37006440590E+01 0.  0.
         22    1    3    3    0    0  0.28308952681E+02 -0.31839311268E+02 -0.14661735376E+03  0.15268197983E+03  0.00000000000E+00 0. -1.
         22    1    4    4    0    0 -0.32469942709E+00  0.12667179072E+00 -0.13521515744E+01  0.13963485742E+01  0.00000000000E+00 0.  1.
         22    1    4    4    0    0 -0.27984253254E+02  0.31712639477E+02 -0.67536719917E+02  0.79687003143E+02  0.00000000000E+00 0.  1.
<mgrwt>
<rscale>  0 0.90572055E+02</rscale>
<asrwt>0</asrwt>
<pdfrwt beam="2">  1        1 0.34559347E-01 0.90572055E+02</pdfrwt>
<pdfrwt beam="1">  1       -1 0.14045468E-02 0.90572055E+02</pdfrwt>
<totfact> 0.12329036E+05</totfact>
</mgrwt>
</event>
<event>
 7    1  0.3345055E-009  0.9194214E+02  0.7818608E-02  0.1298216E+00
          1   -1    0    0  501    0  0.00000000000E+00  0.00000000000E+00  0.20885626740E+02  0.20885627348E+02  0.50400000000E-02 0. -1.
         -1   -1    0    0    0  501 -0.00000000000E+00 -0.00000000000E+00 -0.10118629871E+03  0.10118629883E+03  0.50400000000E-02 0.  1.
         23    2    1    2    0    0  0.00000000000E+00 -0.35527136788E-14 -0.80300671969E+02  0.12207192618E+03  0.91942140736E+02 0.  0.
    9000005    2    3    3    0    0 -0.19408294362E+01  0.29727931439E+02  0.61015609977E+01  0.30677929726E+02  0.40484069904E+01 0.  0.
         22    1    3    3    0    0  0.19408294362E+01 -0.29727931439E+02 -0.86402232966E+02  0.91393996455E+02  0.00000000000E+00 0.  1.
         22    1    4    4    0    0 -0.71580346421E+00  0.24375590725E+02  0.62890025342E+01  0.25183989968E+02  0.00000000000E+00 0.  1.
         22    1    4    4    0    0 -0.12250259719E+01  0.53523407131E+01 -0.18744153650E+00  0.54939397585E+01  0.00000000000E+00 0.  1.
<mgrwt>
<rscale>  0 0.91942141E+02</rscale>
<asrwt>0</asrwt>
<pdfrwt beam="1">  1        1 0.32131735E-02 0.91942141E+02</pdfrwt>
<pdfrwt beam="2">  1       -1 0.15567123E-01 0.91942141E+02</pdfrwt>
<totfact> 0.79460405E+04</totfact>
</mgrwt>
</event>
<event>
 7    1  0.3345055E-009  0.9153673E+02  0.7818608E-02  0.1299172E+00
         -1   -1    0    0    0  501 -0.00000000000E+00  0.00000000000E+00  0.27627226521E+02  0.27627226980E+02  0.50400000000E-02 0.  1.
          1   -1    0    0  501    0  0.00000000000E+00 -0.00000000000E+00 -0.75821691110E+02  0.75821691277E+02  0.50400000000E-02 0. -1.
         23    2    1    2    0    0  0.00000000000E+00 -0.35527136788E-14 -0.48194464589E+02  0.10344891826E+03  0.91536726354E+02 0.  0.
    9000005    2    3    3    0    0  0.26576463669E+02  0.25913924352E+02  0.53173424023E+01  0.38323244488E+02  0.79093009425E+01 0.  0.
         22    1    3    3    0    0 -0.26576463669E+02 -0.25913924352E+02 -0.53511806991E+02  0.65125673770E+02  0.00000000000E+00 0. -1.
         22    1    4    4    0    0 -0.33711352041E+00 -0.20049255222E+00 -0.16195899993E+00  0.42435068846E+00  0.00000000000E+00 0. -1.
         22    1    4    4    0    0  0.26913577189E+02  0.26114416905E+02  0.54793014022E+01  0.37898893800E+02  0.00000000000E+00 0. -1.
<mgrwt>
<rscale>  0 0.91536726E+02</rscale>
<asrwt>0</asrwt>
<pdfrwt beam="2">  1        1 0.11664876E-01 0.91536726E+02</pdfrwt>
<pdfrwt beam="1">  1       -1 0.42503426E-02 0.91536726E+02</pdfrwt>
<totfact> 0.98821456E+04</totfact>
</mgrwt>
</event>
<event>
 7    1  0.3345055E-009  0.9058302E+02  0.7818608E-02  0.1301446E+00
          1   -1    0    0  501    0  0.00000000000E+00  0.00000000000E+00  0.11090403728E+03  0.11090403739E+03  0.50400000000E-02 0. -1.
         -1   -1    0    0    0  501 -0.00000000000E+00 -0.00000000000E+00 -0.18496359051E+02  0.18496359738E+02  0.50400000000E-02 0.  1.
         23    2    1    2    0    0  0.00000000000E+00  0.00000000000E+00  0.92407678226E+02  0.12940039713E+03  0.90583021489E+02 0.  0.
    9000005    2    3    3    0    0  0.38295259063E+01 -0.12000737291E+02  0.10834125069E+03  0.10908878233E+03  0.19628714162E+01 0.  0.
         22    1    3    3    0    0 -0.38295259063E+01  0.12000737291E+02 -0.15933572467E+02  0.20311614800E+02  0.00000000000E+00 0.  1.
         22    1    4    4    0    0  0.39283834396E+01 -0.10513957354E+02  0.92807531201E+02  0.93483759784E+02  0.00000000000E+00 0.  1.
         22    1    4    4    0    0 -0.98857533332E-01 -0.14867799367E+01  0.15533719492E+02  0.15605022545E+02  0.00000000000E+00 0.  1.
<mgrwt>
<rscale>  0 0.90583021E+02</rscale>
<asrwt>0</asrwt>
<pdfrwt beam="1">  1        1 0.17062159E-01 0.90583021E+02</pdfrwt>
<pdfrwt beam="2">  1       -1 0.28455938E-02 0.90583021E+02</pdfrwt>
<totfact> 0.10819028E+05</totfact>
</mgrwt>
</event>
<event>
 7    1  0.3345055E-009  0.9529748E+02  0.7818608E-02  0.1290507E+00
          1   -1    0    0  501    0  0.00000000000E+00  0.00000000000E+00  0.12665533813E+03  0.12665533823E+03  0.50400000000E-02 0.  1.
         -1   -1    0    0    0  501 -0.00000000000E+00 -0.00000000000E+00 -0.17925831843E+02  0.17925832552E+02  0.50400000000E-02 0. -1.
         23    2    1    2    0    0  0.00000000000E+00  0.00000000000E+00  0.10872950629E+03  0.14458117078E+03  0.95297478494E+02 0.  0.
    9000005    2    3    3    0    0 -0.95922703911E+01 -0.34228020992E+02  0.10212868568E+03  0.10842678094E+03  0.79075478675E+01 0.  0.
         22    1    3    3    0    0  0.95922703911E+01  0.34228020992E+02  0.66008206049E+01  0.36154389843E+02  0.00000000000E+00 0.  1.
         22    1    4    4    0    0 -0.36319125723E+01 -0.90604919419E+01  0.18897366391E+02  0.21269550058E+02  0.00000000000E+00 0. -1.
         22    1    4    4    0    0 -0.59603578188E+01 -0.25167529050E+02  0.83231319291E+02  0.87157230880E+02  0.00000000000E+00 0. -1.
<mgrwt>
<rscale>  0 0.95297478E+02</rscale>
<asrwt>0</asrwt>
<pdfrwt beam="1">  1        1 0.19485437E-01 0.95297478E+02</pdfrwt>
<pdfrwt beam="2">  1       -1 0.27578203E-02 0.95297478E+02</pdfrwt>
<totfact> 0.96451136E+04</totfact>
</mgrwt>
</event>
<event>
 7    1  0.3345055E-009  0.9315655E+02  0.7818608E-02  0.1295383E+00
         -1   -1    0    0    0  501 -0.00000000000E+00  0.00000000000E+00  0.11547207345E+03  0.11547207356E+03  0.50400000000E-02 0.  1.
          1   -1    0    0  501    0  0.00000000000E+00 -0.00000000000E+00 -0.18788400194E+02  0.18788400870E+02  0.50400000000E-02 0. -1.
         23    2    1    2    0    0  0.00000000000E+00  0.71054273576E-14  0.96683673257E+02  0.13426047443E+03  0.93156547382E+02 0.  0.
    9000005    2    3    3    0    0 -0.45093557447E+01 -0.45216334023E+02  0.55977979842E+02  0.73253879476E+02  0.12951659329E+02 0.  0.
         22    1    3    3    0    0  0.45093557447E+01  0.45216334023E+02  0.40705693415E+02  0.61006594956E+02  0.00000000000E+00 0.  1.
         22    1    4    4    0    0 -0.33818210098E+01 -0.11598819602E+02  0.74021315319E+01  0.14169011282E+02  0.00000000000E+00 0. -1.
         22    1    4    4    0    0 -0.11275347350E+01 -0.33617514421E+02  0.48575848310E+02  0.59084868194E+02  0.00000000000E+00 0. -1.
<mgrwt>
<rscale>  0 0.93156547E+02</rscale>
<asrwt>0</asrwt>
<pdfrwt beam="2">  1        1 0.28905231E-02 0.93156547E+02</pdfrwt>
<pdfrwt beam="1">  1       -1 0.17764935E-01 0.93156547E+02</pdfrwt>
<totfact> 0.74866785E+04</totfact>
</mgrwt>
</event>
<event>
 7    1  0.3345055E-009  0.8688037E+02  0.7818608E-02  0.1310587E+00
          1   -1    0    0  501    0  0.00000000000E+00  0.00000000000E+00  0.22244117985E+03  0.22244117991E+03  0.50400000000E-02 0. -1.
         -1   -1    0    0    0  501 -0.00000000000E+00 -0.00000000000E+00 -0.84833631501E+01  0.84833646472E+01  0.50400000000E-02 0.  1.
         23    2    1    2    0    0  0.00000000000E+00  0.00000000000E+00  0.21395781670E+03  0.23092454455E+03  0.86880365737E+02 0.  0.
    9000005    2    3    3    0    0  0.38705564862E+02 -0.18501191860E+02  0.12216294282E+03  0.12959975133E+03  0.56476627481E+01 0.  0.
         22    1    3    3    0    0 -0.38705564862E+02  0.18501191860E+02  0.91794873880E+02  0.10132479323E+03  0.00000000000E+00 0.  1.
         22    1    4    4    0    0  0.23184468467E+02 -0.90343975627E+01  0.64237447496E+02  0.68888239767E+02  0.00000000000E+00 0.  1.
         22    1    4    4    0    0  0.15521096395E+02 -0.94667942976E+01  0.57925495324E+02  0.60711511562E+02  0.00000000000E+00 0.  1.
<mgrwt>
<rscale>  0 0.86880366E+02</rscale>
<asrwt>0</asrwt>
<pdfrwt beam="1">  1        1 0.34221719E-01 0.86880366E+02</pdfrwt>
<pdfrwt beam="2">  1       -1 0.13051330E-02 0.86880366E+02</pdfrwt>
<totfact> 0.13749833E+05</totfact>
</mgrwt>
</event>
<event>
 7    1  0.3345055E-009  0.9185118E+02  0.7818608E-02  0.1298430E+00
         -1   -1    0    0    0  501 -0.00000000000E+00  0.00000000000E+00  0.96747294130E+01  0.96747307258E+01  0.50400000000E-02 0.  1.
          1   -1    0    0  501    0  0.00000000000E+00 -0.00000000000E+00 -0.21800708823E+03  0.21800708829E+03  0.50400000000E-02 0. -1.
         23    2    1    2    0    0  0.35527136788E-14  0.00000000000E+00 -0.20833235882E+03  0.22768181902E+03  0.91851178432E+02 0.  0.
    9000005    2    3    3    0    0 -0.18714991440E+02  0.27772654574E+02 -0.18047784750E+03  0.18412214676E+03  0.14392367422E+02 0.  0.
         22    1    3    3    0    0  0.18714991440E+02 -0.27772654574E+02 -0.27854511314E+02  0.43559672259E+02  0.00000000000E+00 0.  1.
         22    1    4    4    0    0  0.15095651752E+01 -0.50631585715E+00 -0.11035681667E+02  0.11149951238E+02  0.00000000000E+00 0.  1.
         22    1    4    4    0    0 -0.20224556615E+02  0.28278970432E+02 -0.16944216584E+03  0.17297219552E+03  0.00000000000E+00 0.  1.
<mgrwt>
<rscale>  0 0.91851178E+02</rscale>
<asrwt>0</asrwt>
<pdfrwt beam="2">  1        1 0.33539548E-01 0.91851178E+02</pdfrwt>
<pdfrwt beam="1">  1       -1 0.14884202E-02 0.91851178E+02</pdfrwt>
<totfact> 0.11805398E+05</totfact>
</mgrwt>
</event>
<event>
 7    1  0.3345055E-009  0.9107259E+02  0.7818608E-02  0.1300275E+00
         -1   -1    0    0    0  501 -0.00000000000E+00  0.00000000000E+00  0.24835659227E+02  0.24835659738E+02  0.50400000000E-02 0.  1.
          1   -1    0    0  501    0  0.00000000000E+00 -0.00000000000E+00 -0.83491004472E+02  0.83491004624E+02  0.50400000000E-02 0. -1.
         23    2    1    2    0    0  0.00000000000E+00 -0.71054273576E-14 -0.58655345245E+02  0.10832666436E+03  0.91072590202E+02 0.  0.
    9000005    2    3    3    0    0  0.19887915021E+02  0.38510152828E+02 -0.18661834046E+02  0.49351737717E+02  0.14448838398E+02 0.  0.
         22    1    3    3    0    0 -0.19887915021E+02 -0.38510152828E+02 -0.39993511200E+02  0.58974926645E+02  0.00000000000E+00 0. -1.
         22    1    4    4    0    0  0.19425105840E+02  0.36252120822E+02 -0.20904124197E+02  0.46136031574E+02  0.00000000000E+00 0. -1.
         22    1    4    4    0    0  0.46280918064E+00  0.22580320059E+01  0.22422901509E+01  0.32157061430E+01  0.00000000000E+00 0. -1.
<mgrwt>
<rscale>  0 0.91072590E+02</rscale>
<asrwt>0</asrwt>
<pdfrwt beam="2">  1        1 0.12844770E-01 0.91072590E+02</pdfrwt>
<pdfrwt beam="1">  1       -1 0.38208707E-02 0.91072590E+02</pdfrwt>
<totfact> 0.10174751E+05</totfact>
</mgrwt>
</event>
<event>
 7    1  0.3345055E-009  0.7863612E+02  0.7818608E-02  0.1332967E+00
          1   -1    0    0  501    0  0.00000000000E+00  0.00000000000E+00  0.34766689671E+03  0.34766689675E+03  0.50400000000E-02 0. -1.
         -1   -1    0    0    0  501 -0.00000000000E+00 -0.00000000000E+00 -0.44465242789E+01  0.44465271352E+01  0.50400000000E-02 0.  1.
         23    2    1    2    0    0  0.00000000000E+00  0.71054273576E-14  0.34322037243E+03  0.35211342388E+03  0.78636119093E+02 0.  0.
    9000005    2    3    3    0    0 -0.71360317077E+01 -0.35830344386E+02  0.13136422226E+03  0.13713025038E+03  0.14608564255E+02 0.  0.
         22    1    3    3    0    0  0.71360317077E+01  0.35830344386E+02  0.21185615017E+03  0.21498317351E+03  0.00000000000E+00 0. -1.
         22    1    4    4    0    0 -0.57988865277E+01 -0.36829388415E+02  0.12865362469E+03  0.13394695250E+03  0.00000000000E+00 0. -1.
         22    1    4    4    0    0 -0.13371451800E+01  0.99904402863E+00  0.27105975699E+01  0.31832978795E+01  0.00000000000E+00 0. -1.
<mgrwt>
<rscale>  0 0.78636119E+02</rscale>
<asrwt>0</asrwt>
<pdfrwt beam="1">  1        1 0.53487230E-01 0.78636119E+02</pdfrwt>
<pdfrwt beam="2">  1       -1 0.68408070E-03 0.78636119E+02</pdfrwt>
<totfact> 0.19457108E+05</totfact>
</mgrwt>
</event>
<event>
 7    1  0.3345055E-009  0.9197498E+02  0.7818608E-02  0.1298138E+00
         -1   -1    0    0    0  501 -0.00000000000E+00  0.00000000000E+00  0.67167006665E+02  0.67167006854E+02  0.50400000000E-02 0.  1.
          1   -1    0    0  501    0  0.00000000000E+00 -0.00000000000E+00 -0.31486427225E+02  0.31486427629E+02  0.50400000000E-02 0. -1.
         23    2    1    2    0    0  0.00000000000E+00  0.00000000000E+00  0.35680579440E+02  0.98653434483E+02  0.91974976956E+02 0.  0.
    9000005    2    3    3    0    0 -0.41666552096E+02  0.67972419204E+01  0.35740571840E+02  0.56436048723E+02  0.11195314146E+02 0.  0.
         22    1    3    3    0    0  0.41666552096E+02 -0.67972419204E+01 -0.59992400092E-01  0.42217385759E+02  0.00000000000E+00 0. -1.
         22    1    4    4    0    0 -0.20316658740E+02  0.42572169158E-01  0.22937508103E+02  0.30641437837E+02  0.00000000000E+00 0.  1.
         22    1    4    4    0    0 -0.21349893355E+02  0.67546697512E+01  0.12803063737E+02  0.25794610886E+02  0.00000000000E+00 0.  1.
<mgrwt>
<rscale>  0 0.91974977E+02</rscale>
<asrwt>0</asrwt>
<pdfrwt beam="2">  1        1 0.48440659E-02 0.91974977E+02</pdfrwt>
<pdfrwt beam="1">  1       -1 0.10333385E-01 0.91974977E+02</pdfrwt>
<totfact> 0.85202401E+04</totfact>
</mgrwt>
</event>
<event>
 7    1  0.3345055E-009  0.9394876E+02  0.7818608E-02  0.1293561E+00
          1   -1    0    0  501    0  0.00000000000E+00  0.00000000000E+00  0.31010927132E+03  0.31010927136E+03  0.50400000000E-02 0. -1.
         -1   -1    0    0    0  501 -0.00000000000E+00 -0.00000000000E+00 -0.71155313216E+01  0.71155331065E+01  0.50400000000E-02 0.  1.
         23    2    1    2    0    0  0.00000000000E+00  0.71054273576E-14  0.30299374000E+03  0.31722480446E+03  0.93948763117E+02 0.  0.
    9000005    2    3    3    0    0 -0.71734487078E+01 -0.40253618722E+02  0.73707816057E+02  0.84321719249E+02  0.23447819967E+01 0.  0.
         22    1    3    3    0    0  0.71734487078E+01  0.40253618722E+02  0.22928592394E+03  0.23290308522E+03  0.00000000000E+00 0. -1.
         22    1    4    4    0    0 -0.58939215588E+01 -0.36810195006E+02  0.67355883265E+02  0.76984048855E+02  0.00000000000E+00 0.  1.
         22    1    4    4    0    0 -0.12795271490E+01 -0.34434237161E+01  0.63519327919E+01  0.73376703937E+01  0.00000000000E+00 0.  1.
<mgrwt>
<rscale>  0 0.93948763E+02</rscale>
<asrwt>0</asrwt>
<pdfrwt beam="1">  1        1 0.47709108E-01 0.93948763E+02</pdfrwt>
<pdfrwt beam="2">  1       -1 0.10946975E-02 0.93948763E+02</pdfrwt>
<totfact> 0.11902519E+05</totfact>
</mgrwt>
</event>
<event>
 7    1  0.3345055E-009  0.9171448E+02  0.7818608E-02  0.1298752E+00
         -1   -1    0    0    0  501 -0.00000000000E+00  0.00000000000E+00  0.24482928957E+03  0.24482928963E+03  0.50400000000E-02 0.  1.
          1   -1    0    0  501    0  0.00000000000E+00 -0.00000000000E+00 -0.85891931078E+01  0.85891945865E+01  0.50400000000E-02 0. -1.
         23    2    1    2    0    0  0.35527136788E-14  0.55511151231E-16  0.23624009647E+03  0.25341848421E+03  0.91714475205E+02 0.  0.
    9000005    2    3    3    0    0  0.21023814532E+02 -0.21474072436E+00  0.23016507201E+03  0.23153349362E+03  0.13775028282E+02 0.  0.
         22    1    3    3    0    0 -0.21023814532E+02  0.21474072436E+00  0.60750244569E+01  0.21884990592E+02  0.00000000000E+00 0. -1.
         22    1    4    4    0    0  0.15721153189E+02 -0.37590825959E+01  0.20243650949E+03  0.20308083547E+03  0.00000000000E+00 0. -1.
         22    1    4    4    0    0  0.53026613431E+01  0.35443418715E+01  0.27728562519E+02  0.28452658153E+02  0.00000000000E+00 0. -1.
<mgrwt>
<rscale>  0 0.91714475E+02</rscale>
<asrwt>0</asrwt>
<pdfrwt beam="2">  1        1 0.13214142E-02 0.91714475E+02</pdfrwt>
<pdfrwt beam="1">  1       -1 0.37666051E-01 0.91714475E+02</pdfrwt>
<totfact> 0.64227106E+04</totfact>
</mgrwt>
</event>
<event>
 7    1  0.3345055E-009  0.9168342E+02  0.7818608E-02  0.1298826E+00
         -1   -1    0    0    0  501 -0.00000000000E+00  0.00000000000E+00  0.25273151740E+01  0.25273201995E+01  0.50400000000E-02 0.  1.
          1   -1    0    0  501    0  0.00000000000E+00 -0.00000000000E+00 -0.83149912865E+03  0.83149912867E+03  0.50400000000E-02 0. -1.
         23    2    1    2    0    0  0.88817841970E-15 -0.35527136788E-14 -0.82897181348E+03  0.83402644887E+03  0.91683421993E+02 0.  0.
    9000005    2    3    3    0    0  0.69497888990E+01 -0.31070553093E+02 -0.71157034204E+03  0.71238441530E+03  0.12063359873E+02 0.  0.
         22    1    3    3    0    0 -0.69497888990E+01  0.31070553093E+02 -0.11740147144E+03  0.12164203357E+03  0.00000000000E+00 0.  1.
         22    1    4    4    0    0  0.86428308998E+01 -0.12965365642E+02 -0.28329190574E+03  0.28372011400E+03  0.00000000000E+00 0. -1.
         22    1    4    4    0    0 -0.16930420008E+01 -0.18105187451E+02 -0.42827843630E+03  0.42866430129E+03  0.00000000000E+00 0. -1.
<mgrwt>
<rscale>  0 0.91683422E+02</rscale>
<asrwt>0</asrwt>
<pdfrwt beam="2">  1        1 0.12792273E+00 0.91683422E+02</pdfrwt>
<pdfrwt beam="1">  1       -1 0.38881877E-03 0.91683422E+02</pdfrwt>
<totfact> 0.13870596E+05</totfact>
</mgrwt>
</event>
<event>
 7    1  0.3345055E-009  0.1033712E+03  0.7818608E-02  0.1273362E+00
         -1   -1    0    0    0  501 -0.00000000000E+00  0.00000000000E+00  0.23056350406E+02  0.23056350957E+02  0.50400000000E-02 0.  1.
          1   -1    0    0  501    0  0.00000000000E+00 -0.00000000000E+00 -0.11586411650E+03  0.11586411661E+03  0.50400000000E-02 0. -1.
         23    2    1    2    0    0  0.00000000000E+00 -0.35527136788E-14 -0.92807766097E+02  0.13892046757E+03  0.10337124775E+03 0.  0.
    9000005    2    3    3    0    0 -0.24998621102E+01 -0.25259212367E+02  0.11573259597E+02  0.31497585254E+02  0.14624651079E+02 0.  0.
         22    1    3    3    0    0  0.24998621102E+01  0.25259212367E+02 -0.10438102569E+03  0.10742288231E+03  0.00000000000E+00 0. -1.
         22    1    4    4    0    0 -0.32625842553E+01 -0.27102886153E+02  0.10833925571E+02  0.29369794639E+02  0.00000000000E+00 0.  1.
         22    1    4    4    0    0  0.76272214506E+00  0.18436737861E+01  0.73933402630E+00  0.21277906153E+01  0.00000000000E+00 0.  1.
<mgrwt>
<rscale>  0 0.10337125E+03</rscale>
<asrwt>0</asrwt>
<pdfrwt beam="2">  1        1 0.17825248E-01 0.10337125E+03</pdfrwt>
<pdfrwt beam="1">  1       -1 0.35471309E-02 0.10337125E+03</pdfrwt>
<totfact> 0.75940128E+04</totfact>
</mgrwt>
</event>
<event>
 7    1  0.3345055E-009  0.9707066E+02  0.7818608E-02  0.1286579E+00
          1   -1    0    0  501    0  0.00000000000E+00  0.00000000000E+00  0.15569639576E+03  0.15569639585E+03  0.50400000000E-02 0. -1.
         -1   -1    0    0    0  501 -0.00000000000E+00 -0.00000000000E+00 -0.15129947118E+02  0.15129947957E+02  0.50400000000E-02 0.  1.
         23    2    1    2    0    0  0.00000000000E+00 -0.17763568394E-14  0.14056644865E+03  0.17082634380E+03  0.97070661129E+02 0.  0.
    9000005    2    3    3    0    0 -0.18170212721E+02 -0.14924466861E+02  0.14463824405E+03  0.14696265048E+03  0.11175985527E+02 0.  0.
         22    1    3    3    0    0  0.18170212721E+02  0.14924466861E+02 -0.40717954006E+01  0.23863693327E+02  0.00000000000E+00 0.  1.
         22    1    4    4    0    0 -0.77723051103E+01 -0.79863436450E+00  0.61496874144E+02  0.61991225775E+02  0.00000000000E+00 0. -1.
         22    1    4    4    0    0 -0.10397907611E+02 -0.14125832497E+02  0.83141369903E+02  0.84971424701E+02  0.00000000000E+00 0. -1.
<mgrwt>
<rscale>  0 0.97070661E+02</rscale>
<asrwt>0</asrwt>
<pdfrwt beam="1">  1        1 0.23953291E-01 0.97070661E+02</pdfrwt>
<pdfrwt beam="2">  1       -1 0.23276843E-02 0.97070661E+02</pdfrwt>
<totfact> 0.95295339E+04</totfact>
</mgrwt>
</event>
<event>
 7    1  0.3345055E-009  0.1033576E+03  0.7818608E-02  0.1273390E+00
          1   -1    0    0  501    0  0.00000000000E+00  0.00000000000E+00  0.17917151410E+04  0.17917151410E+04  0.50400000000E-02 0. -1.
         -1   -1    0    0    0  501 -0.00000000000E+00 -0.00000000000E+00 -0.14905776175E+01  0.14905861382E+01  0.50400000000E-02 0.  1.
         23    2    1    2    0    0  0.35527136788E-14  0.35527136788E-14  0.17902245634E+04  0.17932057271E+04  0.10335759541E+03 0.  0.
    9000005    2    3    3    0    0 -0.16334440082E+02 -0.27431826888E+02  0.15978773131E+04  0.15982267956E+04  0.98824774248E+01 0.  0.
         22    1    3    3    0    0  0.16334440082E+02  0.27431826888E+02  0.19234725022E+03  0.19497893149E+03  0.00000000000E+00 0.  1.
         22    1    4    4    0    0  0.35178911309E+00 -0.42788714092E+01  0.33232361958E+03  0.33235135118E+03  0.00000000000E+00 0. -1.
         22    1    4    4    0    0 -0.16686229195E+02 -0.23152955479E+02  0.12655536936E+04  0.12658754445E+04  0.00000000000E+00 0. -1.
<mgrwt>
<rscale>  0 0.10335760E+03</rscale>
<asrwt>0</asrwt>
<pdfrwt beam="1">  1        1 0.27564844E+00 0.10335760E+03</pdfrwt>
<pdfrwt beam="2">  1       -1 0.22932033E-03 0.10335760E+03</pdfrwt>
<totfact> 0.66197329E+04</totfact>
</mgrwt>
</event>
<event>
 7    1  0.3345055E-009  0.9551499E+02  0.7818608E-02  0.1290020E+00
         -1   -1    0    0    0  501 -0.00000000000E+00  0.00000000000E+00  0.17144834852E+03  0.17144834860E+03  0.50400000000E-02 0.  1.
          1   -1    0    0  501    0  0.00000000000E+00 -0.00000000000E+00 -0.13303004885E+02  0.13303005840E+02  0.50400000000E-02 0. -1.
         23    2    1    2    0    0 -0.17763568394E-14  0.00000000000E+00  0.15814534364E+03  0.18475135443E+03  0.95514989670E+02 0.  0.
    9000005    2    3    3    0    0  0.15097588850E+02  0.23949167136E+02  0.15252178362E+03  0.15588746310E+03  0.15378780132E+02 0.  0.
         22    1    3    3    0    0 -0.15097588850E+02 -0.23949167136E+02  0.56235600166E+01  0.28863891332E+02  0.00000000000E+00 0. -1.
         22    1    4    4    0    0  0.12214666456E+02  0.20514610185E+02  0.87127774396E+02  0.90339893618E+02  0.00000000000E+00 0.  1.
         22    1    4    4    0    0  0.28829223948E+01  0.34345569505E+01  0.65394009224E+02  0.65547569484E+02  0.00000000000E+00 0.  1.
<mgrwt>
<rscale>  0 0.95514990E+02</rscale>
<asrwt>0</asrwt>
<pdfrwt beam="2">  1        1 0.20466164E-02 0.95514990E+02</pdfrwt>
<pdfrwt beam="1">  1       -1 0.26376667E-01 0.95514990E+02</pdfrwt>
<totfact> 0.64125355E+04</totfact>
</mgrwt>
</event>
<event>
 7    1  0.3345055E-009  0.9023045E+02  0.7818608E-02  0.1302295E+00
         -1   -1    0    0    0  501 -0.00000000000E+00  0.00000000000E+00  0.53663768792E+02  0.53663769029E+02  0.50400000000E-02 0.  1.
          1   -1    0    0  501    0  0.00000000000E+00 -0.00000000000E+00 -0.37928445162E+02  0.37928445497E+02  0.50400000000E-02 0. -1.
         23    2    1    2    0    0  0.00000000000E+00  0.00000000000E+00  0.15735323630E+02  0.91592214525E+02  0.90230445815E+02 0.  0.
    9000005    2    3    3    0    0  0.23105107175E+02  0.34321661804E+02  0.24306045723E+02  0.49339643908E+02  0.11480163575E+02 0.  0.
         22    1    3    3    0    0 -0.23105107175E+02 -0.34321661804E+02 -0.85707220932E+01  0.42252570617E+02  0.00000000000E+00 0. -1.
         22    1    4    4    0    0  0.14783124471E+02  0.23388328093E+02  0.97840613204E+01  0.29347615168E+02  0.00000000000E+00 0.  1.
         22    1    4    4    0    0  0.83219827038E+01  0.10933333711E+02  0.14521984403E+02  0.19992028740E+02  0.00000000000E+00 0.  1.
<mgrwt>
<rscale>  0 0.90230446E+02</rscale>
<asrwt>0</asrwt>
<pdfrwt beam="2">  1        1 0.58351455E-02 0.90230446E+02</pdfrwt>
<pdfrwt beam="1">  1       -1 0.82559645E-02 0.90230446E+02</pdfrwt>
<totfact> 0.92624369E+04</totfact>
</mgrwt>
</event>
<event>
 7    1  0.3345055E-009  0.9048988E+02  0.7818608E-02  0.1301670E+00
          1   -1    0    0  501    0  0.00000000000E+00  0.00000000000E+00  0.18472214466E+03  0.18472214473E+03  0.50400000000E-02 0. -1.
         -1   -1    0    0    0  501 -0.00000000000E+00 -0.00000000000E+00 -0.11082075035E+02  0.11082076181E+02  0.50400000000E-02 0.  1.
         23    2    1    2    0    0 -0.35527136788E-14 -0.17763568394E-14  0.17364006962E+03  0.19580422091E+03  0.90489884223E+02 0.  0.
    9000005    2    3    3    0    0  0.25976211483E+02  0.13834705056E+02  0.13906778005E+02  0.33382279416E+02  0.74037475320E+01 0.  0.
         22    1    3    3    0    0 -0.25976211483E+02 -0.13834705056E+02  0.15973329162E+03  0.16242194149E+03  0.00000000000E+00 0. -1.
         22    1    4    4    0    0  0.29729924669E+01 -0.55115565665E+00  0.26058304419E+01  0.39915922960E+01  0.00000000000E+00 0.  1.
         22    1    4    4    0    0  0.23003219016E+02  0.14385860713E+02  0.11300947563E+02  0.29390687120E+02  0.00000000000E+00 0.  1.
<mgrwt>
<rscale>  0 0.90489884E+02</rscale>
<asrwt>0</asrwt>
<pdfrwt beam="1">  1        1 0.28418792E-01 0.90489884E+02</pdfrwt>
<pdfrwt beam="2">  1       -1 0.17049347E-02 0.90489884E+02</pdfrwt>
<totfact> 0.11899401E+05</totfact>
</mgrwt>
</event>
<event>
 7    1  0.3345055E-009  0.9036627E+02  0.7818608E-02  0.1301967E+00
          1   -1    0    0  501    0  0.00000000000E+00  0.00000000000E+00  0.70212812397E+02  0.70212812578E+02  0.50400000000E-02 0. -1.
         -1   -1    0    0    0  501 -0.00000000000E+00 -0.00000000000E+00 -0.29076113589E+02  0.29076114025E+02  0.50400000000E-02 0.  1.
         23    2    1    2    0    0  0.00000000000E+00  0.35527136788E-14  0.41136698809E+02  0.99288926604E+02  0.90366271126E+02 0.  0.
    9000005    2    3    3    0    0 -0.41355391210E+01 -0.30079105962E+02  0.56899893386E+02  0.65078787718E+02  0.87060579031E+01 0.  0.
         22    1    3    3    0    0  0.41355391210E+01  0.30079105962E+02 -0.15763194577E+02  0.34210138886E+02  0.00000000000E+00 0.  1.
         22    1    4    4    0    0 -0.53164426198E+00 -0.19954559533E+02  0.29235624950E+02  0.35400407596E+02  0.00000000000E+00 0.  1.
         22    1    4    4    0    0 -0.36038948590E+01 -0.10124546430E+02  0.27664268436E+02  0.29678380121E+02  0.00000000000E+00 0.  1.
<mgrwt>
<rscale>  0 0.90366271E+02</rscale>
<asrwt>0</asrwt>
<pdfrwt beam="1">  1        1 0.10801971E-01 0.90366271E+02</pdfrwt>
<pdfrwt beam="2">  1       -1 0.44732483E-02 0.90366271E+02</pdfrwt>
<totfact> 0.10117096E+05</totfact>
</mgrwt>
</event>
<event>
 7    1  0.3345055E-009  0.9046192E+02  0.7818608E-02  0.1301737E+00
         -1   -1    0    0    0  501 -0.00000000000E+00  0.00000000000E+00  0.10841319462E+04  0.10841319463E+04  0.50400000000E-02 0.  1.
          1   -1    0    0  501    0  0.00000000000E+00 -0.00000000000E+00 -0.18870728379E+01  0.18870795683E+01  0.50400000000E-02 0. -1.
         23    2    1    2    0    0  0.00000000000E+00  0.00000000000E+00  0.10822448734E+04  0.10860190258E+04  0.90461917058E+02 0.  0.
    9000005    2    3    3    0    0  0.27589395281E+01  0.31154922607E+02  0.93116558726E+03  0.93173619576E+03  0.92057940065E+01 0.  0.
         22    1    3    3    0    0 -0.27589395281E+01 -0.31154922607E+02  0.15107928615E+03  0.15428283007E+03  0.00000000000E+00 0. -1.
         22    1    4    4    0    0  0.15929754567E+01  0.65514796024E+00  0.26530795165E+02  0.26586648562E+02  0.00000000000E+00 0. -1.
         22    1    4    4    0    0  0.11659640715E+01  0.30499774646E+02  0.90463479210E+03  0.90514954720E+03  0.00000000000E+00 0. -1.
<mgrwt>
<rscale>  0 0.90461917E+02</rscale>
<asrwt>0</asrwt>
<pdfrwt beam="2">  1        1 0.29031945E-03 0.90461917E+02</pdfrwt>
<pdfrwt beam="1">  1       -1 0.16678951E+00 0.90461917E+02</pdfrwt>
<totfact> 0.23639520E+04</totfact>
</mgrwt>
</event>
<event>
 7    1  0.3345055E-009  0.9566430E+02  0.7818608E-02  0.1289687E+00
          1   -1    0    0  501    0  0.00000000000E+00  0.00000000000E+00  0.18384502835E+03  0.18384502842E+03  0.50400000000E-02 0. -1.
         -1   -1    0    0    0  501 -0.00000000000E+00 -0.00000000000E+00 -0.12444798193E+02  0.12444799213E+02  0.50400000000E-02 0.  1.
         23    2    1    2    0    0  0.71054273576E-14  0.71054273576E-14  0.17140023016E+03  0.19628982763E+03  0.95664296025E+02 0.  0.
    9000005    2    3    3    0    0  0.27727616800E+02  0.37432455149E+02  0.76229487640E+02  0.90330025523E+02  0.13362982197E+02 0.  0.
         22    1    3    3    0    0 -0.27727616800E+02 -0.37432455149E+02  0.95170742516E+02  0.10595980211E+03  0.00000000000E+00 0. -1.
         22    1    4    4    0    0  0.29405424258E+01  0.11924208772E+02  0.26311452547E+02  0.29036633409E+02  0.00000000000E+00 0. -1.
         22    1    4    4    0    0  0.24787074374E+02  0.25508246377E+02  0.49918035093E+02  0.61293392114E+02  0.00000000000E+00 0. -1.
<mgrwt>
<rscale>  0 0.95664296E+02</rscale>
<asrwt>0</asrwt>
<pdfrwt beam="1">  1        1 0.28283848E-01 0.95664296E+02</pdfrwt>
<pdfrwt beam="2">  1       -1 0.19145846E-02 0.95664296E+02</pdfrwt>
<totfact> 0.10234783E+05</totfact>
</mgrwt>
</event>
<event>
 7    1  0.3345055E-009  0.9166208E+02  0.7818608E-02  0.1298876E+00
         -1   -1    0    0    0  501 -0.00000000000E+00  0.00000000000E+00  0.50818100916E+03  0.50818100918E+03  0.50400000000E-02 0.  1.
          1   -1    0    0  501    0  0.00000000000E+00 -0.00000000000E+00 -0.41333372771E+01  0.41333403499E+01  0.50400000000E-02 0. -1.
         23    2    1    2    0    0  0.00000000000E+00  0.00000000000E+00  0.50404767188E+03  0.51231434953E+03  0.91662081630E+02 0.  0.
    9000005    2    3    3    0    0 -0.51263024142E+01  0.36373554580E+02  0.40000644765E+03  0.40197899351E+03  0.15252495283E+02 0.  0.
         22    1    3    3    0    0  0.51263024142E+01 -0.36373554580E+02  0.10404122423E+03  0.11033535602E+03  0.00000000000E+00 0.  1.
         22    1    4    4    0    0  0.11879420828E+01  0.74464979707E+01  0.15610017519E+03  0.15628220063E+03  0.00000000000E+00 0.  1.
         22    1    4    4    0    0 -0.63142444970E+01  0.28927056610E+02  0.24390627247E+03  0.24569679289E+03  0.00000000000E+00 0.  1.
<mgrwt>
<rscale>  0 0.91662082E+02</rscale>
<asrwt>0</asrwt>
<pdfrwt beam="2">  1        1 0.63589838E-03 0.91662082E+02</pdfrwt>
<pdfrwt beam="1">  1       -1 0.78181682E-01 0.91662082E+02</pdfrwt>
<totfact> 0.45926105E+04</totfact>
</mgrwt>
</event>
<event>
 7    1  0.3345055E-009  0.9108354E+02  0.7818608E-02  0.1300249E+00
         -1   -1    0    0    0  501 -0.00000000000E+00  0.00000000000E+00  0.27165262344E+03  0.27165262349E+03  0.50400000000E-02 0.  1.
          1   -1    0    0  501    0  0.00000000000E+00 -0.00000000000E+00 -0.76349432596E+01  0.76349449231E+01  0.50400000000E-02 0. -1.
         23    2    1    2    0    0  0.00000000000E+00  0.00000000000E+00  0.26401768018E+03  0.27928756841E+03  0.91083535397E+02 0.  0.
    9000005    2    3    3    0    0 -0.39392088025E+02  0.22543864853E+02  0.12172137023E+03  0.12992826248E+03  0.23019512736E+01 0.  0.
         22    1    3    3    0    0  0.39392088025E+02 -0.22543864853E+02  0.14229630995E+03  0.14935930593E+03  0.00000000000E+00 0.  1.
         22    1    4    4    0    0 -0.22039485552E+02  0.13504227838E+02  0.71661419833E+02  0.76180458028E+02  0.00000000000E+00 0.  1.
         22    1    4    4    0    0 -0.17352602473E+02  0.90396370147E+01  0.50059950395E+02  0.53747804453E+02  0.00000000000E+00 0.  1.
<mgrwt>
<rscale>  0 0.91083535E+02</rscale>
<asrwt>0</asrwt>
<pdfrwt beam="2">  1        1 0.11746069E-02 0.91083535E+02</pdfrwt>
<pdfrwt beam="1">  1       -1 0.41792707E-01 0.91083535E+02</pdfrwt>
<totfact> 0.63072456E+04</totfact>
</mgrwt>
</event>
<event>
 6    1  0.3345055E-009  0.1614938E+03  0.7818608E-02  0.1187021E+00
         -1   -1    0    0    0  501 -0.00000000000E+00  0.00000000000E+00  0.48220435304E+01  0.48220461643E+01  0.50400000000E-02 0.  1.
          1   -1    0    0  501    0  0.00000000000E+00 -0.00000000000E+00 -0.13521359754E+04  0.13521359754E+04  0.50400000000E-02 0. -1.
    9000005    2    1    2    0    0 -0.18511184925E+02 -0.70215879822E+02 -0.96420936656E+03  0.96703233416E+03  0.13375312934E+02 0.  0.
         22    1    1    2    0    0  0.18511184925E+02  0.70215879822E+02 -0.38310456531E+03  0.38992568742E+03  0.00000000000E+00 0.  1.
         22    1    3    3    0    0  0.24692695607E+00 -0.24341307729E+01 -0.77361822150E+02  0.77400500592E+02  0.00000000000E+00 0.  1.
         22    1    3    3    0    0 -0.18758111881E+02 -0.67781749049E+02 -0.88684754441E+03  0.88963183356E+03  0.00000000000E+00 0.  1.
<mgrwt>
<rscale>  0 0.16149378E+03</rscale>
<asrwt>0</asrwt>
<pdfrwt beam="2">  1        1 0.20802062E+00 0.16149378E+03</pdfrwt>
<pdfrwt beam="1">  1       -1 0.74185413E-03 0.16149378E+03</pdfrwt>
<totfact> 0.25234198E+04</totfact>
</mgrwt>
</event>
<event>
 7    1  0.3345055E-009  0.9095038E+02  0.7818608E-02  0.1300566E+00
          1   -1    0    0  501    0  0.00000000000E+00  0.00000000000E+00  0.32888161552E+03  0.32888161556E+03  0.50400000000E-02 0. -1.
         -1   -1    0    0    0  501 -0.00000000000E+00 -0.00000000000E+00 -0.62879537516E+01  0.62879557714E+01  0.50400000000E-02 0.  1.
         23    2    1    2    0    0  0.17763568394E-14  0.00000000000E+00  0.32259366177E+03  0.33516957133E+03  0.90950376208E+02 0.  0.
    9000005    2    3    3    0    0  0.98515677246E+01  0.18379489681E+02  0.30955998471E+03  0.31057819550E+03  0.14020426498E+02 0.  0.
         22    1    3    3    0    0 -0.98515677246E+01 -0.18379489681E+02  0.13033677061E+02  0.24591375832E+02  0.00000000000E+00 0.  1.
         22    1    4    4    0    0 -0.27164166621E+01  0.12313854494E+01  0.74196598599E+02  0.74256518053E+02  0.00000000000E+00 0. -1.
         22    1    4    4    0    0  0.12567984387E+02  0.17148104232E+02  0.23536338611E+03  0.23632167745E+03  0.00000000000E+00 0. -1.
<mgrwt>
<rscale>  0 0.90950376E+02</rscale>
<asrwt>0</asrwt>
<pdfrwt beam="1">  1        1 0.50597168E-01 0.90950376E+02</pdfrwt>
<pdfrwt beam="2">  1       -1 0.96737772E-03 0.90950376E+02</pdfrwt>
<totfact> 0.13121708E+05</totfact>
</mgrwt>
</event>
<event>
 7    1  0.3345055E-009  0.9109091E+02  0.7818608E-02  0.1300231E+00
         -1   -1    0    0    0  501 -0.00000000000E+00  0.00000000000E+00  0.17280984227E+03  0.17280984234E+03  0.50400000000E-02 0.  1.
          1   -1    0    0  501    0  0.00000000000E+00 -0.00000000000E+00 -0.12003877633E+02  0.12003878691E+02  0.50400000000E-02 0. -1.
         23    2    1    2    0    0  0.71054273576E-14 -0.35527136788E-14  0.16080596463E+03  0.18481372103E+03  0.91090906351E+02 0.  0.
    9000005    2    3    3    0    0  0.36563370744E+02 -0.22448534886E+02  0.10821306908E+03  0.11694009241E+03  0.11140022259E+02 0.  0.
         22    1    3    3    0    0 -0.36563370744E+02  0.22448534886E+02  0.52592895556E+02  0.67873628618E+02  0.00000000000E+00 0. -1.
         22    1    4    4    0    0  0.23604098245E+02 -0.20416578185E+02  0.76540103575E+02  0.82658197258E+02  0.00000000000E+00 0. -1.
         22    1    4    4    0    0  0.12959272500E+02 -0.20319567016E+01  0.31672965503E+02  0.34281895156E+02  0.00000000000E+00 0. -1.
<mgrwt>
<rscale>  0 0.91090906E+02</rscale>
<asrwt>0</asrwt>
<pdfrwt beam="2">  1        1 0.18467505E-02 0.91090906E+02</pdfrwt>
<pdfrwt beam="1">  1       -1 0.26586129E-01 0.91090906E+02</pdfrwt>
<totfact> 0.72412174E+04</totfact>
</mgrwt>
</event>
<event>
 7    1  0.3345055E-009  0.8823280E+02  0.7818608E-02  0.1307189E+00
          1   -1    0    0  501    0  0.00000000000E+00  0.00000000000E+00  0.14172745999E+02  0.14172746895E+02  0.50400000000E-02 0. -1.
         -1   -1    0    0    0  501 -0.00000000000E+00 -0.00000000000E+00 -0.13732388599E+03  0.13732388608E+03  0.50400000000E-02 0.  1.
         23    2    1    2    0    0  0.17763568394E-14  0.00000000000E+00 -0.12315113999E+03  0.15149663298E+03  0.88232797318E+02 0.  0.
    9000005    2    3    3    0    0  0.13889206427E+02 -0.41809951552E+02 -0.58420144182E+02  0.73195394658E+02  0.19158415696E+01 0.  0.
         22    1    3    3    0    0 -0.13889206427E+02  0.41809951552E+02 -0.64730995812E+02  0.78301238322E+02  0.00000000000E+00 0. -1.
         22    1    4    4    0    0  0.79267098031E+01 -0.26419346988E+02 -0.35786717288E+02  0.45183002975E+02  0.00000000000E+00 0. -1.
         22    1    4    4    0    0  0.59624966238E+01 -0.15390604564E+02 -0.22633426893E+02  0.28012391682E+02  0.00000000000E+00 0. -1.
<mgrwt>
<rscale>  0 0.88232797E+02</rscale>
<asrwt>0</asrwt>
<pdfrwt beam="1">  1        1 0.21804226E-02 0.88232797E+02</pdfrwt>
<pdfrwt beam="2">  1       -1 0.21126751E-01 0.88232797E+02</pdfrwt>
<totfact> 0.83071767E+04</totfact>
</mgrwt>
</event>
<event>
 7    1  0.3345055E-009  0.7132445E+02  0.7818608E-02  0.1355646E+00
         -1   -1    0    0    0  501 -0.00000000000E+00  0.00000000000E+00  0.18012844181E+02  0.18012844887E+02  0.50400000000E-02 0.  1.
          1   -1    0    0  501    0  0.00000000000E+00 -0.00000000000E+00 -0.70604847400E+02  0.70604847580E+02  0.50400000000E-02 0. -1.
         23    2    1    2    0    0  0.00000000000E+00  0.00000000000E+00 -0.52592003219E+02  0.88617692467E+02  0.71324446129E+02 0.  0.
    9000005    2    3    3    0    0  0.20405385422E+02  0.27209664793E+02 -0.30123764310E+02  0.47855364613E+02  0.15031604495E+02 0.  0.
         22    1    3    3    0    0 -0.20405385422E+02 -0.27209664793E+02 -0.22468238909E+02  0.40762327854E+02  0.00000000000E+00 0. -1.
         22    1    4    4    0    0  0.14484594464E+02  0.13171058866E+02 -0.25058197926E+02  0.31799269673E+02  0.00000000000E+00 0.  1.
         22    1    4    4    0    0  0.59207909585E+01  0.14038605927E+02 -0.50655663836E+01  0.16056094940E+02  0.00000000000E+00 0.  1.
<mgrwt>
<rscale>  0 0.71324446E+02</rscale>
<asrwt>0</asrwt>
<pdfrwt beam="2">  1        1 0.10862284E-01 0.71324446E+02</pdfrwt>
<pdfrwt beam="1">  1       -1 0.27712069E-02 0.71324446E+02</pdfrwt>
<totfact> 0.19211833E+05</totfact>
</mgrwt>
</event>
<event>
 7    1  0.3345055E-009  0.9295917E+02  0.7818608E-02  0.1295840E+00
          1   -1    0    0  501    0  0.00000000000E+00  0.00000000000E+00  0.14452815575E+03  0.14452815584E+03  0.50400000000E-02 0. -1.
         -1   -1    0    0    0  501 -0.00000000000E+00 -0.00000000000E+00 -0.14947618955E+02  0.14947619805E+02  0.50400000000E-02 0.  1.
         23    2    1    2    0    0  0.00000000000E+00  0.00000000000E+00  0.12958053679E+03  0.15947577564E+03  0.92959171149E+02 0.  0.
    9000005    2    3    3    0    0  0.32772879917E+02  0.31735531704E+02  0.64298135076E+02  0.79832837445E+02  0.12562886995E+02 0.  0.
         22    1    3    3    0    0 -0.32772879917E+02 -0.31735531704E+02  0.65282401717E+02  0.79642938196E+02  0.00000000000E+00 0.  1.
         22    1    4    4    0    0  0.10333757307E+02  0.71438165949E+01  0.96421490346E+01  0.15836404063E+02  0.00000000000E+00 0. -1.
         22    1    4    4    0    0  0.22439122609E+02  0.24591715110E+02  0.54655986041E+02  0.63996433382E+02  0.00000000000E+00 0. -1.
<mgrwt>
<rscale>  0 0.92959171E+02</rscale>
<asrwt>0</asrwt>
<pdfrwt beam="1">  1        1 0.22235101E-01 0.92959171E+02</pdfrwt>
<pdfrwt beam="2">  1       -1 0.22996338E-02 0.92959171E+02</pdfrwt>
<totfact> 0.10568933E+05</totfact>
</mgrwt>
</event>
<event>
 7    1  0.3345055E-009  0.9281378E+02  0.7818608E-02  0.1296177E+00
         -1   -1    0    0    0  501 -0.00000000000E+00  0.00000000000E+00  0.17014377799E+02  0.17014378545E+02  0.50400000000E-02 0.  1.
          1   -1    0    0  501    0  0.00000000000E+00 -0.00000000000E+00 -0.12657526012E+03  0.12657526022E+03  0.50400000000E-02 0. -1.
         23    2    1    2    0    0  0.00000000000E+00  0.00000000000E+00 -0.10956088232E+03  0.14358963876E+03  0.92813778210E+02 0.  0.
    9000005    2    3    3    0    0 -0.11674373985E+02 -0.43743951213E+02 -0.41866251264E+02  0.62150168300E+02  0.77482997575E+01 0.  0.
         22    1    3    3    0    0  0.11674373985E+02  0.43743951213E+02 -0.67694631055E+02  0.81439470463E+02  0.00000000000E+00 0. -1.
         22    1    4    4    0    0 -0.10060147610E+01 -0.28317089320E+00 -0.33649148681E+00  0.10979426100E+01  0.00000000000E+00 0. -1.
         22    1    4    4    0    0 -0.10668359224E+02 -0.43460780320E+02 -0.41529759777E+02  0.61052225690E+02  0.00000000000E+00 0. -1.
<mgrwt>
<rscale>  0 0.92813778E+02</rscale>
<asrwt>0</asrwt>
<pdfrwt beam="2">  1        1 0.19473116E-01 0.92813778E+02</pdfrwt>
<pdfrwt beam="1">  1       -1 0.26175967E-02 0.92813778E+02</pdfrwt>
<totfact> 0.10362446E+05</totfact>
</mgrwt>
</event>
<event>
 7    1  0.3345055E-009  0.7666057E+02  0.7818608E-02  0.1338805E+00
          1   -1    0    0  501    0  0.00000000000E+00  0.00000000000E+00  0.46499921228E+03  0.46499921230E+03  0.50400000000E-02 0. -1.
         -1   -1    0    0    0  501 -0.00000000000E+00 -0.00000000000E+00 -0.31595959252E+01  0.31595999450E+01  0.50400000000E-02 0.  1.
         23    2    1    2    0    0  0.00000000000E+00  0.00000000000E+00  0.46183961635E+03  0.46815881225E+03  0.76660565186E+02 0.  0.
    9000005    2    3    3    0    0  0.28706166682E+02  0.23540186651E+02  0.24172959314E+03  0.24494007040E+03  0.13574148087E+02 0.  0.
         22    1    3    3    0    0 -0.28706166682E+02 -0.23540186651E+02  0.22011002321E+03  0.22321874185E+03  0.00000000000E+00 0.  1.
         22    1    4    4    0    0  0.16112586552E+02  0.59856378012E+01  0.13096701038E+03  0.13209012496E+03  0.00000000000E+00 0. -1.
         22    1    4    4    0    0  0.12593580129E+02  0.17554548850E+02  0.11076258276E+03  0.11284994544E+03  0.00000000000E+00 0. -1.
<mgrwt>
<rscale>  0 0.76660565E+02</rscale>
<asrwt>0</asrwt>
<pdfrwt beam="1">  1        1 0.71538264E-01 0.76660565E+02</pdfrwt>
<pdfrwt beam="2">  1       -1 0.48609251E-03 0.76660565E+02</pdfrwt>
<totfact> 0.21766221E+05</totfact>
</mgrwt>
</event>
<event>
 7    1  0.3345055E-009  0.9375017E+02  0.7818608E-02  0.1294016E+00
          1   -1    0    0  501    0  0.00000000000E+00  0.00000000000E+00  0.36710073894E+02  0.36710074240E+02  0.50400000000E-02 0. -1.
         -1   -1    0    0    0  501 -0.00000000000E+00 -0.00000000000E+00 -0.59854786413E+02  0.59854786625E+02  0.50400000000E-02 0.  1.
         23    2    1    2    0    0  0.71054273576E-14  0.00000000000E+00 -0.23144712519E+02  0.96564860865E+02  0.93750171393E+02 0.  0.
    9000005    2    3    3    0    0  0.44656633951E+02  0.56653724641E+01 -0.27325482369E-01  0.45961254428E+02  0.92803427118E+01 0.  0.
         22    1    3    3    0    0 -0.44656633951E+02 -0.56653724641E+01 -0.23117387037E+02  0.50603606437E+02  0.00000000000E+00 0. -1.
         22    1    4    4    0    0  0.38927542315E+02  0.43707423682E+01 -0.31692749976E+01  0.39300143047E+02  0.00000000000E+00 0.  1.
         22    1    4    4    0    0  0.57290916365E+01  0.12946300959E+01  0.31419495152E+01  0.66611113803E+01  0.00000000000E+00 0.  1.
<mgrwt>
<rscale>  0 0.93750171E+02</rscale>
<asrwt>0</asrwt>
<pdfrwt beam="1">  1        1 0.56477037E-02 0.93750171E+02</pdfrwt>
<pdfrwt beam="2">  1       -1 0.92084287E-02 0.93750171E+02</pdfrwt>
<totfact> 0.82664091E+04</totfact>
</mgrwt>
</event>
<event>
 7    1  0.3345055E-009  0.8853214E+02  0.7818608E-02  0.1306446E+00
          1   -1    0    0  501    0  0.00000000000E+00  0.00000000000E+00  0.41067399385E+03  0.41067399388E+03  0.50400000000E-02 0. -1.
         -1   -1    0    0    0  501 -0.00000000000E+00 -0.00000000000E+00 -0.47713861863E+01  0.47713888481E+01  0.50400000000E-02 0.  1.
         23    2    1    2    0    0  0.00000000000E+00  0.35527136788E-14  0.40590260766E+03  0.41544538273E+03  0.88532136101E+02 0.  0.
    9000005    2    3    3    0    0  0.33156882741E+02  0.25091470120E+02  0.26149682367E+03  0.26517232727E+03  0.14381015780E+02 0.  0.
         22    1    3    3    0    0 -0.33156882741E+02 -0.25091470120E+02  0.14440578400E+03  0.15027305546E+03  0.00000000000E+00 0.  1.
         22    1    4    4    0    0  0.23717059381E+02  0.24474166745E+02  0.21894902403E+03  0.22158555654E+03  0.00000000000E+00 0.  1.
         22    1    4    4    0    0  0.94398233600E+01  0.61730337530E+00  0.42547799640E+02  0.43586770731E+02  0.00000000000E+00 0.  1.
<mgrwt>
<rscale>  0 0.88532136E+02</rscale>
<asrwt>0</asrwt>
<pdfrwt beam="1">  1        1 0.63180624E-01 0.88532136E+02</pdfrwt>
<pdfrwt beam="2">  1       -1 0.73405951E-03 0.88532136E+02</pdfrwt>
<totfact> 0.14645568E+05</totfact>
</mgrwt>
</event>
<event>
 7    1  0.3345055E-009  0.9552628E+02  0.7818608E-02  0.1289995E+00
          1   -1    0    0  501    0  0.00000000000E+00  0.00000000000E+00  0.38427454203E+03  0.38427454206E+03  0.50400000000E-02 0. -1.
         -1   -1    0    0    0  501 -0.00000000000E+00 -0.00000000000E+00 -0.59366857310E+01  0.59366878704E+01  0.50400000000E-02 0.  1.
         23    2    1    2    0    0  0.00000000000E+00  0.00000000000E+00  0.37833785630E+03  0.39021122993E+03  0.95526281500E+02 0.  0.
    9000005    2    3    3    0    0 -0.41159773620E+02  0.88820234972E+01  0.27497216582E+03  0.27859813360E+03  0.15303945949E+02 0.  0.
         22    1    3    3    0    0  0.41159773620E+02 -0.88820234972E+01  0.10336569048E+03  0.11161309634E+03  0.00000000000E+00 0.  1.
         22    1    4    4    0    0 -0.42526815308E+02  0.87337109758E+01  0.26760237672E+03  0.27110116148E+03  0.00000000000E+00 0.  1.
         22    1    4    4    0    0  0.13670416887E+01  0.14831252141E+00  0.73697890991E+01  0.74969721187E+01  0.00000000000E+00 0.  1.
<mgrwt>
<rscale>  0 0.95526282E+02</rscale>
<asrwt>0</asrwt>
<pdfrwt beam="1">  1        1 0.59119168E-01 0.95526282E+02</pdfrwt>
<pdfrwt beam="2">  1       -1 0.91333631E-03 0.95526282E+02</pdfrwt>
<totfact> 0.11835075E+05</totfact>
</mgrwt>
</event>
<event>
 7    1  0.3345055E-009  0.8772239E+02  0.7818608E-02  0.1308463E+00
         -1   -1    0    0    0  501 -0.00000000000E+00  0.00000000000E+00  0.45116139154E+02  0.45116139435E+02  0.50400000000E-02 0.  1.
          1   -1    0    0  501    0  0.00000000000E+00 -0.00000000000E+00 -0.42641153119E+02  0.42641153417E+02  0.50400000000E-02 0. -1.
         23    2    1    2    0    0 -0.17763568394E-14  0.00000000000E+00  0.24749860344E+01  0.87757292852E+02  0.87722385358E+02 0.  0.
    9000005    2    3    3    0    0 -0.89594532320E+01 -0.38598298360E+02 -0.15249979220E+02  0.44349058244E+02  0.12813144127E+02 0.  0.
         22    1    3    3    0    0  0.89594532320E+01  0.38598298360E+02  0.17724965254E+02  0.43408234608E+02  0.00000000000E+00 0. -1.
         22    1    4    4    0    0 -0.11615666452E+02 -0.23706290858E+02 -0.11292370458E+02  0.28712881499E+02  0.00000000000E+00 0.  1.
         22    1    4    4    0    0  0.26562132203E+01 -0.14892007502E+02 -0.39576087613E+01  0.15636176745E+02  0.00000000000E+00 0.  1.
<mgrwt>
<rscale>  0 0.87722385E+02</rscale>
<asrwt>0</asrwt>
<pdfrwt beam="2">  1        1 0.65601774E-02 0.87722385E+02</pdfrwt>
<pdfrwt beam="1">  1       -1 0.69409445E-02 0.87722385E+02</pdfrwt>
<totfact> 0.10201877E+05</totfact>
</mgrwt>
</event>
<event>
 7    1  0.3345055E-009  0.9163301E+02  0.7818608E-02  0.1298945E+00
          1   -1    0    0  501    0  0.00000000000E+00  0.00000000000E+00  0.95256154548E+02  0.95256154681E+02  0.50400000000E-02 0. -1.
         -1   -1    0    0    0  501 -0.00000000000E+00 -0.00000000000E+00 -0.22036920193E+02  0.22036920769E+02  0.50400000000E-02 0.  1.
         23    2    1    2    0    0  0.88817841970E-15  0.00000000000E+00  0.73219234355E+02  0.11729307545E+03  0.91633014078E+02 0.  0.
    9000005    2    3    3    0    0  0.51188351195E+01 -0.27207122652E+02  0.83007552311E+02  0.87929132180E+02  0.86515056024E+01 0.  0.
         22    1    3    3    0    0 -0.51188351195E+01  0.27207122652E+02 -0.97883179563E+01  0.29363943270E+02  0.00000000000E+00 0.  1.
         22    1    4    4    0    0  0.12720137259E+00  0.66276796081E+00  0.24282204605E+01  0.25202571623E+01  0.00000000000E+00 0. -1.
         22    1    4    4    0    0  0.49916337469E+01 -0.27869890613E+02  0.80579331851E+02  0.85408875017E+02  0.00000000000E+00 0. -1.
<mgrwt>
<rscale>  0 0.91633014E+02</rscale>
<asrwt>0</asrwt>
<pdfrwt beam="1">  1        1 0.14654793E-01 0.91633014E+02</pdfrwt>
<pdfrwt beam="2">  1       -1 0.33902954E-02 0.91633014E+02</pdfrwt>
<totfact> 0.10221210E+05</totfact>
</mgrwt>
</event>
<event>
 7    1  0.3345055E-009  0.9162685E+02  0.7818608E-02  0.1298959E+00
         -1   -1    0    0    0  501 -0.00000000000E+00  0.00000000000E+00  0.86835241994E+02  0.86835242140E+02  0.50400000000E-02 0.  1.
          1   -1    0    0  501    0  0.00000000000E+00 -0.00000000000E+00 -0.24170714549E+02  0.24170715074E+02  0.50400000000E-02 0. -1.
         23    2    1    2    0    0  0.00000000000E+00  0.00000000000E+00  0.62664527445E+02  0.11100595721E+03  0.91626849434E+02 0.  0.
    9000005    2    3    3    0    0 -0.95865981499E+01  0.42351932225E+02  0.18045115469E+02  0.48744565065E+02  0.12838123067E+02 0.  0.
         22    1    3    3    0    0  0.95865981499E+01 -0.42351932225E+02  0.44619411976E+02  0.62261392149E+02  0.00000000000E+00 0.  1.
         22    1    4    4    0    0  0.29809396272E+01  0.49285996522E+01  0.30299348381E+01  0.65082717150E+01  0.00000000000E+00 0. -1.
         22    1    4    4    0    0 -0.12567537777E+02  0.37423332572E+02  0.15015180630E+02  0.42236293350E+02  0.00000000000E+00 0. -1.
<mgrwt>
<rscale>  0 0.91626849E+02</rscale>
<asrwt>0</asrwt>
<pdfrwt beam="2">  1        1 0.37185715E-02 0.91626849E+02</pdfrwt>
<pdfrwt beam="1">  1       -1 0.13359268E-01 0.91626849E+02</pdfrwt>
<totfact> 0.82417509E+04</totfact>
</mgrwt>
</event>
<event>
 7    1  0.3345055E-009  0.8524899E+02  0.7818608E-02  0.1314783E+00
          1   -1    0    0  501    0  0.00000000000E+00  0.00000000000E+00  0.76424791730E+01  0.76424808348E+01  0.50400000000E-02 0. -1.
         -1   -1    0    0    0  501 -0.00000000000E+00 -0.00000000000E+00 -0.23773010055E+03  0.23773010061E+03  0.50400000000E-02 0.  1.
         23    2    1    2    0    0  0.00000000000E+00  0.00000000000E+00 -0.23008762138E+03  0.24537258144E+03  0.85248989501E+02 0.  0.
    9000005    2    3    3    0    0 -0.96984576475E+01  0.11488339052E+02 -0.22970359803E+03  0.23033298408E+03  0.79686004398E+01 0.  0.
         22    1    3    3    0    0  0.96984576475E+01 -0.11488339052E+02 -0.38402335308E+00  0.15039597363E+02  0.00000000000E+00 0. -1.
         22    1    4    4    0    0 -0.98805888547E+01  0.69276073062E+01 -0.18619430949E+03  0.18658493687E+03  0.00000000000E+00 0. -1.
         22    1    4    4    0    0  0.18213120719E+00  0.45607317454E+01 -0.43509288534E+02  0.43748047208E+02  0.00000000000E+00 0. -1.
<mgrwt>
<rscale>  0 0.85248990E+02</rscale>
<asrwt>0</asrwt>
<pdfrwt beam="1">  1        1 0.11757663E-02 0.85248990E+02</pdfrwt>
<pdfrwt beam="2">  1       -1 0.36573856E-01 0.85248990E+02</pdfrwt>
<totfact> 0.78449743E+04</totfact>
</mgrwt>
</event>
<event>
 7    1  0.3345055E-009  0.9108170E+02  0.7818608E-02  0.1300253E+00
         -1   -1    0    0    0  501 -0.00000000000E+00  0.00000000000E+00  0.65183263280E+03  0.65183263282E+03  0.50400000000E-02 0.  1.
          1   -1    0    0  501    0  0.00000000000E+00 -0.00000000000E+00 -0.31817485590E+01  0.31817525507E+01  0.50400000000E-02 0. -1.
         23    2    1    2    0    0 -0.35527136788E-14 -0.35527136788E-14  0.64865088424E+03  0.65501438537E+03  0.91081696379E+02 0.  0.
    9000005    2    3    3    0    0 -0.21015637073E+02 -0.29350014738E+02  0.51852046852E+03  0.51996992801E+03  0.14218628586E+02 0.  0.
         22    1    3    3    0    0  0.21015637073E+02  0.29350014738E+02  0.13013041573E+03  0.13504445736E+03  0.00000000000E+00 0. -1.
         22    1    4    4    0    0  0.50805172021E+00 -0.32109540670E+01  0.11019285747E+03  0.11024080088E+03  0.00000000000E+00 0. -1.
         22    1    4    4    0    0 -0.21523688793E+02 -0.26139060671E+02  0.40832761105E+03  0.40972912713E+03  0.00000000000E+00 0. -1.
<mgrwt>
<rscale>  0 0.91081696E+02</rscale>
<asrwt>0</asrwt>
<pdfrwt beam="2">  1        1 0.48949972E-03 0.91081696E+02</pdfrwt>
<pdfrwt beam="1">  1       -1 0.10028202E+00 0.91081696E+02</pdfrwt>
<totfact> 0.39179647E+04</totfact>
</mgrwt>
</event>
<event>
 7    1  0.3345055E-009  0.8967513E+02  0.7818608E-02  0.1303640E+00
          1   -1    0    0  501    0  0.00000000000E+00  0.00000000000E+00  0.54387159842E+02  0.54387160076E+02  0.50400000000E-02 0. -1.
         -1   -1    0    0    0  501 -0.00000000000E+00 -0.00000000000E+00 -0.36964738690E+02  0.36964739033E+02  0.50400000000E-02 0.  1.
         23    2    1    2    0    0 -0.35527136788E-14  0.00000000000E+00  0.17422421153E+02  0.91351899109E+02  0.89675128726E+02 0.  0.
    9000005    2    3    3    0    0 -0.22590978561E+02  0.95377032211E+01 -0.27713696530E+02  0.39984699316E+02  0.15146191238E+02 0.  0.
         22    1    3    3    0    0  0.22590978561E+02 -0.95377032211E+01  0.45136117682E+02  0.51367199792E+02  0.00000000000E+00 0. -1.
         22    1    4    4    0    0 -0.13791507776E+02 -0.22113903114E+01 -0.15720449749E+02  0.21029229044E+02  0.00000000000E+00 0.  1.
         22    1    4    4    0    0 -0.87994707847E+01  0.11749093532E+02 -0.11993246780E+02  0.18955470273E+02  0.00000000000E+00 0.  1.
<mgrwt>
<rscale>  0 0.89675129E+02</rscale>
<asrwt>0</asrwt>
<pdfrwt beam="1">  1        1 0.83672554E-02 0.89675129E+02</pdfrwt>
<pdfrwt beam="2">  1       -1 0.56868829E-02 0.89675129E+02</pdfrwt>
<totfact> 0.99440200E+04</totfact>
</mgrwt>
</event>
<event>
 7    1  0.3345055E-009  0.9243944E+02  0.7818608E-02  0.1297049E+00
          1   -1    0    0  501    0  0.00000000000E+00  0.00000000000E+00  0.18284202631E+02  0.18284203326E+02  0.50400000000E-02 0. -1.
         -1   -1    0    0    0  501 -0.00000000000E+00 -0.00000000000E+00 -0.11683652356E+03  0.11683652367E+03  0.50400000000E-02 0.  1.
         23    2    1    2    0    0  0.00000000000E+00 -0.71054273576E-14 -0.98552320928E+02  0.13512072699E+03  0.92439444518E+02 0.  0.
    9000005    2    3    3    0    0 -0.17405277518E+02  0.42055063966E+02 -0.57850939883E+02  0.74061947857E+02  0.81773335687E+01 0.  0.
         22    1    3    3    0    0  0.17405277518E+02 -0.42055063966E+02 -0.40701381044E+02  0.61058779136E+02  0.00000000000E+00 0.  1.
         22    1    4    4    0    0 -0.43900858385E+01  0.43350202910E+01 -0.10081414089E+02  0.11819482418E+02  0.00000000000E+00 0.  1.
         22    1    4    4    0    0 -0.13015191680E+02  0.37720043675E+02 -0.47769525794E+02  0.62242465439E+02  0.00000000000E+00 0.  1.
<mgrwt>
<rscale>  0 0.92439445E+02</rscale>
<asrwt>0</asrwt>
<pdfrwt beam="1">  1        1 0.28129544E-02 0.92439445E+02</pdfrwt>
<pdfrwt beam="2">  1       -1 0.17974849E-01 0.92439445E+02</pdfrwt>
<totfact> 0.76197955E+04</totfact>
</mgrwt>
</event>
<event>
 7    1  0.3345055E-009  0.9150531E+02  0.7818608E-02  0.1299247E+00
         -1   -1    0    0    0  501 -0.00000000000E+00  0.00000000000E+00  0.41856448440E+02  0.41856448743E+02  0.50400000000E-02 0.  1.
          1   -1    0    0  501    0  0.00000000000E+00 -0.00000000000E+00 -0.50011538055E+02  0.50011538309E+02  0.50400000000E-02 0. -1.
         23    2    1    2    0    0  0.00000000000E+00  0.00000000000E+00 -0.81550896148E+01  0.91867987052E+02  0.91505308908E+02 0.  0.
    9000005    2    3    3    0    0  0.31109562363E+02 -0.86837434476E+01 -0.35236124271E+02  0.49718316724E+02  0.13678972679E+02 0.  0.
         22    1    3    3    0    0 -0.31109562363E+02  0.86837434476E+01  0.27081034657E+02  0.42149670328E+02  0.00000000000E+00 0.  1.
         22    1    4    4    0    0  0.45221136950E+01 -0.14180106029E+01 -0.14419262272E+02  0.15178122111E+02  0.00000000000E+00 0.  1.
         22    1    4    4    0    0  0.26587448668E+02 -0.72657328447E+01 -0.20816861999E+02  0.34540194613E+02  0.00000000000E+00 0.  1.
<mgrwt>
<rscale>  0 0.91505309E+02</rscale>
<asrwt>0</asrwt>
<pdfrwt beam="2">  1        1 0.76940828E-02 0.91505309E+02</pdfrwt>
<pdfrwt beam="1">  1       -1 0.64394536E-02 0.91505309E+02</pdfrwt>
<totfact> 0.92828133E+04</totfact>
</mgrwt>
</event>
<event>
 7    1  0.3345055E-009  0.1204156E+03  0.7818608E-02  0.1242413E+00
         -1   -1    0    0    0  501 -0.00000000000E+00  0.00000000000E+00  0.48409326121E+02  0.48409326383E+02  0.50400000000E-02 0.  1.
          1   -1    0    0  501    0  0.00000000000E+00 -0.00000000000E+00 -0.74881786556E+02  0.74881786726E+02  0.50400000000E-02 0. -1.
         23    2    1    2    0    0  0.00000000000E+00  0.00000000000E+00 -0.26472460435E+02  0.12329111311E+03  0.12041556133E+03 0.  0.
    9000005    2    3    3    0    0  0.36893916343E+02  0.32870533775E+02  0.21955523298E+02  0.54103667266E+02  0.18784979529E+01 0.  0.
         22    1    3    3    0    0 -0.36893916343E+02 -0.32870533775E+02 -0.48427983733E+02  0.69187445843E+02  0.00000000000E+00 0. -1.
         22    1    4    4    0    0  0.10231396569E+02  0.99257706342E+01  0.56799510258E+01  0.15344844153E+02  0.00000000000E+00 0. -1.
         22    1    4    4    0    0  0.26662519774E+02  0.22944763141E+02  0.16275572273E+02  0.38758823113E+02  0.00000000000E+00 0. -1.
<mgrwt>
<rscale>  0 0.12041556E+03</rscale>
<asrwt>0</asrwt>
<pdfrwt beam="2">  1        1 0.11520275E-01 0.12041556E+03</pdfrwt>
<pdfrwt beam="1">  1       -1 0.74475886E-02 0.12041556E+03</pdfrwt>
<totfact> 0.45632026E+04</totfact>
</mgrwt>
</event>
<event>
 7    1  0.3345055E-009  0.8901054E+02  0.7818608E-02  0.1305266E+00
          1   -1    0    0  501    0  0.00000000000E+00  0.00000000000E+00  0.32501184961E+02  0.32501185351E+02  0.50400000000E-02 0. -1.
         -1   -1    0    0    0  501 -0.00000000000E+00 -0.00000000000E+00 -0.60942974719E+02  0.60942974928E+02  0.50400000000E-02 0.  1.
         23    2    1    2    0    0  0.44408920985E-15 -0.71054273576E-14 -0.28441789759E+02  0.93444160279E+02  0.89010536936E+02 0.  0.
    9000005    2    3    3    0    0 -0.27547861436E+01 -0.33993737969E+02  0.14493711150E+02  0.38611502983E+02  0.10845157071E+02 0.  0.
         22    1    3    3    0    0  0.27547861436E+01  0.33993737969E+02 -0.42935500909E+02  0.54832657296E+02  0.00000000000E+00 0.  1.
         22    1    4    4    0    0 -0.62681951039E+01 -0.28811228070E+02  0.12652189374E+02  0.32085121610E+02  0.00000000000E+00 0. -1.
         22    1    4    4    0    0  0.35134089603E+01 -0.51825098989E+01  0.18415217764E+01  0.65263813732E+01  0.00000000000E+00 0. -1.
<mgrwt>
<rscale>  0 0.89010537E+02</rscale>
<asrwt>0</asrwt>
<pdfrwt beam="1">  1        1 0.50001823E-02 0.89010537E+02</pdfrwt>
<pdfrwt beam="2">  1       -1 0.93758423E-02 0.89010537E+02</pdfrwt>
<totfact> 0.94023839E+04</totfact>
</mgrwt>
</event>
<event>
 7    1  0.3345055E-009  0.9310069E+02  0.7818608E-02  0.1295512E+00
         -1   -1    0    0    0  501 -0.00000000000E+00  0.00000000000E+00  0.47877923570E+02  0.47877923836E+02  0.50400000000E-02 0.  1.
          1   -1    0    0  501    0  0.00000000000E+00 -0.00000000000E+00 -0.45259577003E+02  0.45259577283E+02  0.50400000000E-02 0. -1.
         23    2    1    2    0    0  0.00000000000E+00  0.00000000000E+00  0.26183465677E+01  0.93137501119E+02  0.93100689449E+02 0.  0.
    9000005    2    3    3    0    0  0.21721278729E+02  0.36794058332E+02  0.18438859795E+02  0.47575397162E+02  0.98899032559E+01 0.  0.
         22    1    3    3    0    0 -0.21721278729E+02 -0.36794058332E+02 -0.15820513228E+02  0.45562103957E+02  0.00000000000E+00 0. -1.
         22    1    4    4    0    0  0.19531811183E+02  0.24553360497E+02  0.12199033657E+02  0.33662673422E+02  0.00000000000E+00 0. -1.
         22    1    4    4    0    0  0.21894675466E+01  0.12240697835E+02  0.62398261380E+01  0.13912723740E+02  0.00000000000E+00 0. -1.
<mgrwt>
<rscale>  0 0.93100689E+02</rscale>
<asrwt>0</asrwt>
<pdfrwt beam="2">  1        1 0.69630119E-02 0.93100689E+02</pdfrwt>
<pdfrwt beam="1">  1       -1 0.73658345E-02 0.93100689E+02</pdfrwt>
<totfact> 0.87097961E+04</totfact>
</mgrwt>
</event>
<event>
 7    1  0.3345055E-009  0.9070498E+02  0.7818608E-02  0.1301153E+00
         -1   -1    0    0    0  501 -0.00000000000E+00  0.00000000000E+00  0.43664610589E+01  0.43664639676E+01  0.50400000000E-02 0.  1.
          1   -1    0    0  501    0  0.00000000000E+00 -0.00000000000E+00 -0.47105601673E+03  0.47105601675E+03  0.50400000000E-02 0. -1.
         23    2    1    2    0    0  0.00000000000E+00  0.17763568394E-14 -0.46668955567E+03  0.47542248072E+03  0.90704982255E+02 0.  0.
    9000005    2    3    3    0    0  0.96665244033E+01  0.14351601627E+02 -0.45251294071E+03  0.45305315854E+03  0.13776530372E+02 0.  0.
         22    1    3    3    0    0 -0.96665244033E+01 -0.14351601627E+02 -0.14176614962E+02  0.22369322186E+02  0.00000000000E+00 0.  1.
         22    1    4    4    0    0  0.54764772567E+01  0.47516343111E+01 -0.33387500414E+03  0.33395372168E+03  0.00000000000E+00 0. -1.
         22    1    4    4    0    0  0.41900471466E+01  0.95999673157E+01 -0.11863793656E+03  0.11909943686E+03  0.00000000000E+00 0. -1.
<mgrwt>
<rscale>  0 0.90704982E+02</rscale>
<asrwt>0</asrwt>
<pdfrwt beam="2">  1        1 0.72470117E-01 0.90704982E+02</pdfrwt>
<pdfrwt beam="1">  1       -1 0.67176384E-03 0.90704982E+02</pdfrwt>
<totfact> 0.14014003E+05</totfact>
</mgrwt>
</event>
<event>
 7    1  0.3345055E-009  0.1234164E+03  0.7818608E-02  0.1237565E+00
          1   -1    0    0  501    0  0.00000000000E+00  0.00000000000E+00  0.15305893287E+02  0.15305894117E+02  0.50400000000E-02 0. -1.
         -1   -1    0    0    0  501 -0.00000000000E+00 -0.00000000000E+00 -0.24878647620E+03  0.24878647625E+03  0.50400000000E-02 0.  1.
         23    2    1    2    0    0  0.00000000000E+00  0.71054273576E-14 -0.23348058291E+03  0.26409237036E+03  0.12341635827E+03 0.  0.
    9000005    2    3    3    0    0  0.44632001361E+02  0.35985339448E+02 -0.76024720411E+02  0.96523552155E+02  0.15813848564E+02 0.  0.
         22    1    3    3    0    0 -0.44632001361E+02 -0.35985339448E+02 -0.15745586250E+03  0.16756881821E+03  0.00000000000E+00 0.  1.
         22    1    4    4    0    0  0.26058480555E+02  0.14655897981E+02 -0.49026786058E+02  0.57423562286E+02  0.00000000000E+00 0.  1.
         22    1    4    4    0    0  0.18573520807E+02  0.21329441467E+02 -0.26997934353E+02  0.39099989869E+02  0.00000000000E+00 0.  1.
<mgrwt>
<rscale>  0 0.12341636E+03</rscale>
<asrwt>0</asrwt>
<pdfrwt beam="1">  1        1 0.23547531E-02 0.12341636E+03</pdfrwt>
<pdfrwt beam="2">  1       -1 0.38274840E-01 0.12341636E+03</pdfrwt>
<totfact> 0.29214289E+04</totfact>
</mgrwt>
</event>
<event>
 7    1  0.3345055E-009  0.8826781E+02  0.7818608E-02  0.1307101E+00
         -1   -1    0    0    0  501 -0.00000000000E+00  0.00000000000E+00  0.17380522807E+02  0.17380523538E+02  0.50400000000E-02 0.  1.
          1   -1    0    0  501    0  0.00000000000E+00 -0.00000000000E+00 -0.11206805179E+03  0.11206805190E+03  0.50400000000E-02 0. -1.
         23    2    1    2    0    0  0.71054273576E-14  0.17763568394E-14 -0.94687528978E+02  0.12944857544E+03  0.88267805788E+02 0.  0.
    9000005    2    3    3    0    0 -0.40749373854E+02 -0.14646937369E+02 -0.58169366809E+02  0.72803889790E+02  0.64565385308E+01 0.  0.
         22    1    3    3    0    0  0.40749373854E+02  0.14646937369E+02 -0.36518162169E+02  0.56644685647E+02  0.00000000000E+00 0. -1.
         22    1    4    4    0    0 -0.47417764194E+00 -0.79929272523E+00 -0.27964167315E+01  0.29468050212E+01  0.00000000000E+00 0. -1.
         22    1    4    4    0    0 -0.40275196212E+02 -0.13847644643E+02 -0.55372950078E+02  0.69857084769E+02  0.00000000000E+00 0. -1.
<mgrwt>
<rscale>  0 0.88267806E+02</rscale>
<asrwt>0</asrwt>
<pdfrwt beam="2">  1        1 0.17241238E-01 0.88267806E+02</pdfrwt>
<pdfrwt beam="1">  1       -1 0.26739267E-02 0.88267806E+02</pdfrwt>
<totfact> 0.11625443E+05</totfact>
</mgrwt>
</event>
<event>
 7    1  0.3345055E-009  0.9004449E+02  0.7818608E-02  0.1302744E+00
          1   -1    0    0  501    0  0.00000000000E+00  0.00000000000E+00  0.13745568188E+04  0.13745568188E+04  0.50400000000E-02 0. -1.
         -1   -1    0    0    0  501 -0.00000000000E+00 -0.00000000000E+00 -0.14746544962E+01  0.14746631089E+01  0.50400000000E-02 0.  1.
         23    2    1    2    0    0  0.00000000000E+00  0.00000000000E+00  0.13730821643E+04  0.13760314819E+04  0.90044485121E+02 0.  0.
    9000005    2    3    3    0    0 -0.15736518283E+02  0.19125268273E+02  0.12575546283E+04  0.12578789302E+04  0.14224840095E+02 0.  0.
         22    1    3    3    0    0  0.15736518283E+02 -0.19125268273E+02  0.11552753600E+03  0.11815255168E+03  0.00000000000E+00 0.  1.
         22    1    4    4    0    0 -0.33281863490E+00  0.72125441670E+01  0.17457005369E+03  0.17471930405E+03  0.00000000000E+00 0. -1.
         22    1    4    4    0    0 -0.15403699648E+02  0.11912724106E+02  0.10829845746E+04  0.10831596262E+04  0.00000000000E+00 0. -1.
<mgrwt>
<rscale>  0 0.90044485E+02</rscale>
<asrwt>0</asrwt>
<pdfrwt beam="1">  1        1 0.21146993E+00 0.90044485E+02</pdfrwt>
<pdfrwt beam="2">  1       -1 0.22687096E-03 0.90044485E+02</pdfrwt>
<totfact> 0.12186126E+05</totfact>
</mgrwt>
</event>
<event>
 7    1  0.3345055E-009  0.9147873E+02  0.7818608E-02  0.1299310E+00
          1   -1    0    0  501    0  0.00000000000E+00  0.00000000000E+00  0.89837515284E+02  0.89837515425E+02  0.50400000000E-02 0. -1.
         -1   -1    0    0    0  501 -0.00000000000E+00 -0.00000000000E+00 -0.23287481640E+02  0.23287482186E+02  0.50400000000E-02 0.  1.
         23    2    1    2    0    0 -0.71054273576E-14  0.17763568394E-14  0.66550033643E+02  0.11312499761E+03  0.91478730350E+02 0.  0.
    9000005    2    3    3    0    0 -0.42344330651E+02  0.10806627045E+02  0.21754958454E+02  0.50543656242E+02  0.13097993837E+02 0.  0.
         22    1    3    3    0    0  0.42344330651E+02 -0.10806627045E+02  0.44795075189E+02  0.62581341369E+02  0.00000000000E+00 0. -1.
         22    1    4    4    0    0 -0.27948964719E+02  0.80139469103E+01  0.73536877289E+01  0.29990743524E+02  0.00000000000E+00 0.  1.
         22    1    4    4    0    0 -0.14395365932E+02  0.27926801350E+01  0.14401270725E+02  0.20552912717E+02  0.00000000000E+00 0.  1.
<mgrwt>
<rscale>  0 0.91478730E+02</rscale>
<asrwt>0</asrwt>
<pdfrwt beam="1">  1        1 0.13821156E-01 0.91478730E+02</pdfrwt>
<pdfrwt beam="2">  1       -1 0.35826895E-02 0.91478730E+02</pdfrwt>
<totfact> 0.10170563E+05</totfact>
</mgrwt>
</event>
<event>
 7    1  0.4185584E-009  0.9168175E+02  0.7818608E-02  0.1298829E+00
         -1   -1    0    0    0  501 -0.00000000000E+00  0.00000000000E+00  0.53803070962E+01  0.53803094568E+01  0.50400000000E-02 0.  1.
          1   -1    0    0  501    0  0.00000000000E+00 -0.00000000000E+00 -0.39056975155E+03  0.39056975158E+03  0.50400000000E-02 0. -1.
         23    2    1    2    0    0 -0.71054273576E-14  0.35527136788E-14 -0.38518944445E+03  0.39595006104E+03  0.91681746920E+02 0.  0.
    9000005    2    3    3    0    0 -0.39460822917E+02  0.18603040655E+02 -0.15838036805E+03  0.16498342534E+03  0.15230232646E+02 0.  0.
         22    1    3    3    0    0  0.39460822917E+02 -0.18603040655E+02 -0.22680907640E+03  0.23096663570E+03  0.00000000000E+00 0.  1.
         22    1    4    4    0    0 -0.13147772252E+02  0.95390202810E+01 -0.36262403481E+02  0.39734352006E+02  0.00000000000E+00 0.  1.
         22    1    4    4    0    0 -0.26313050666E+02  0.90640203743E+01 -0.12211796457E+03  0.12524907334E+03  0.00000000000E+00 0.  1.
<mgrwt>
<rscale>  0 0.91681747E+02</rscale>
<asrwt>0</asrwt>
<pdfrwt beam="2">  1        1 0.60087632E-01 0.91681747E+02</pdfrwt>
<pdfrwt beam="1">  1       -1 0.82774004E-03 0.91681747E+02</pdfrwt>
<totfact> 0.13240211E+05</totfact>
</mgrwt>
</event>
<event>
 7    1  0.3345055E-009  0.8936784E+02  0.7818608E-02  0.1304390E+00
         -1   -1    0    0    0  501 -0.00000000000E+00  0.00000000000E+00  0.47296627681E+01  0.47296654535E+01  0.50400000000E-02 0.  1.
          1   -1    0    0  501    0  0.00000000000E+00 -0.00000000000E+00 -0.42215524590E+03  0.42215524593E+03  0.50400000000E-02 0. -1.
         23    2    1    2    0    0  0.00000000000E+00 -0.17763568394E-14 -0.41742558313E+03  0.42688491139E+03  0.89367836015E+02 0.  0.
    9000005    2    3    3    0    0  0.23083596196E+02 -0.14099604352E+02 -0.37766809934E+03  0.37879843955E+03  0.11109153383E+02 0.  0.
         22    1    3    3    0    0 -0.23083596196E+02  0.14099604352E+02 -0.39757483797E+02  0.48086471841E+02  0.00000000000E+00 0.  1.
         22    1    4    4    0    0  0.10841047634E+02 -0.54493903441E+01 -0.24214879838E+03  0.24245260305E+03  0.00000000000E+00 0.  1.
         22    1    4    4    0    0  0.12242548562E+02 -0.86502140077E+01 -0.13551930096E+03  0.13634583649E+03  0.00000000000E+00 0.  1.
<mgrwt>
<rscale>  0 0.89367836E+02</rscale>
<asrwt>0</asrwt>
<pdfrwt beam="2">  1        1 0.64946931E-01 0.89367836E+02</pdfrwt>
<pdfrwt beam="1">  1       -1 0.72764097E-03 0.89367836E+02</pdfrwt>
<totfact> 0.14347750E+05</totfact>
</mgrwt>
</event>
<event>
 7    1  0.3345055E-009  0.8916721E+02  0.7818608E-02  0.1304881E+00
         -1   -1    0    0    0  501 -0.00000000000E+00  0.00000000000E+00  0.54921881970E+01  0.54921905095E+01  0.50400000000E-02 0.  1.
          1   -1    0    0  501    0  0.00000000000E+00 -0.00000000000E+00 -0.36191352817E+03  0.36191352820E+03  0.50400000000E-02 0. -1.
         23    2    1    2    0    0  0.17763568394E-14  0.00000000000E+00 -0.35642133997E+03  0.36740571871E+03  0.89167205608E+02 0.  0.
    9000005    2    3    3    0    0 -0.13317537267E+02 -0.37961285305E+02 -0.24934428442E+03  0.25302079048E+03  0.15117283562E+02 0.  0.
         22    1    3    3    0    0  0.13317537267E+02  0.37961285305E+02 -0.10707705555E+03  0.11438492823E+03  0.00000000000E+00 0.  1.
         22    1    4    4    0    0 -0.84795400378E+01 -0.60407697345E+01 -0.49222944536E+02  0.50311944577E+02  0.00000000000E+00 0.  1.
         22    1    4    4    0    0 -0.48379972291E+01 -0.31920515571E+02 -0.20012133988E+03  0.20270884591E+03  0.00000000000E+00 0.  1.
<mgrwt>
<rscale>  0 0.89167206E+02</rscale>
<asrwt>0</asrwt>
<pdfrwt beam="2">  1        1 0.55678986E-01 0.89167206E+02</pdfrwt>
<pdfrwt beam="1">  1       -1 0.84495249E-03 0.89167206E+02</pdfrwt>
<totfact> 0.14069585E+05</totfact>
</mgrwt>
</event>
<event>
 7    1  0.5020760E-009  0.9203123E+02  0.7818608E-02  0.1298006E+00
         -1   -1    0    0    0  501 -0.00000000000E+00  0.00000000000E+00  0.11405410852E+02  0.11405411965E+02  0.50400000000E-02 0.  1.
          1   -1    0    0  501    0  0.00000000000E+00 -0.00000000000E+00 -0.18565195437E+03  0.18565195444E+03  0.50400000000E-02 0. -1.
         23    2    1    2    0    0  0.17763568394E-14 -0.71054273576E-14 -0.17424654352E+03  0.19705736641E+03  0.92031232340E+02 0.  0.
    9000005    2    3    3    0    0 -0.10384431827E+02  0.40952634211E+02 -0.55156230861E+02  0.70694962018E+02  0.13061897979E+02 0.  0.
         22    1    3    3    0    0  0.10384431827E+02 -0.40952634211E+02 -0.11909031266E+03  0.12636240439E+03  0.00000000000E+00 0. -1.
         22    1    4    4    0    0 -0.55530770377E+01  0.93178395280E+01 -0.22470280383E+02  0.24951398729E+02  0.00000000000E+00 0. -1.
         22    1    4    4    0    0 -0.48313547892E+01  0.31634794683E+02 -0.32685950478E+02  0.45743563289E+02  0.00000000000E+00 0. -1.
<mgrwt>
<rscale>  0 0.92031232E+02</rscale>
<asrwt>0</asrwt>
<pdfrwt beam="2">  1        1 0.28561837E-01 0.92031232E+02</pdfrwt>
<pdfrwt beam="1">  1       -1 0.17546788E-02 0.92031232E+02</pdfrwt>
<totfact> 0.11382497E+05</totfact>
</mgrwt>
</event>
<event>
 7    1  0.3345055E-009  0.8388781E+02  0.7818608E-02  0.1318367E+00
          1   -1    0    0  501    0  0.00000000000E+00  0.00000000000E+00  0.45076161458E+02  0.45076161740E+02  0.50400000000E-02 0. -1.
         -1   -1    0    0    0  501 -0.00000000000E+00 -0.00000000000E+00 -0.39029300288E+02  0.39029300614E+02  0.50400000000E-02 0.  1.
         23    2    1    2    0    0  0.00000000000E+00  0.00000000000E+00  0.60468611697E+01  0.84105462354E+02  0.83887807622E+02 0.  0.
    9000005    2    3    3    0    0  0.33521141441E+02  0.87488568489E+01  0.24150525261E+02  0.45016434824E+02  0.15589166568E+02 0.  0.
         22    1    3    3    0    0 -0.33521141441E+02 -0.87488568489E+01 -0.18103664091E+02  0.39089027529E+02  0.00000000000E+00 0.  1.
         22    1    4    4    0    0  0.14313474846E+02  0.11226367950E+02  0.83216352513E+01  0.20003912436E+02  0.00000000000E+00 0. -1.
         22    1    4    4    0    0  0.19207666595E+02 -0.24775111009E+01  0.15828890009E+02  0.25012522388E+02  0.00000000000E+00 0. -1.
<mgrwt>
<rscale>  0 0.83887808E+02</rscale>
<asrwt>0</asrwt>
<pdfrwt beam="1">  1        1 0.69347941E-02 0.83887808E+02</pdfrwt>
<pdfrwt beam="2">  1       -1 0.60045078E-02 0.83887808E+02</pdfrwt>
<totfact> 0.11644857E+05</totfact>
</mgrwt>
</event>
<event>
 6    1  0.3345055E-009  0.1705313E+03  0.7818608E-02  0.1177295E+00
          1   -1    0    0  501    0  0.00000000000E+00  0.00000000000E+00  0.10379914255E+02  0.10379915479E+02  0.50400000000E-02 0. -1.
         -1   -1    0    0    0  501 -0.00000000000E+00 -0.00000000000E+00 -0.70041302598E+03  0.70041302599E+03  0.50400000000E-02 0.  1.
    9000005    2    1    2    0    0 -0.65374830856E+02  0.54584650649E+02 -0.34896218808E+03  0.35924959059E+03  0.56839277199E+01 0.  0.
         22    1    1    2    0    0  0.65374830856E+02 -0.54584650649E+02 -0.34107092364E+03  0.35154335088E+03  0.00000000000E+00 0. -1.
         22    1    3    3    0    0 -0.54092869401E+02  0.43966610910E+02 -0.27671536452E+03  0.28536028869E+03  0.00000000000E+00 0. -1.
         22    1    3    3    0    0 -0.11281961455E+02  0.10618039739E+02 -0.72246823559E+02  0.73889301909E+02  0.00000000000E+00 0. -1.
<mgrwt>
<rscale>  0 0.17053126E+03</rscale>
<asrwt>0</asrwt>
<pdfrwt beam="1">  1        1 0.15969105E-02 0.17053126E+03</pdfrwt>
<pdfrwt beam="2">  1       -1 0.10775581E+00 0.17053126E+03</pdfrwt>
<totfact> 0.68507620E+03</totfact>
</mgrwt>
</event>
<event>
 7    1  0.3345055E-009  0.9081810E+02  0.7818608E-02  0.1300883E+00
          1   -1    0    0  501    0  0.00000000000E+00  0.00000000000E+00  0.55618911796E+03  0.55618911799E+03  0.50400000000E-02 0. -1.
         -1   -1    0    0    0  501 -0.00000000000E+00 -0.00000000000E+00 -0.37073376907E+01  0.37073411165E+01  0.50400000000E-02 0.  1.
         23    2    1    2    0    0 -0.71054273576E-14  0.00000000000E+00  0.55248178027E+03  0.55989645910E+03  0.90818100522E+02 0.  0.
    9000005    2    3    3    0    0  0.39416932084E+02  0.12968614871E+02  0.38465662738E+03  0.38701742206E+03  0.99942223989E+01 0.  0.
         22    1    3    3    0    0 -0.39416932084E+02 -0.12968614871E+02  0.16782515289E+03  0.17287903705E+03  0.00000000000E+00 0. -1.
         22    1    4    4    0    0  0.24848641476E+02  0.11293798635E+02  0.21439788093E+03  0.21612833275E+03  0.00000000000E+00 0.  1.
         22    1    4    4    0    0  0.14568290607E+02  0.16748162358E+01  0.17025874645E+03  0.17088908931E+03  0.00000000000E+00 0.  1.
<mgrwt>
<rscale>  0 0.90818101E+02</rscale>
<asrwt>0</asrwt>
<pdfrwt beam="1">  1        1 0.85567541E-01 0.90818101E+02</pdfrwt>
<pdfrwt beam="2">  1       -1 0.57036001E-03 0.90818101E+02</pdfrwt>
<totfact> 0.14227705E+05</totfact>
</mgrwt>
</event>
<event>
 7    1  0.3345055E-009  0.9188179E+02  0.7818608E-02  0.1298358E+00
          1   -1    0    0  501    0  0.00000000000E+00  0.00000000000E+00  0.11211124299E+03  0.11211124310E+03  0.50400000000E-02 0. -1.
         -1   -1    0    0    0  501 -0.00000000000E+00 -0.00000000000E+00 -0.18825639141E+02  0.18825639816E+02  0.50400000000E-02 0.  1.
         23    2    1    2    0    0  0.00000000000E+00  0.00000000000E+00  0.93285603844E+02  0.13093688291E+03  0.91881790486E+02 0.  0.
    9000005    2    3    3    0    0  0.10875533606E+02 -0.42958449435E+02  0.60657160983E+02  0.75906701264E+02  0.10900940746E+02 0.  0.
         22    1    3    3    0    0 -0.10875533606E+02  0.42958449435E+02  0.32628442860E+02  0.55030181651E+02  0.00000000000E+00 0.  1.
         22    1    4    4    0    0  0.11799568674E+02 -0.25894154733E+02  0.40170626316E+02  0.49228206232E+02  0.00000000000E+00 0. -1.
         22    1    4    4    0    0 -0.92403506844E+00 -0.17064294701E+02  0.20486534668E+02  0.26678495031E+02  0.00000000000E+00 0. -1.
<mgrwt>
<rscale>  0 0.91881790E+02</rscale>
<asrwt>0</asrwt>
<pdfrwt beam="1">  1        1 0.17247884E-01 0.91881790E+02</pdfrwt>
<pdfrwt beam="2">  1       -1 0.28962522E-02 0.91881790E+02</pdfrwt>
<totfact> 0.10427595E+05</totfact>
</mgrwt>
</event>
<event>
 7    1  0.3345055E-009  0.9233941E+02  0.7818608E-02  0.1297283E+00
         -1   -1    0    0    0  501 -0.00000000000E+00  0.00000000000E+00  0.99794767894E+01  0.99794780620E+01  0.50400000000E-02 0.  1.
          1   -1    0    0  501    0  0.00000000000E+00 -0.00000000000E+00 -0.21360252471E+03  0.21360252477E+03  0.50400000000E-02 0. -1.
         23    2    1    2    0    0  0.00000000000E+00  0.00000000000E+00 -0.20362304792E+03  0.22358200283E+03  0.92339408411E+02 0.  0.
    9000005    2    3    3    0    0 -0.42669029048E+02 -0.13008203004E+02 -0.12561656885E+03  0.13372172150E+03  0.10588533613E+02 0.  0.
         22    1    3    3    0    0  0.42669029048E+02  0.13008203004E+02 -0.78006479068E+02  0.89860281337E+02  0.00000000000E+00 0.  1.
         22    1    4    4    0    0 -0.13807919662E+02 -0.31336544793E+01 -0.26886968225E+02  0.30387291688E+02  0.00000000000E+00 0. -1.
         22    1    4    4    0    0 -0.28861109386E+02 -0.98745485248E+01 -0.98729600629E+02  0.10333442981E+03  0.00000000000E+00 0. -1.
<mgrwt>
<rscale>  0 0.92339408E+02</rscale>
<asrwt>0</asrwt>
<pdfrwt beam="2">  1        1 0.32861924E-01 0.92339408E+02</pdfrwt>
<pdfrwt beam="1">  1       -1 0.15353044E-02 0.92339408E+02</pdfrwt>
<totfact> 0.11592316E+05</totfact>
</mgrwt>
</event>
<event>
 7    1  0.3345055E-009  0.8386703E+02  0.7818608E-02  0.1318422E+00
          1   -1    0    0  501    0  0.00000000000E+00  0.00000000000E+00  0.40935305777E+03  0.40935305780E+03  0.50400000000E-02 0. -1.
         -1   -1    0    0    0  501 -0.00000000000E+00 -0.00000000000E+00 -0.42956051293E+01  0.42956080860E+01  0.50400000000E-02 0.  1.
         23    2    1    2    0    0  0.88817841970E-15 -0.71054273576E-14  0.40505745264E+03  0.41364866589E+03  0.83867030771E+02 0.  0.
    9000005    2    3    3    0    0 -0.78567671230E+01  0.40662582816E+02  0.21543927819E+03  0.21956047327E+03  0.88059301129E+01 0.  0.
         22    1    3    3    0    0  0.78567671230E+01 -0.40662582816E+02  0.18961817446E+03  0.19408819262E+03  0.00000000000E+00 0.  1.
         22    1    4    4    0    0  0.15790320260E+01  0.83302960498E+01  0.52020315749E+02  0.52706739845E+02  0.00000000000E+00 0.  1.
         22    1    4    4    0    0 -0.94357991490E+01  0.32332286766E+02  0.16341896244E+03  0.16685373342E+03  0.00000000000E+00 0.  1.
<mgrwt>
<rscale>  0 0.83867031E+02</rscale>
<asrwt>0</asrwt>
<pdfrwt beam="1">  1        1 0.62977441E-01 0.83867031E+02</pdfrwt>
<pdfrwt beam="2">  1       -1 0.66086207E-03 0.83867031E+02</pdfrwt>
<totfact> 0.16885945E+05</totfact>
</mgrwt>
</event>
<event>
 7    1  0.3345055E-009  0.9114548E+02  0.7818608E-02  0.1300101E+00
         -1   -1    0    0    0  501 -0.00000000000E+00  0.00000000000E+00  0.49432799671E+02  0.49432799928E+02  0.50400000000E-02 0.  1.
          1   -1    0    0  501    0  0.00000000000E+00 -0.00000000000E+00 -0.42014100894E+02  0.42014101196E+02  0.50400000000E-02 0. -1.
         23    2    1    2    0    0 -0.35527136788E-14  0.00000000000E+00  0.74186987770E+01  0.91446901124E+02  0.91145480599E+02 0.  0.
    9000005    2    3    3    0    0 -0.29281954766E+02  0.18489285463E+02  0.32504150435E+02  0.48685160786E+02  0.10697594751E+02 0.  0.
         22    1    3    3    0    0  0.29281954766E+02 -0.18489285463E+02 -0.25085451658E+02  0.42761740338E+02  0.00000000000E+00 0. -1.
         22    1    4    4    0    0 -0.18048970692E+02  0.10305930218E+02  0.26150342742E+02  0.33403861546E+02  0.00000000000E+00 0. -1.
         22    1    4    4    0    0 -0.11232984073E+02  0.81833552451E+01  0.63538076938E+01  0.15281299240E+02  0.00000000000E+00 0. -1.
<mgrwt>
<rscale>  0 0.91145481E+02</rscale>
<asrwt>0</asrwt>
<pdfrwt beam="2">  1        1 0.64637079E-02 0.91145481E+02</pdfrwt>
<pdfrwt beam="1">  1       -1 0.76050461E-02 0.91145481E+02</pdfrwt>
<totfact> 0.91429929E+04</totfact>
</mgrwt>
</event>
<event>
 6    1  0.3345055E-009  0.1415086E+03  0.7818608E-02  0.1211313E+00
         -1   -1    0    0    0  501 -0.00000000000E+00  0.00000000000E+00  0.48575464162E+01  0.48575490308E+01  0.50400000000E-02 0.  1.
          1   -1    0    0  501    0  0.00000000000E+00 -0.00000000000E+00 -0.10305966112E+04  0.10305966112E+04  0.50400000000E-02 0. -1.
    9000005    2    1    2    0    0 -0.40759835350E+02 -0.32588133123E+02 -0.86138171093E+03  0.86301086416E+03  0.92708756290E+01 0.  0.
         22    1    1    2    0    0  0.40759835350E+02  0.32588133123E+02 -0.16435735385E+03  0.17244329608E+03  0.00000000000E+00 0.  1.
         22    1    3    3    0    0 -0.26411851312E+02 -0.16153168491E+02 -0.46544185486E+03  0.46647039670E+03  0.00000000000E+00 0. -1.
         22    1    3    3    0    0 -0.14347984037E+02 -0.16434964632E+02 -0.39593985607E+03  0.39654046746E+03  0.00000000000E+00 0. -1.
<mgrwt>
<rscale>  0 0.14150862E+03</rscale>
<asrwt>0</asrwt>
<pdfrwt beam="2">  1        1 0.15855315E+00 0.14150862E+03</pdfrwt>
<pdfrwt beam="1">  1       -1 0.74731586E-03 0.14150862E+03</pdfrwt>
<totfact> 0.41198252E+04</totfact>
</mgrwt>
</event>
<event>
 7    1  0.3345055E-009  0.1069290E+03  0.7818608E-02  0.1266365E+00
          1   -1    0    0  501    0  0.00000000000E+00  0.00000000000E+00  0.46683301004E+01  0.46683328210E+01  0.50400000000E-02 0. -1.
         -1   -1    0    0    0  501 -0.00000000000E+00 -0.00000000000E+00 -0.61230742369E+03  0.61230742372E+03  0.50400000000E-02 0.  1.
         23    2    1    2    0    0  0.00000000000E+00  0.00000000000E+00 -0.60763909359E+03  0.61697575654E+03  0.10692902361E+03 0.  0.
    9000005    2    3    3    0    0  0.38430262457E+02  0.22992821792E+02 -0.47199117321E+03  0.47412648901E+03  0.38347193493E+01 0.  0.
         22    1    3    3    0    0 -0.38430262457E+02 -0.22992821792E+02 -0.13564792039E+03  0.14284926752E+03  0.00000000000E+00 0. -1.
         22    1    4    4    0    0  0.29785756938E+02  0.15912682083E+02 -0.35719514109E+03  0.35878792285E+03  0.00000000000E+00 0.  1.
         22    1    4    4    0    0  0.86445055190E+01  0.70801397098E+01 -0.11479603212E+03  0.11533856616E+03  0.00000000000E+00 0.  1.
<mgrwt>
<rscale>  0 0.10692902E+03</rscale>
<asrwt>0</asrwt>
<pdfrwt beam="1">  1        1 0.71820533E-03 0.10692902E+03</pdfrwt>
<pdfrwt beam="2">  1       -1 0.94201079E-01 0.10692902E+03</pdfrwt>
<totfact> 0.26909361E+04</totfact>
</mgrwt>
</event>
<event>
 7    1  0.3345055E-009  0.9052157E+02  0.7818608E-02  0.1301594E+00
          1   -1    0    0  501    0  0.00000000000E+00  0.00000000000E+00  0.99180825554E+02  0.99180825682E+02  0.50400000000E-02 0. -1.
         -1   -1    0    0    0  501 -0.00000000000E+00 -0.00000000000E+00 -0.20654583454E+02  0.20654584069E+02  0.50400000000E-02 0.  1.
         23    2    1    2    0    0  0.00000000000E+00  0.00000000000E+00  0.78526242100E+02  0.11983540975E+03  0.90521570534E+02 0.  0.
    9000005    2    3    3    0    0 -0.17475714800E+02 -0.31809200986E+02  0.64342458311E+01  0.39123069919E+02  0.13114465499E+02 0.  0.
         22    1    3    3    0    0  0.17475714800E+02  0.31809200986E+02  0.72091996269E+02  0.80712339832E+02  0.00000000000E+00 0.  1.
         22    1    4    4    0    0 -0.20593624420E+01 -0.15525819008E+02  0.57664869472E+01  0.16689649525E+02  0.00000000000E+00 0.  1.
         22    1    4    4    0    0 -0.15416352358E+02 -0.16283381978E+02  0.66775888390E+00  0.22433420394E+02  0.00000000000E+00 0.  1.
<mgrwt>
<rscale>  0 0.90521571E+02</rscale>
<asrwt>0</asrwt>
<pdfrwt beam="1">  1        1 0.15258589E-01 0.90521571E+02</pdfrwt>
<pdfrwt beam="2">  1       -1 0.31776283E-02 0.90521571E+02</pdfrwt>
<totfact> 0.10637876E+05</totfact>
</mgrwt>
</event>
<event>
 7    1  0.3345055E-009  0.9001924E+02  0.7818608E-02  0.1302805E+00
          1   -1    0    0  501    0  0.00000000000E+00  0.00000000000E+00  0.10887146802E+02  0.10887147969E+02  0.50400000000E-02 0. -1.
         -1   -1    0    0    0  501 -0.00000000000E+00 -0.00000000000E+00 -0.18607866271E+03  0.18607866277E+03  0.50400000000E-02 0.  1.
         23    2    1    2    0    0 -0.71054273576E-14  0.00000000000E+00 -0.17519151590E+03  0.19696581074E+03  0.90019238815E+02 0.  0.
    9000005    2    3    3    0    0  0.33032168132E+02 -0.18945627199E+02 -0.13964444538E+03  0.14487305554E+03  0.61294514938E+01 0.  0.
         22    1    3    3    0    0 -0.33032168132E+02  0.18945627199E+02 -0.35547070525E+02  0.52092755200E+02  0.00000000000E+00 0.  1.
         22    1    4    4    0    0  0.46565552730E+01 -0.81085756459E+00 -0.22101705426E+02  0.22601468531E+02  0.00000000000E+00 0. -1.
         22    1    4    4    0    0  0.28375612859E+02 -0.18134769634E+02 -0.11754273995E+03  0.12227158701E+03  0.00000000000E+00 0. -1.
<mgrwt>
<rscale>  0 0.90019239E+02</rscale>
<asrwt>0</asrwt>
<pdfrwt beam="1">  1        1 0.16749459E-02 0.90019239E+02</pdfrwt>
<pdfrwt beam="2">  1       -1 0.28627484E-01 0.90019239E+02</pdfrwt>
<totfact> 0.73228167E+04</totfact>
</mgrwt>
</event>
<event>
 7    1  0.3345055E-009  0.9004902E+02  0.7818608E-02  0.1302733E+00
          1   -1    0    0  501    0  0.00000000000E+00  0.00000000000E+00  0.20807035935E+02  0.20807036545E+02  0.50400000000E-02 0. -1.
         -1   -1    0    0    0  501 -0.00000000000E+00 -0.00000000000E+00 -0.97428891489E+02  0.97428891619E+02  0.50400000000E-02 0.  1.
         23    2    1    2    0    0  0.44408920985E-15  0.00000000000E+00 -0.76621855554E+02  0.11823592816E+03  0.90049019763E+02 0.  0.
    9000005    2    3    3    0    0 -0.39023792112E+01 -0.27804930390E+02 -0.84509485066E+02  0.89071610637E+02  0.18857459937E+01 0.  0.
         22    1    3    3    0    0  0.39023792112E+01  0.27804930390E+02  0.78876295120E+01  0.29164317527E+02  0.00000000000E+00 0. -1.
         22    1    4    4    0    0 -0.16028758479E+01 -0.14179067165E+02 -0.40204296005E+02  0.42661464742E+02  0.00000000000E+00 0. -1.
         22    1    4    4    0    0 -0.22995033634E+01 -0.13625863225E+02 -0.44305189060E+02  0.46410145895E+02  0.00000000000E+00 0. -1.
<mgrwt>
<rscale>  0 0.90049020E+02</rscale>
<asrwt>0</asrwt>
<pdfrwt beam="1">  1        1 0.32010826E-02 0.90049020E+02</pdfrwt>
<pdfrwt beam="2">  1       -1 0.14989060E-01 0.90049020E+02</pdfrwt>
<totfact> 0.84422093E+04</totfact>
</mgrwt>
</event>
<event>
 7    1  0.3345055E-009  0.9201707E+02  0.7818608E-02  0.1298039E+00
          1   -1    0    0  501    0  0.00000000000E+00  0.00000000000E+00  0.25658863939E+03  0.25658863944E+03  0.50400000000E-02 0. -1.
         -1   -1    0    0    0  501 -0.00000000000E+00 -0.00000000000E+00 -0.82497227601E+01  0.82497242996E+01  0.50400000000E-02 0.  1.
         23    2    1    2    0    0  0.00000000000E+00  0.00000000000E+00  0.24833891663E+03  0.26483836374E+03  0.92017071215E+02 0.  0.
    9000005    2    3    3    0    0  0.27710057413E+02 -0.34024162519E+02  0.90604256743E+02  0.10111385779E+03  0.94546275043E+01 0.  0.
         22    1    3    3    0    0 -0.27710057413E+02  0.34024162519E+02  0.15773465988E+03  0.16372450594E+03  0.00000000000E+00 0. -1.
         22    1    4    4    0    0  0.97634584014E+01 -0.19279470430E+02  0.41292124571E+02  0.46605392945E+02  0.00000000000E+00 0.  1.
         22    1    4    4    0    0  0.17946599012E+02 -0.14744692089E+02  0.49312132172E+02  0.54508464850E+02  0.00000000000E+00 0.  1.
<mgrwt>
<rscale>  0 0.92017071E+02</rscale>
<asrwt>0</asrwt>
<pdfrwt beam="1">  1        1 0.39475174E-01 0.92017071E+02</pdfrwt>
<pdfrwt beam="2">  1       -1 0.12691883E-02 0.92017071E+02</pdfrwt>
<totfact> 0.12128628E+05</totfact>
</mgrwt>
</event>
<event>
 7    1  0.3345055E-009  0.9019206E+02  0.7818608E-02  0.1302387E+00
         -1   -1    0    0    0  501 -0.00000000000E+00  0.00000000000E+00  0.34440223959E+01  0.34440260836E+01  0.50400000000E-02 0.  1.
          1   -1    0    0  501    0  0.00000000000E+00 -0.00000000000E+00 -0.59048705975E+03  0.59048705977E+03  0.50400000000E-02 0. -1.
         23    2    1    2    0    0  0.00000000000E+00  0.71054273576E-14 -0.58704303735E+03  0.59393108585E+03  0.90192056408E+02 0.  0.
    9000005    2    3    3    0    0  0.18778174512E+01  0.43861896822E+02 -0.33736474754E+03  0.34042242605E+03  0.12044213730E+02 0.  0.
         22    1    3    3    0    0 -0.18778174512E+01 -0.43861896822E+02 -0.24967828981E+03  0.25350865980E+03  0.00000000000E+00 0.  1.
         22    1    4    4    0    0 -0.39196894190E+01  0.30670918427E+02 -0.21493243442E+03  0.21714516013E+03  0.00000000000E+00 0.  1.
         22    1    4    4    0    0  0.57975068703E+01  0.13190978396E+02 -0.12243231312E+03  0.12327726592E+03  0.00000000000E+00 0.  1.
<mgrwt>
<rscale>  0 0.90192056E+02</rscale>
<asrwt>0</asrwt>
<pdfrwt beam="2">  1        1 0.90844083E-01 0.90192056E+02</pdfrwt>
<pdfrwt beam="1">  1       -1 0.52985035E-03 0.90192056E+02</pdfrwt>
<totfact> 0.14556709E+05</totfact>
</mgrwt>
</event>
<event>
 7    1  0.3345055E-009  0.9293663E+02  0.7818608E-02  0.1295892E+00
          1   -1    0    0  501    0  0.00000000000E+00  0.00000000000E+00  0.11953537955E+03  0.11953537965E+03  0.50400000000E-02 0. -1.
         -1   -1    0    0    0  501 -0.00000000000E+00 -0.00000000000E+00 -0.18064141694E+02  0.18064142397E+02  0.50400000000E-02 0.  1.
         23    2    1    2    0    0  0.00000000000E+00 -0.88817841970E-15  0.10147123785E+03  0.13759952205E+03  0.92936625488E+02 0.  0.
    9000005    2    3    3    0    0  0.37937785590E+02  0.59332623129E+01  0.12840199229E+02  0.41007906551E+02  0.65037301865E+01 0.  0.
         22    1    3    3    0    0 -0.37937785590E+02 -0.59332623129E+01  0.88631038626E+02  0.96591615501E+02  0.00000000000E+00 0. -1.
         22    1    4    4    0    0  0.30420049140E+02  0.24116502922E+01  0.11437608255E+02  0.32588561327E+02  0.00000000000E+00 0. -1.
         22    1    4    4    0    0  0.75177364499E+01  0.35216120207E+01  0.14025909741E+01  0.84193452237E+01  0.00000000000E+00 0. -1.
<mgrwt>
<rscale>  0 0.92936625E+02</rscale>
<asrwt>0</asrwt>
<pdfrwt beam="1">  1        1 0.18390059E-01 0.92936625E+02</pdfrwt>
<pdfrwt beam="2">  1       -1 0.27790987E-02 0.92936625E+02</pdfrwt>
<totfact> 0.10221480E+05</totfact>
</mgrwt>
</event>
<event>
 7    1  0.3345055E-009  0.9217491E+02  0.7818608E-02  0.1297669E+00
         -1   -1    0    0    0  501 -0.00000000000E+00  0.00000000000E+00  0.24344587659E+03  0.24344587664E+03  0.50400000000E-02 0.  1.
          1   -1    0    0  501    0  0.00000000000E+00 -0.00000000000E+00 -0.87249507876E+01  0.87249522433E+01  0.50400000000E-02 0. -1.
         23    2    1    2    0    0  0.00000000000E+00 -0.71054273576E-14  0.23472092580E+03  0.25217082889E+03  0.92174909445E+02 0.  0.
    9000005    2    3    3    0    0  0.21435539684E+02 -0.39245087223E+02  0.13066153208E+03  0.13890999429E+03  0.14962998156E+02 0.  0.
         22    1    3    3    0    0 -0.21435539684E+02  0.39245087223E+02  0.10405939372E+03  0.11326083460E+03  0.00000000000E+00 0.  1.
         22    1    4    4    0    0  0.18388478905E+02 -0.18386629991E+02  0.75925562990E+02  0.80255189453E+02  0.00000000000E+00 0.  1.
         22    1    4    4    0    0  0.30470607788E+01 -0.20858457232E+02  0.54735969095E+02  0.58654804835E+02  0.00000000000E+00 0.  1.
<mgrwt>
<rscale>  0 0.92174909E+02</rscale>
<asrwt>0</asrwt>
<pdfrwt beam="2">  1        1 0.13423004E-02 0.92174909E+02</pdfrwt>
<pdfrwt beam="1">  1       -1 0.37453208E-01 0.92174909E+02</pdfrwt>
<totfact> 0.63511522E+04</totfact>
</mgrwt>
</event>
<event>
 6    1  0.3345055E-009  0.1389093E+03  0.7818608E-02  0.1214804E+00
         -1   -1    0    0    0  501 -0.00000000000E+00  0.00000000000E+00  0.70582007209E+01  0.70582025203E+01  0.50400000000E-02 0.  1.
          1   -1    0    0  501    0  0.00000000000E+00 -0.00000000000E+00 -0.68345269796E+03  0.68345269798E+03  0.50400000000E-02 0. -1.
    9000005    2    1    2    0    0  0.66267971110E+02 -0.20052451644E+02 -0.33511388475E+03  0.34227821784E+03  0.77147807702E+01 0.  0.
         22    1    1    2    0    0 -0.66267971110E+02  0.20052451644E+02 -0.34128061249E+03  0.34823268266E+03  0.00000000000E+00 0. -1.
         22    1    3    3    0    0  0.51506518340E+02 -0.12196429006E+02 -0.25199882523E+03  0.25749773248E+03  0.00000000000E+00 0.  1.
         22    1    3    3    0    0  0.14761452770E+02 -0.78560226380E+01 -0.83115059517E+02  0.84780485361E+02  0.00000000000E+00 0.  1.
<mgrwt>
<rscale>  0 0.13890928E+03</rscale>
<asrwt>0</asrwt>
<pdfrwt beam="2">  1        1 0.10514652E+00 0.13890928E+03</pdfrwt>
<pdfrwt beam="1">  1       -1 0.10858777E-02 0.13890928E+03</pdfrwt>
<totfact> 0.45642670E+04</totfact>
</mgrwt>
</event>
<event>
 7    1  0.3345055E-009  0.9358094E+02  0.7818608E-02  0.1294405E+00
         -1   -1    0    0    0  501 -0.00000000000E+00  0.00000000000E+00  0.32474954493E+02  0.32474954885E+02  0.50400000000E-02 0.  1.
          1   -1    0    0  501    0  0.00000000000E+00 -0.00000000000E+00 -0.67416507798E+02  0.67416507987E+02  0.50400000000E-02 0. -1.
         23    2    1    2    0    0  0.00000000000E+00  0.00000000000E+00 -0.34941553305E+02  0.99891462871E+02  0.93580939337E+02 0.  0.
    9000005    2    3    3    0    0 -0.37080942549E+02  0.76724026973E+01 -0.45307996674E+02  0.60631748002E+02  0.13767070845E+02 0.  0.
         22    1    3    3    0    0  0.37080942549E+02 -0.76724026973E+01  0.10366443370E+02  0.39259714869E+02  0.00000000000E+00 0.  1.
         22    1    4    4    0    0 -0.65597800966E+01  0.57839662457E+00 -0.17643366205E+02  0.18832249696E+02  0.00000000000E+00 0. -1.
         22    1    4    4    0    0 -0.30521162452E+02  0.70940060727E+01 -0.27664630469E+02  0.41799498306E+02  0.00000000000E+00 0. -1.
<mgrwt>
<rscale>  0 0.93580939E+02</rscale>
<asrwt>0</asrwt>
<pdfrwt beam="2">  1        1 0.10371770E-01 0.93580939E+02</pdfrwt>
<pdfrwt beam="1">  1       -1 0.49961469E-02 0.93580939E+02</pdfrwt>
<totfact> 0.91275905E+04</totfact>
</mgrwt>
</event>
<event>
 7    1  0.3345055E-009  0.1070827E+03  0.7818608E-02  0.1266070E+00
         -1   -1    0    0    0  501 -0.00000000000E+00  0.00000000000E+00  0.89358986268E+01  0.89359000481E+01  0.50400000000E-02 0.  1.
          1   -1    0    0  501    0  0.00000000000E+00 -0.00000000000E+00 -0.32080465789E+03  0.32080465793E+03  0.50400000000E-02 0. -1.
         23    2    1    2    0    0  0.00000000000E+00 -0.17763568394E-14 -0.31186875926E+03  0.32974055798E+03  0.10708273704E+03 0.  0.
    9000005    2    3    3    0    0  0.47852612868E+02 -0.15880423458E+02 -0.11354381656E+03  0.12510712155E+03  0.14749005900E+02 0.  0.
         22    1    3    3    0    0 -0.47852612868E+02  0.15880423458E+02 -0.19832494270E+03  0.20463343643E+03  0.00000000000E+00 0.  1.
         22    1    4    4    0    0  0.24136995858E+02 -0.28135173145E+01 -0.40814475901E+02  0.47500862011E+02  0.00000000000E+00 0.  1.
         22    1    4    4    0    0  0.23715617010E+02 -0.13066906144E+02 -0.72729340659E+02  0.77606259535E+02  0.00000000000E+00 0.  1.
<mgrwt>
<rscale>  0 0.10708274E+03</rscale>
<asrwt>0</asrwt>
<pdfrwt beam="2">  1        1 0.49354554E-01 0.10708274E+03</pdfrwt>
<pdfrwt beam="1">  1       -1 0.13747540E-02 0.10708274E+03</pdfrwt>
<totfact> 0.84258362E+04</totfact>
</mgrwt>
</event>
<event>
 7    1  0.3345055E-009  0.9083678E+02  0.7818608E-02  0.1300838E+00
          1   -1    0    0  501    0  0.00000000000E+00  0.00000000000E+00  0.12611463328E+02  0.12611464335E+02  0.50400000000E-02 0. -1.
         -1   -1    0    0    0  501 -0.00000000000E+00 -0.00000000000E+00 -0.16356786301E+03  0.16356786308E+03  0.50400000000E-02 0.  1.
         23    2    1    2    0    0  0.00000000000E+00 -0.88817841970E-15 -0.15095639968E+03  0.17617932742E+03  0.90836781131E+02 0.  0.
    9000005    2    3    3    0    0  0.13852347359E+02 -0.52187266289E+01 -0.15846097846E+03  0.15958290197E+03  0.11734490616E+02 0.  0.
         22    1    3    3    0    0 -0.13852347359E+02  0.52187266289E+01  0.75045787859E+01  0.16596425451E+02  0.00000000000E+00 0. -1.
         22    1    4    4    0    0  0.94471607658E+01 -0.44797330038E+01 -0.14547400913E+03  0.14584925158E+03  0.00000000000E+00 0.  1.
         22    1    4    4    0    0  0.44051865933E+01 -0.73899362515E+00 -0.12986969336E+02  0.13733650390E+02  0.00000000000E+00 0.  1.
<mgrwt>
<rscale>  0 0.90836781E+02</rscale>
<asrwt>0</asrwt>
<pdfrwt beam="1">  1        1 0.19402253E-02 0.90836781E+02</pdfrwt>
<pdfrwt beam="2">  1       -1 0.25164285E-01 0.90836781E+02</pdfrwt>
<totfact> 0.73959071E+04</totfact>
</mgrwt>
</event>
<event>
 7    1  0.3345055E-009  0.9044220E+02  0.7818608E-02  0.1301784E+00
         -1   -1    0    0    0  501 -0.00000000000E+00  0.00000000000E+00  0.28296480213E+02  0.28296480662E+02  0.50400000000E-02 0.  1.
          1   -1    0    0  501    0  0.00000000000E+00 -0.00000000000E+00 -0.72268628781E+02  0.72268628957E+02  0.50400000000E-02 0. -1.
         23    2    1    2    0    0  0.17763568394E-14 -0.35527136788E-14 -0.43972148568E+02  0.10056510962E+03  0.90442199348E+02 0.  0.
    9000005    2    3    3    0    0 -0.13880015542E+02  0.25685518767E+02 -0.60030967724E+02  0.67244149572E+02  0.81029537799E+01 0.  0.
         22    1    3    3    0    0  0.13880015542E+02 -0.25685518767E+02  0.16058819156E+02  0.33320960047E+02  0.00000000000E+00 0.  1.
         22    1    4    4    0    0 -0.10769836354E+02  0.20335491358E+02 -0.53541440257E+02  0.58276988671E+02  0.00000000000E+00 0.  1.
         22    1    4    4    0    0 -0.31101791886E+01  0.53500274092E+01 -0.64895274679E+01  0.89671609008E+01  0.00000000000E+00 0.  1.
<mgrwt>
<rscale>  0 0.90442199E+02</rscale>
<asrwt>0</asrwt>
<pdfrwt beam="2">  1        1 0.11118251E-01 0.90442199E+02</pdfrwt>
<pdfrwt beam="1">  1       -1 0.43533047E-02 0.90442199E+02</pdfrwt>
<totfact> 0.10138701E+05</totfact>
</mgrwt>
</event>
<event>
 7    1  0.3345055E-009  0.9091814E+02  0.7818608E-02  0.1300643E+00
          1   -1    0    0  501    0  0.00000000000E+00  0.00000000000E+00  0.89530394098E+01  0.89530408284E+01  0.50400000000E-02 0. -1.
         -1   -1    0    0    0  501 -0.00000000000E+00 -0.00000000000E+00 -0.23081847360E+03  0.23081847366E+03  0.50400000000E-02 0.  1.
         23    2    1    2    0    0  0.00000000000E+00 -0.71054273576E-14 -0.22186543419E+03  0.23977151449E+03  0.90918140486E+02 0.  0.
    9000005    2    3    3    0    0  0.80223974185E+01 -0.36371880294E+02 -0.17820047152E+03  0.18237899318E+03  0.10927788778E+02 0.  0.
         22    1    3    3    0    0 -0.80223974185E+01  0.36371880294E+02 -0.43664962676E+02  0.57392521307E+02  0.00000000000E+00 0. -1.
         22    1    4    4    0    0  0.41098729107E+01 -0.33462678664E+02 -0.14832883847E+03  0.15211208447E+03  0.00000000000E+00 0. -1.
         22    1    4    4    0    0  0.39125245078E+01 -0.29092016308E+01 -0.29871633046E+02  0.30266908712E+02  0.00000000000E+00 0. -1.
<mgrwt>
<rscale>  0 0.90918140E+02</rscale>
<asrwt>0</asrwt>
<pdfrwt beam="1">  1        1 0.13773910E-02 0.90918140E+02</pdfrwt>
<pdfrwt beam="2">  1       -1 0.35510530E-01 0.90918140E+02</pdfrwt>
<totfact> 0.66980707E+04</totfact>
</mgrwt>
</event>
<event>
 7    1  0.3345055E-009  0.9389029E+02  0.7818608E-02  0.1293695E+00
         -1   -1    0    0    0  501 -0.00000000000E+00  0.00000000000E+00  0.80755583706E+02  0.80755583863E+02  0.50400000000E-02 0.  1.
          1   -1    0    0  501    0  0.00000000000E+00 -0.00000000000E+00 -0.27290328171E+02  0.27290328636E+02  0.50400000000E-02 0. -1.
         23    2    1    2    0    0 -0.22204460493E-15  0.00000000000E+00  0.53465255536E+02  0.10804591250E+03  0.93890285218E+02 0.  0.
    9000005    2    3    3    0    0  0.10771614195E+01  0.13642744863E+02 -0.23649029353E+02  0.29726708609E+02  0.11709647784E+02 0.  0.
         22    1    3    3    0    0 -0.10771614195E+01 -0.13642744863E+02  0.77114284889E+02  0.78319203891E+02  0.00000000000E+00 0.  1.
         22    1    4    4    0    0 -0.45499277740E+01  0.54253437813E+01 -0.14789008105E+02  0.16396675231E+02  0.00000000000E+00 0.  1.
         22    1    4    4    0    0  0.56270891935E+01  0.82174010822E+01 -0.88600212481E+01  0.13330033378E+02  0.00000000000E+00 0.  1.
<mgrwt>
<rscale>  0 0.93890285E+02</rscale>
<asrwt>0</asrwt>
<pdfrwt beam="2">  1        1 0.41985121E-02 0.93890285E+02</pdfrwt>
<pdfrwt beam="1">  1       -1 0.12423936E-01 0.93890285E+02</pdfrwt>
<totfact> 0.78394621E+04</totfact>
</mgrwt>
</event>
<event>
 7    1  0.3521435E-009  0.8939176E+02  0.7818608E-02  0.1304331E+00
         -1   -1    0    0    0  501 -0.00000000000E+00  0.00000000000E+00  0.17726219271E+02  0.17726219988E+02  0.50400000000E-02 0.  1.
          1   -1    0    0  501    0  0.00000000000E+00 -0.00000000000E+00 -0.11269867719E+03  0.11269867730E+03  0.50400000000E-02 0. -1.
         23    2    1    2    0    0  0.00000000000E+00 -0.35527136788E-14 -0.94972457918E+02  0.13042489729E+03  0.89391756163E+02 0.  0.
    9000005    2    3    3    0    0  0.35307929362E+01  0.17689024168E+02 -0.10648559911E+03  0.10902582033E+03  0.14902302019E+02 0.  0.
         22    1    3    3    0    0 -0.35307929362E+01 -0.17689024168E+02  0.11513141191E+02  0.21399076963E+02  0.00000000000E+00 0.  1.
         22    1    4    4    0    0  0.29250223911E+01  0.27469508833E+01 -0.61273487149E+02  0.61404736972E+02  0.00000000000E+00 0.  1.
         22    1    4    4    0    0  0.60577054506E+00  0.14942073285E+02 -0.45212111959E+02  0.47621083354E+02  0.00000000000E+00 0.  1.
<mgrwt>
<rscale>  0 0.89391756E+02</rscale>
<asrwt>0</asrwt>
<pdfrwt beam="2">  1        1 0.17338258E-01 0.89391756E+02</pdfrwt>
<pdfrwt beam="1">  1       -1 0.27271108E-02 0.89391756E+02</pdfrwt>
<totfact> 0.11244842E+05</totfact>
</mgrwt>
</event>
<event>
 7    1  0.3345055E-009  0.8938511E+02  0.7818608E-02  0.1304348E+00
          1   -1    0    0  501    0  0.00000000000E+00  0.00000000000E+00  0.41150959818E+02  0.41150960127E+02  0.50400000000E-02 0. -1.
         -1   -1    0    0    0  501 -0.00000000000E+00 -0.00000000000E+00 -0.48538949098E+02  0.48538949360E+02  0.50400000000E-02 0.  1.
         23    2    1    2    0    0  0.00000000000E+00 -0.35527136788E-14 -0.73879892805E+01  0.89689909487E+02  0.89385107698E+02 0.  0.
    9000005    2    3    3    0    0  0.96945902972E+01  0.27591681257E+02  0.29007715889E+02  0.43000153540E+02  0.12340164820E+02 0.  0.
         22    1    3    3    0    0 -0.96945902972E+01 -0.27591681257E+02 -0.36395705169E+02  0.46689755947E+02  0.00000000000E+00 0.  1.
         22    1    4    4    0    0  0.35902688395E+01  0.16853902819E+02  0.88819744524E+01  0.19386426714E+02  0.00000000000E+00 0.  1.
         22    1    4    4    0    0  0.61043214577E+01  0.10737778438E+02  0.20125741436E+02  0.23613726826E+02  0.00000000000E+00 0.  1.
<mgrwt>
<rscale>  0 0.89385108E+02</rscale>
<asrwt>0</asrwt>
<pdfrwt beam="1">  1        1 0.63309170E-02 0.89385108E+02</pdfrwt>
<pdfrwt beam="2">  1       -1 0.74675306E-02 0.89385108E+02</pdfrwt>
<totfact> 0.96284148E+04</totfact>
</mgrwt>
</event>
<event>
 7    1  0.3345055E-009  0.9390479E+02  0.7818608E-02  0.1293662E+00
          1   -1    0    0  501    0  0.00000000000E+00  0.00000000000E+00  0.13209099541E+03  0.13209099551E+03  0.50400000000E-02 0.  1.
         -1   -1    0    0    0  501 -0.00000000000E+00 -0.00000000000E+00 -0.16689458957E+02  0.16689459718E+02  0.50400000000E-02 0. -1.
         23    2    1    2    0    0  0.00000000000E+00  0.00000000000E+00  0.11540153645E+03  0.14878045522E+03  0.93904788169E+02 0.  0.
    9000005    2    3    3    0    0 -0.22674796978E+02  0.30458076295E+02  0.10077269364E+03  0.10808839369E+03  0.92803145632E+01 0.  0.
         22    1    3    3    0    0  0.22674796978E+02 -0.30458076295E+02  0.14628842815E+02  0.40692061531E+02  0.00000000000E+00 0.  1.
         22    1    4    4    0    0 -0.15753108548E+02  0.15293738942E+02  0.65346023470E+02  0.68935924329E+02  0.00000000000E+00 0. -1.
         22    1    4    4    0    0 -0.69216884302E+01  0.15164337353E+02  0.35426670169E+02  0.39152469365E+02  0.00000000000E+00 0. -1.
<mgrwt>
<rscale>  0 0.93904788E+02</rscale>
<asrwt>0</asrwt>
<pdfrwt beam="1">  1        1 0.20321692E-01 0.93904788E+02</pdfrwt>
<pdfrwt beam="2">  1       -1 0.25676091E-02 0.93904788E+02</pdfrwt>
<totfact> 0.10115625E+05</totfact>
</mgrwt>
</event>
<event>
 7    1  0.3345055E-009  0.9107434E+02  0.7818608E-02  0.1300271E+00
         -1   -1    0    0    0  501 -0.00000000000E+00  0.00000000000E+00  0.20546097377E+01  0.20546159193E+01  0.50400000000E-02 0.  1.
          1   -1    0    0  501    0  0.00000000000E+00 -0.00000000000E+00 -0.10092577422E+04  0.10092577422E+04  0.50400000000E-02 0. -1.
         23    2    1    2    0    0  0.00000000000E+00  0.00000000000E+00 -0.10072031324E+04  0.10113123581E+04  0.91074341438E+02 0.  0.
    9000005    2    3    3    0    0 -0.24824092534E+02 -0.17703385989E+02 -0.87595305807E+03  0.87656731194E+03  0.12118043185E+02 0.  0.
         22    1    3    3    0    0  0.24824092534E+02  0.17703385989E+02 -0.13125007437E+03  0.13474504617E+03  0.00000000000E+00 0.  1.
         22    1    4    4    0    0 -0.12077029076E+02 -0.29569486463E+01 -0.24760554776E+03  0.24791753762E+03  0.00000000000E+00 0.  1.
         22    1    4    4    0    0 -0.12747063458E+02 -0.14746437343E+02 -0.62834751031E+03  0.62864977432E+03  0.00000000000E+00 0.  1.
<mgrwt>
<rscale>  0 0.91074341E+02</rscale>
<asrwt>0</asrwt>
<pdfrwt beam="2">  1        1 0.15527003E+00 0.91074341E+02</pdfrwt>
<pdfrwt beam="1">  1       -1 0.31609509E-03 0.91074341E+02</pdfrwt>
<totfact> 0.13608092E+05</totfact>
</mgrwt>
</event>
<event>
 7    1  0.3968127E-009  0.9107521E+02  0.7818608E-02  0.1300269E+00
         -1   -1    0    0    0  501 -0.00000000000E+00  0.00000000000E+00  0.32277196875E+01  0.32277236224E+01  0.50400000000E-02 0.  1.
          1   -1    0    0  501    0  0.00000000000E+00 -0.00000000000E+00 -0.64245730551E+03  0.64245730553E+03  0.50400000000E-02 0. -1.
         23    2    1    2    0    0 -0.17763568394E-14  0.00000000000E+00 -0.63922958583E+03  0.64568502916E+03  0.91075207825E+02 0.  0.
    9000005    2    3    3    0    0 -0.10177500880E+02 -0.64574581640E+01 -0.63066681634E+03  0.63089985715E+03  0.12194926156E+02 0.  0.
         22    1    3    3    0    0  0.10177500880E+02  0.64574581640E+01 -0.85627694865E+01  0.14785172010E+02  0.00000000000E+00 0.  1.
         22    1    4    4    0    0  0.25874411293E+01 -0.14170649935E+01 -0.65454261984E+02  0.65520709220E+02  0.00000000000E+00 0. -1.
         22    1    4    4    0    0 -0.12764942009E+02 -0.50403931704E+01 -0.56521255436E+03  0.56537914793E+03  0.00000000000E+00 0. -1.
<mgrwt>
<rscale>  0 0.91075208E+02</rscale>
<asrwt>0</asrwt>
<pdfrwt beam="2">  1        1 0.98839484E-01 0.91075208E+02</pdfrwt>
<pdfrwt beam="1">  1       -1 0.49657308E-03 0.91075208E+02</pdfrwt>
<totfact> 0.14245372E+05</totfact>
</mgrwt>
</event>
<event>
 7    1  0.3345055E-009  0.9324333E+02  0.7818608E-02  0.1295182E+00
          1   -1    0    0  501    0  0.00000000000E+00  0.00000000000E+00  0.76028432529E+03  0.76028432531E+03  0.50400000000E-02 0. -1.
         -1   -1    0    0    0  501 -0.00000000000E+00 -0.00000000000E+00 -0.28589014464E+01  0.28589058889E+01  0.50400000000E-02 0.  1.
         23    2    1    2    0    0  0.00000000000E+00  0.00000000000E+00  0.75742542384E+03  0.76314323120E+03  0.93243330244E+02 0.  0.
    9000005    2    3    3    0    0  0.14036976103E+02 -0.19776502016E+02  0.70357536453E+03  0.70408414537E+03  0.11315629095E+02 0.  0.
         22    1    3    3    0    0 -0.14036976103E+02  0.19776502016E+02  0.53850059311E+02  0.59059085821E+02  0.00000000000E+00 0.  1.
         22    1    4    4    0    0  0.99227433893E+01 -0.48415459879E+01  0.24841835196E+03  0.24866358599E+03  0.00000000000E+00 0.  1.
         22    1    4    4    0    0  0.41142327136E+01 -0.14934956028E+02  0.45515701257E+03  0.45542055939E+03  0.00000000000E+00 0.  1.
<mgrwt>
<rscale>  0 0.93243330E+02</rscale>
<asrwt>0</asrwt>
<pdfrwt beam="1">  1        1 0.11696696E+00 0.93243330E+02</pdfrwt>
<pdfrwt beam="2">  1       -1 0.43983082E-03 0.93243330E+02</pdfrwt>
<totfact> 0.13364094E+05</totfact>
</mgrwt>
</event>
<event>
 6    1  0.4572563E-009  0.2611961E+03  0.7818608E-02  0.1106427E+00
         -1   -1    0    0    0  501 -0.00000000000E+00  0.00000000000E+00  0.34199393687E+02  0.34199394059E+02  0.50400000000E-02 0.  1.
          1   -1    0    0  501    0  0.00000000000E+00 -0.00000000000E+00 -0.49871805384E+03  0.49871805386E+03  0.50400000000E-02 0. -1.
    9000005    2    1    2    0    0  0.46224957779E+02  0.70598395555E+02 -0.43533735437E+03  0.44362898963E+03  0.12930125903E+02 0.  0.
         22    1    1    2    0    0 -0.46224957779E+02 -0.70598395555E+02 -0.29181305779E+02  0.89288458289E+02  0.00000000000E+00 0.  1.
         22    1    3    3    0    0  0.14652563696E+02  0.27131110202E+02 -0.13046714964E+03  0.13406144822E+03  0.00000000000E+00 0.  1.
         22    1    3    3    0    0  0.31572394082E+02  0.43467285353E+02 -0.30487020473E+03  0.30956754141E+03  0.00000000000E+00 0.  1.
<mgrwt>
<rscale>  0 0.26119613E+03</rscale>
<asrwt>0</asrwt>
<pdfrwt beam="2">  1        1 0.76725849E-01 0.26119613E+03</pdfrwt>
<pdfrwt beam="1">  1       -1 0.52614456E-02 0.26119613E+03</pdfrwt>
<totfact> 0.73307647E+03</totfact>
</mgrwt>
</event>
<event>
 7    1  0.3345055E-009  0.9240055E+02  0.7818608E-02  0.1297140E+00
         -1   -1    0    0    0  501 -0.00000000000E+00  0.00000000000E+00  0.27306016323E+02  0.27306016788E+02  0.50400000000E-02 0.  1.
          1   -1    0    0  501    0  0.00000000000E+00 -0.00000000000E+00 -0.78168311510E+02  0.78168311673E+02  0.50400000000E-02 0. -1.
         23    2    1    2    0    0 -0.17763568394E-14  0.00000000000E+00 -0.50862295187E+02  0.10547432846E+03  0.92400545954E+02 0.  0.
    9000005    2    3    3    0    0 -0.83489856143E+01  0.41222234120E+02 -0.41640917652E+01  0.42627686948E+02  0.55499448341E+01 0.  0.
         22    1    3    3    0    0  0.83489856143E+01 -0.41222234120E+02 -0.46698203422E+02  0.62846641513E+02  0.00000000000E+00 0.  1.
         22    1    4    4    0    0 -0.35489005310E+00  0.12582975526E+02  0.10719879603E+00  0.12588435630E+02  0.00000000000E+00 0.  1.
         22    1    4    4    0    0 -0.79940955612E+01  0.28639258594E+02 -0.42712905613E+01  0.30039251317E+02  0.00000000000E+00 0.  1.
<mgrwt>
<rscale>  0 0.92400546E+02</rscale>
<asrwt>0</asrwt>
<pdfrwt beam="2">  1        1 0.12025894E-01 0.92400546E+02</pdfrwt>
<pdfrwt beam="1">  1       -1 0.42009257E-02 0.92400546E+02</pdfrwt>
<totfact> 0.96761240E+04</totfact>
</mgrwt>
</event>
<event>
 7    1  0.3345055E-009  0.9122280E+02  0.7818608E-02  0.1299917E+00
          1   -1    0    0  501    0  0.00000000000E+00  0.00000000000E+00  0.17861567661E+03  0.17861567668E+03  0.50400000000E-02 0. -1.
         -1   -1    0    0    0  501 -0.00000000000E+00 -0.00000000000E+00 -0.11647352140E+02  0.11647353230E+02  0.50400000000E-02 0.  1.
         23    2    1    2    0    0  0.00000000000E+00  0.35527136788E-14  0.16696832447E+03  0.19026302991E+03  0.91222799642E+02 0.  0.
    9000005    2    3    3    0    0 -0.88357716736E+01  0.26851624447E+02  0.15753771708E+03  0.16046341662E+03  0.11458410649E+02 0.  0.
         22    1    3    3    0    0  0.88357716736E+01 -0.26851624447E+02  0.94306073927E+01  0.29799613292E+02  0.00000000000E+00 0.  1.
         22    1    4    4    0    0 -0.61800251966E+01  0.85029335079E+01  0.82608614876E+02  0.83274701089E+02  0.00000000000E+00 0. -1.
         22    1    4    4    0    0 -0.26557464770E+01  0.18348690939E+02  0.74929102201E+02  0.77188715530E+02  0.00000000000E+00 0. -1.
<mgrwt>
<rscale>  0 0.91222800E+02</rscale>
<asrwt>0</asrwt>
<pdfrwt beam="1">  1        1 0.27479333E-01 0.91222800E+02</pdfrwt>
<pdfrwt beam="2">  1       -1 0.17919006E-02 0.91222800E+02</pdfrwt>
<totfact> 0.11569811E+05</totfact>
</mgrwt>
</event>
<event>
 7    1  0.3345055E-009  0.9082930E+02  0.7818608E-02  0.1300856E+00
         -1   -1    0    0    0  501 -0.00000000000E+00  0.00000000000E+00  0.67413463744E+02  0.67413463933E+02  0.50400000000E-02 0.  1.
          1   -1    0    0  501    0  0.00000000000E+00 -0.00000000000E+00 -0.30594636911E+02  0.30594637326E+02  0.50400000000E-02 0. -1.
         23    2    1    2    0    0  0.00000000000E+00  0.35527136788E-14  0.36818826833E+02  0.98008101259E+02  0.90829300906E+02 0.  0.
    9000005    2    3    3    0    0 -0.34652903360E+02  0.27277079381E+02  0.29391163327E+02  0.53286373251E+02  0.55438544119E+01 0.  0.
         22    1    3    3    0    0  0.34652903360E+02 -0.27277079381E+02  0.74276635063E+01  0.44721728008E+02  0.00000000000E+00 0. -1.
         22    1    4    4    0    0 -0.40351331535E+01  0.56592466755E+01  0.51380684193E+01  0.86434437339E+01  0.00000000000E+00 0.  1.
         22    1    4    4    0    0 -0.30617770206E+02  0.21617832706E+02  0.24253094907E+02  0.44642929517E+02  0.00000000000E+00 0.  1.
<mgrwt>
<rscale>  0 0.90829301E+02</rscale>
<asrwt>0</asrwt>
<pdfrwt beam="2">  1        1 0.47068673E-02 0.90829301E+02</pdfrwt>
<pdfrwt beam="1">  1       -1 0.10371302E-01 0.90829301E+02</pdfrwt>
<totfact> 0.87915666E+04</totfact>
</mgrwt>
</event>
<event>
 7    1  0.3345055E-009  0.9020746E+02  0.7818608E-02  0.1302350E+00
          1   -1    0    0  501    0  0.00000000000E+00  0.00000000000E+00  0.39370411935E+02  0.39370412257E+02  0.50400000000E-02 0. -1.
         -1   -1    0    0    0  501 -0.00000000000E+00 -0.00000000000E+00 -0.51671967474E+02  0.51671967719E+02  0.50400000000E-02 0.  1.
         23    2    1    2    0    0  0.00000000000E+00  0.71054273576E-14 -0.12301555539E+02  0.91042379977E+02  0.90207464675E+02 0.  0.
    9000005    2    3    3    0    0  0.15962668174E+01  0.39864852698E+02 -0.27268337395E+02  0.48430654976E+02  0.31955545378E+01 0.  0.
         22    1    3    3    0    0 -0.15962668174E+01 -0.39864852698E+02  0.14966781856E+02  0.42611725000E+02  0.00000000000E+00 0. -1.
         22    1    4    4    0    0  0.22066925690E+01  0.17183109726E+02 -0.12353548655E+02  0.21277662379E+02  0.00000000000E+00 0. -1.
         22    1    4    4    0    0 -0.61042575161E+00  0.22681742972E+02 -0.14914788740E+02  0.27152992597E+02  0.00000000000E+00 0. -1.
<mgrwt>
<rscale>  0 0.90207465E+02</rscale>
<asrwt>0</asrwt>
<pdfrwt beam="1">  1        1 0.60569865E-02 0.90207465E+02</pdfrwt>
<pdfrwt beam="2">  1       -1 0.79495335E-02 0.90207465E+02</pdfrwt>
<totfact> 0.93215272E+04</totfact>
</mgrwt>
</event>
<event>
 7    1  0.3345055E-009  0.9876511E+02  0.7818608E-02  0.1282914E+00
          1   -1    0    0  501    0  0.00000000000E+00  0.00000000000E+00  0.76981245339E+02  0.76981245504E+02  0.50400000000E-02 0. -1.
         -1   -1    0    0    0  501 -0.00000000000E+00 -0.00000000000E+00 -0.31678323132E+02  0.31678323533E+02  0.50400000000E-02 0.  1.
         23    2    1    2    0    0  0.35527136788E-14  0.00000000000E+00  0.45302922206E+02  0.10865956904E+03  0.98765111162E+02 0.  0.
    9000005    2    3    3    0    0  0.19036469009E+02 -0.36563927456E+02 -0.68577757111E+01  0.42176139894E+02  0.56999776644E+01 0.  0.
         22    1    3    3    0    0 -0.19036469009E+02  0.36563927456E+02  0.52160697918E+02  0.66483429143E+02  0.00000000000E+00 0. -1.
         22    1    4    4    0    0  0.12027510974E+02 -0.27865417747E+02 -0.37510073187E+01  0.30581245598E+02  0.00000000000E+00 0.  1.
         22    1    4    4    0    0  0.70089580358E+01 -0.86985097087E+01 -0.31067683924E+01  0.11594894296E+02  0.00000000000E+00 0.  1.
<mgrwt>
<rscale>  0 0.98765111E+02</rscale>
<asrwt>0</asrwt>
<pdfrwt beam="1">  1        1 0.11843268E-01 0.98765111E+02</pdfrwt>
<pdfrwt beam="2">  1       -1 0.48735883E-02 0.98765111E+02</pdfrwt>
<totfact> 0.80269715E+04</totfact>
</mgrwt>
</event>
<event>
 7    1  0.3345055E-009  0.9290823E+02  0.7818608E-02  0.1295958E+00
          1   -1    0    0  501    0  0.00000000000E+00  0.00000000000E+00  0.20416702186E+03  0.20416702193E+03  0.50400000000E-02 0. -1.
         -1   -1    0    0    0  501 -0.00000000000E+00 -0.00000000000E+00 -0.10569702476E+02  0.10569703678E+02  0.50400000000E-02 0.  1.
         23    2    1    2    0    0  0.00000000000E+00  0.00000000000E+00  0.19359731939E+03  0.21473672560E+03  0.92908230253E+02 0.  0.
    9000005    2    3    3    0    0 -0.18480903731E+02  0.41119645083E+02  0.87809074444E+02  0.99743152814E+02  0.14349005686E+02 0.  0.
         22    1    3    3    0    0  0.18480903731E+02 -0.41119645083E+02  0.10578824495E+03  0.11499357279E+03  0.00000000000E+00 0.  1.
         22    1    4    4    0    0 -0.11857445764E+02  0.10066577681E+02  0.29516455290E+02  0.33363994652E+02  0.00000000000E+00 0. -1.
         22    1    4    4    0    0 -0.66234579672E+01  0.31053067402E+02  0.58292619153E+02  0.66379158162E+02  0.00000000000E+00 0. -1.
<mgrwt>
<rscale>  0 0.92908230E+02</rscale>
<asrwt>0</asrwt>
<pdfrwt beam="1">  1        1 0.31410311E-01 0.92908230E+02</pdfrwt>
<pdfrwt beam="2">  1       -1 0.16261082E-02 0.92908230E+02</pdfrwt>
<totfact> 0.11302426E+05</totfact>
</mgrwt>
</event>
<event>
 7    1  0.3345055E-009  0.9220955E+02  0.7818608E-02  0.1297587E+00
         -1   -1    0    0    0  501 -0.00000000000E+00  0.00000000000E+00  0.48211281615E+03  0.48211281617E+03  0.50400000000E-02 0.  1.
          1   -1    0    0  501    0  0.00000000000E+00 -0.00000000000E+00 -0.44090297461E+01  0.44090326268E+01  0.50400000000E-02 0. -1.
         23    2    1    2    0    0  0.00000000000E+00  0.55511151231E-15  0.47770378640E+03  0.48652184880E+03  0.92209553833E+02 0.  0.
    9000005    2    3    3    0    0  0.39748459295E+02 -0.31563792619E+00  0.35462177282E+03  0.35718035619E+03  0.15529502432E+02 0.  0.
         22    1    3    3    0    0 -0.39748459295E+02  0.31563792619E+00  0.12308201357E+03  0.12934149260E+03  0.00000000000E+00 0. -1.
         22    1    4    4    0    0  0.25631694919E+02  0.66348038647E+01  0.24687426134E+03  0.24828996217E+03  0.00000000000E+00 0.  1.
         22    1    4    4    0    0  0.14116764376E+02 -0.69504417909E+01  0.10774751149E+03  0.10889039402E+03  0.00000000000E+00 0.  1.
<mgrwt>
<rscale>  0 0.92209554E+02</rscale>
<asrwt>0</asrwt>
<pdfrwt beam="2">  1        1 0.67831265E-03 0.92209554E+02</pdfrwt>
<pdfrwt beam="1">  1       -1 0.74171186E-01 0.92209554E+02</pdfrwt>
<totfact> 0.46692976E+04</totfact>
</mgrwt>
</event>
<event>
 7    1  0.3345055E-009  0.9060200E+02  0.7818608E-02  0.1301400E+00
         -1   -1    0    0    0  501 -0.00000000000E+00  0.00000000000E+00  0.12151492410E+03  0.12151492421E+03  0.50400000000E-02 0.  1.
          1   -1    0    0  501    0  0.00000000000E+00 -0.00000000000E+00 -0.16888301921E+02  0.16888302673E+02  0.50400000000E-02 0. -1.
         23    2    1    2    0    0 -0.17763568394E-14  0.00000000000E+00  0.10462662218E+03  0.13840322688E+03  0.90602004071E+02 0.  0.
    9000005    2    3    3    0    0 -0.12792321649E+02  0.40818975015E+02  0.71975593567E+02  0.84589456486E+02  0.12043997046E+02 0.  0.
         22    1    3    3    0    0  0.12792321649E+02 -0.40818975015E+02  0.32651028616E+02  0.53813770395E+02  0.00000000000E+00 0. -1.
         22    1    4    4    0    0 -0.43745204263E+01  0.31732225443E+02  0.50729716438E+02  0.59996455648E+02  0.00000000000E+00 0.  1.
         22    1    4    4    0    0 -0.84178012224E+01  0.90867495716E+01  0.21245877130E+02  0.24593000838E+02  0.00000000000E+00 0.  1.
<mgrwt>
<rscale>  0 0.90602004E+02</rscale>
<asrwt>0</asrwt>
<pdfrwt beam="2">  1        1 0.25982004E-02 0.90602004E+02</pdfrwt>
<pdfrwt beam="1">  1       -1 0.18694603E-01 0.90602004E+02</pdfrwt>
<totfact> 0.79619487E+04</totfact>
</mgrwt>
</event>
<event>
 7    1  0.3345055E-009  0.8826413E+02  0.7818608E-02  0.1307111E+00
          1   -1    0    0  501    0  0.00000000000E+00  0.00000000000E+00  0.77699218128E+01  0.77699234474E+01  0.50400000000E-02 0. -1.
         -1   -1    0    0    0  501 -0.00000000000E+00 -0.00000000000E+00 -0.25066392218E+03  0.25066392223E+03  0.50400000000E-02 0.  1.
         23    2    1    2    0    0  0.00000000000E+00  0.00000000000E+00 -0.24289400037E+03  0.25843384568E+03  0.88264133019E+02 0.  0.
    9000005    2    3    3    0    0 -0.39975855772E+02 -0.65086413134E+01 -0.17079834595E+03  0.17574034628E+03  0.84948734997E+01 0.  0.
         22    1    3    3    0    0  0.39975855772E+02  0.65086413134E+01 -0.72095654416E+02  0.82693499394E+02  0.00000000000E+00 0. -1.
         22    1    4    4    0    0 -0.30015856870E+02 -0.15004781265E+01 -0.13156153560E+03  0.13495051222E+03  0.00000000000E+00 0.  1.
         22    1    4    4    0    0 -0.99599989017E+01 -0.50081631869E+01 -0.39236810352E+02  0.40789834067E+02  0.00000000000E+00 0.  1.
<mgrwt>
<rscale>  0 0.88264133E+02</rscale>
<asrwt>0</asrwt>
<pdfrwt beam="1">  1        1 0.11953729E-02 0.88264133E+02</pdfrwt>
<pdfrwt beam="2">  1       -1 0.38563674E-01 0.88264133E+02</pdfrwt>
<totfact> 0.70421787E+04</totfact>
</mgrwt>
</event>
<event>
 7    1  0.3345055E-009  0.9258266E+02  0.7818608E-02  0.1296715E+00
          1   -1    0    0  501    0  0.00000000000E+00  0.00000000000E+00  0.98078164642E+02  0.98078164771E+02  0.50400000000E-02 0. -1.
         -1   -1    0    0    0  501 -0.00000000000E+00 -0.00000000000E+00 -0.21848771388E+02  0.21848771969E+02  0.50400000000E-02 0.  1.
         23    2    1    2    0    0  0.00000000000E+00  0.71054273576E-14  0.76229393254E+02  0.11992693674E+03  0.92582664469E+02 0.  0.
    9000005    2    3    3    0    0 -0.20979794704E+02  0.36170659277E+02  0.60751922819E+02  0.75339713577E+02  0.15388565148E+02 0.  0.
         22    1    3    3    0    0  0.20979794704E+02 -0.36170659277E+02  0.15477470435E+02  0.44587223163E+02  0.00000000000E+00 0.  1.
         22    1    4    4    0    0 -0.46939255693E+01 -0.17531825726E+00  0.73120535296E+01  0.86907882589E+01  0.00000000000E+00 0. -1.
         22    1    4    4    0    0 -0.16285869135E+02  0.36345977534E+02  0.53439869289E+02  0.66648925318E+02  0.00000000000E+00 0. -1.
<mgrwt>
<rscale>  0 0.92582664E+02</rscale>
<asrwt>0</asrwt>
<pdfrwt beam="1">  1        1 0.15088948E-01 0.92582664E+02</pdfrwt>
<pdfrwt beam="2">  1       -1 0.33613495E-02 0.92582664E+02</pdfrwt>
<totfact> 0.99852227E+04</totfact>
</mgrwt>
</event>
<event>
 7    1  0.3345055E-009  0.9205893E+02  0.7818608E-02  0.1297941E+00
          1   -1    0    0  501    0  0.00000000000E+00  0.00000000000E+00  0.30905177142E+02  0.30905177553E+02  0.50400000000E-02 0. -1.
         -1   -1    0    0    0  501 -0.00000000000E+00 -0.00000000000E+00 -0.68555238949E+02  0.68555239135E+02  0.50400000000E-02 0.  1.
         23    2    1    2    0    0  0.17763568394E-14  0.00000000000E+00 -0.37650061807E+02  0.99460416688E+02  0.92058934024E+02 0.  0.
    9000005    2    3    3    0    0 -0.14398592671E+02 -0.60090977987E+01 -0.65301089729E+02  0.67711273827E+02  0.87838235582E+01 0.  0.
         22    1    3    3    0    0  0.14398592671E+02  0.60090977987E+01  0.27651027921E+02  0.31749142860E+02  0.00000000000E+00 0. -1.
         22    1    4    4    0    0 -0.12220869198E+02 -0.80827795244E+00 -0.46137198472E+02  0.47735144705E+02  0.00000000000E+00 0.  1.
         22    1    4    4    0    0 -0.21777234734E+01 -0.52008198463E+01 -0.19163891257E+02  0.19976129122E+02  0.00000000000E+00 0.  1.
<mgrwt>
<rscale>  0 0.92058934E+02</rscale>
<asrwt>0</asrwt>
<pdfrwt beam="1">  1        1 0.47546427E-02 0.92058934E+02</pdfrwt>
<pdfrwt beam="2">  1       -1 0.10546960E-01 0.92058934E+02</pdfrwt>
<totfact> 0.84724632E+04</totfact>
</mgrwt>
</event>
<event>
 7    1  0.3345055E-009  0.9017051E+02  0.7818608E-02  0.1302439E+00
          1   -1    0    0  501    0  0.00000000000E+00  0.00000000000E+00  0.42389414407E+02  0.42389414707E+02  0.50400000000E-02 0. -1.
         -1   -1    0    0    0  501 -0.00000000000E+00 -0.00000000000E+00 -0.47952542469E+02  0.47952542733E+02  0.50400000000E-02 0.  1.
         23    2    1    2    0    0 -0.22204460493E-15  0.00000000000E+00 -0.55631280611E+01  0.90341957441E+02  0.90170510037E+02 0.  0.
    9000005    2    3    3    0    0 -0.75739611418E+00 -0.42133909829E+02 -0.16623748997E+02  0.46773880345E+02  0.11645035229E+02 0.  0.
         22    1    3    3    0    0  0.75739611418E+00  0.42133909829E+02  0.11060620936E+02  0.43568077096E+02  0.00000000000E+00 0. -1.
         22    1    4    4    0    0  0.59883932956E+00  0.38770539583E+00  0.54418417252E+00  0.89725159805E+00  0.00000000000E+00 0.  1.
         22    1    4    4    0    0 -0.13562354437E+01 -0.42521615224E+02 -0.17167933169E+02  0.45876628747E+02  0.00000000000E+00 0.  1.
<mgrwt>
<rscale>  0 0.90170510E+02</rscale>
<asrwt>0</asrwt>
<pdfrwt beam="1">  1        1 0.65214484E-02 0.90170510E+02</pdfrwt>
<pdfrwt beam="2">  1       -1 0.73773142E-02 0.90170510E+02</pdfrwt>
<totfact> 0.94363586E+04</totfact>
</mgrwt>
</event>
<event>
 7    1  0.3345055E-009  0.9016790E+02  0.7818608E-02  0.1302446E+00
          1   -1    0    0  501    0  0.00000000000E+00  0.00000000000E+00  0.80190644672E+02  0.80190644830E+02  0.50400000000E-02 0. -1.
         -1   -1    0    0    0  501 -0.00000000000E+00 -0.00000000000E+00 -0.25346631383E+02  0.25346631884E+02  0.50400000000E-02 0.  1.
         23    2    1    2    0    0  0.00000000000E+00  0.00000000000E+00  0.54844013288E+02  0.10553727671E+03  0.90167904393E+02 0.  0.
    9000005    2    3    3    0    0 -0.16218640924E+02 -0.16988197737E+02 -0.16518355710E+02  0.30409180206E+02  0.10010943496E+02 0.  0.
         22    1    3    3    0    0  0.16218640924E+02  0.16988197737E+02  0.71362368999E+02  0.75128096508E+02  0.00000000000E+00 0. -1.
         22    1    4    4    0    0 -0.16878865170E+02 -0.12529331072E+02 -0.13417911700E+02  0.24938335569E+02  0.00000000000E+00 0.  1.
         22    1    4    4    0    0  0.66022424610E+00 -0.44588666644E+01 -0.31004440103E+01  0.54708446375E+01  0.00000000000E+00 0.  1.
<mgrwt>
<rscale>  0 0.90167904E+02</rscale>
<asrwt>0</asrwt>
<pdfrwt beam="1">  1        1 0.12337022E-01 0.90167904E+02</pdfrwt>
<pdfrwt beam="2">  1       -1 0.38994818E-02 0.90167904E+02</pdfrwt>
<totfact> 0.10390271E+05</totfact>
</mgrwt>
</event>
<event>
 7    1  0.3345055E-009  0.9011932E+02  0.7818608E-02  0.1302563E+00
         -1   -1    0    0    0  501 -0.00000000000E+00  0.00000000000E+00  0.34289039123E+02  0.34289039493E+02  0.50400000000E-02 0.  1.
          1   -1    0    0  501    0  0.00000000000E+00 -0.00000000000E+00 -0.59213470372E+02  0.59213470586E+02  0.50400000000E-02 0. -1.
         23    2    1    2    0    0  0.35527136788E-14  0.71054273576E-14 -0.24924431249E+02  0.93502510080E+02  0.90119321558E+02 0.  0.
    9000005    2    3    3    0    0  0.19057124545E+02  0.33334717669E+02  0.93139545597E+01  0.42056961577E+02  0.14410443074E+02 0.  0.
         22    1    3    3    0    0 -0.19057124545E+02 -0.33334717669E+02 -0.34238385809E+02  0.51445548503E+02  0.00000000000E+00 0. -1.
         22    1    4    4    0    0  0.86182999855E+01  0.41473311796E+01 -0.39989158432E+00  0.95726362008E+01  0.00000000000E+00 0. -1.
         22    1    4    4    0    0  0.10438824559E+02  0.29187386489E+02  0.97138461440E+01  0.32484325376E+02  0.00000000000E+00 0. -1.
<mgrwt>
<rscale>  0 0.90119322E+02</rscale>
<asrwt>0</asrwt>
<pdfrwt beam="2">  1        1 0.91097647E-02 0.90119322E+02</pdfrwt>
<pdfrwt beam="1">  1       -1 0.52752368E-02 0.90119322E+02</pdfrwt>
<totfact> 0.99338849E+04</totfact>
</mgrwt>
</event>
<event>
 7    1  0.3345055E-009  0.8834671E+02  0.7818608E-02  0.1306905E+00
          1   -1    0    0  501    0  0.00000000000E+00  0.00000000000E+00  0.91416681562E+02  0.91416681700E+02  0.50400000000E-02 0. -1.
         -1   -1    0    0    0  501 -0.00000000000E+00 -0.00000000000E+00 -0.21344958083E+02  0.21344958678E+02  0.50400000000E-02 0.  1.
         23    2    1    2    0    0  0.00000000000E+00  0.00000000000E+00  0.70071723479E+02  0.11276164038E+03  0.88346709670E+02 0.  0.
    9000005    2    3    3    0    0 -0.62714286764E+01 -0.31023813449E+02  0.74355014496E+02  0.80821784391E+02  0.12980111381E+01 0.  0.
         22    1    3    3    0    0  0.62714286764E+01  0.31023813449E+02 -0.42832910169E+01  0.31939855987E+02  0.00000000000E+00 0.  1.
         22    1    4    4    0    0 -0.28048788510E+01 -0.13234105195E+02  0.33393616175E+02  0.36029744475E+02  0.00000000000E+00 0.  1.
         22    1    4    4    0    0 -0.34665498254E+01 -0.17789708254E+02  0.40961398321E+02  0.44792039916E+02  0.00000000000E+00 0.  1.
<mgrwt>
<rscale>  0 0.88346710E+02</rscale>
<asrwt>0</asrwt>
<pdfrwt beam="1">  1        1 0.14064105E-01 0.88346710E+02</pdfrwt>
<pdfrwt beam="2">  1       -1 0.32838398E-02 0.88346710E+02</pdfrwt>
<totfact> 0.11215698E+05</totfact>
</mgrwt>
</event>
<event>
 7    1  0.3345055E-009  0.9020893E+02  0.7818608E-02  0.1302347E+00
         -1   -1    0    0    0  501 -0.00000000000E+00  0.00000000000E+00  0.11570725648E+03  0.11570725659E+03  0.50400000000E-02 0.  1.
          1   -1    0    0  501    0  0.00000000000E+00 -0.00000000000E+00 -0.17582411336E+02  0.17582412059E+02  0.50400000000E-02 0. -1.
         23    2    1    2    0    0  0.35527136788E-14  0.17763568394E-14  0.98124845148E+02  0.13328966865E+03  0.90208927132E+02 0.  0.
    9000005    2    3    3    0    0 -0.25569205783E+02 -0.13453918615E+02  0.99127945636E+02  0.10437949015E+03  0.15294971316E+02 0.  0.
         22    1    3    3    0    0  0.25569205783E+02  0.13453918615E+02 -0.10031004883E+01  0.28910178503E+02  0.00000000000E+00 0. -1.
         22    1    4    4    0    0 -0.79636403374E+01 -0.98085736984E+01  0.23912050610E+02  0.27044663980E+02  0.00000000000E+00 0. -1.
         22    1    4    4    0    0 -0.17605565445E+02 -0.36453449166E+01  0.75215895026E+02  0.77334826170E+02  0.00000000000E+00 0. -1.
<mgrwt>
<rscale>  0 0.90208927E+02</rscale>
<asrwt>0</asrwt>
<pdfrwt beam="2">  1        1 0.27049864E-02 0.90208927E+02</pdfrwt>
<pdfrwt beam="1">  1       -1 0.17801116E-01 0.90208927E+02</pdfrwt>
<totfact> 0.81321369E+04</totfact>
</mgrwt>
</event>
<event>
 7    1  0.3345055E-009  0.9370673E+02  0.7818608E-02  0.1294116E+00
         -1   -1    0    0    0  501 -0.00000000000E+00  0.00000000000E+00  0.28525230967E+02  0.28525231412E+02  0.50400000000E-02 0.  1.
          1   -1    0    0  501    0  0.00000000000E+00 -0.00000000000E+00 -0.76957749215E+02  0.76957749380E+02  0.50400000000E-02 0. -1.
         23    2    1    2    0    0  0.00000000000E+00  0.35527136788E-14 -0.48432518248E+02  0.10548298079E+03  0.93706725548E+02 0.  0.
    9000005    2    3    3    0    0 -0.38806240487E+02  0.23635610336E+02 -0.35961545604E+02  0.58365133479E+02  0.69777981621E+01 0.  0.
         22    1    3    3    0    0  0.38806240487E+02 -0.23635610336E+02 -0.12470972644E+02  0.47117847312E+02  0.00000000000E+00 0.  1.
         22    1    4    4    0    0 -0.28882871543E+02  0.17340134901E+02 -0.30345179697E+02  0.45340164069E+02  0.00000000000E+00 0.  1.
         22    1    4    4    0    0 -0.99233689442E+01  0.62954754344E+01 -0.56163659068E+01  0.13024969411E+02  0.00000000000E+00 0.  1.
<mgrwt>
<rscale>  0 0.93706726E+02</rscale>
<asrwt>0</asrwt>
<pdfrwt beam="2">  1        1 0.11839654E-01 0.93706726E+02</pdfrwt>
<pdfrwt beam="1">  1       -1 0.43884971E-02 0.93706726E+02</pdfrwt>
<totfact> 0.92855816E+04</totfact>
</mgrwt>
</event>
<event>
 7    1  0.3345055E-009  0.9118531E+02  0.7818608E-02  0.1300006E+00
         -1   -1    0    0    0  501 -0.00000000000E+00  0.00000000000E+00  0.22949747189E+02  0.22949747742E+02  0.50400000000E-02 0.  1.
          1   -1    0    0  501    0  0.00000000000E+00 -0.00000000000E+00 -0.90575730180E+02  0.90575730320E+02  0.50400000000E-02 0. -1.
         23    2    1    2    0    0  0.00000000000E+00 -0.17763568394E-14 -0.67625982991E+02  0.11352547806E+03  0.91185309089E+02 0.  0.
    9000005    2    3    3    0    0  0.24262823222E+02 -0.14351315063E+02 -0.77841889350E+02  0.83541989647E+02  0.11191937359E+02 0.  0.
         22    1    3    3    0    0 -0.24262823222E+02  0.14351315063E+02  0.10215906360E+02  0.29983488414E+02  0.00000000000E+00 0.  1.
         22    1    4    4    0    0  0.12325344608E+02 -0.89122931892E+01 -0.26539921906E+02  0.30589386139E+02  0.00000000000E+00 0.  1.
         22    1    4    4    0    0  0.11937478614E+02 -0.54390218737E+01 -0.51301967445E+02  0.52952603508E+02  0.00000000000E+00 0.  1.
<mgrwt>
<rscale>  0 0.91185309E+02</rscale>
<asrwt>0</asrwt>
<pdfrwt beam="2">  1        1 0.13934728E-01 0.91185309E+02</pdfrwt>
<pdfrwt beam="1">  1       -1 0.35307304E-02 0.91185309E+02</pdfrwt>
<totfact> 0.10274055E+05</totfact>
</mgrwt>
</event>
<event>
 7    1  0.3345055E-009  0.9584468E+02  0.7818608E-02  0.1289285E+00
         -1   -1    0    0    0  501 -0.00000000000E+00  0.00000000000E+00  0.26554717652E+02  0.26554718130E+02  0.50400000000E-02 0.  1.
          1   -1    0    0  501    0  0.00000000000E+00 -0.00000000000E+00 -0.86483712967E+02  0.86483713114E+02  0.50400000000E-02 0. -1.
         23    2    1    2    0    0  0.44408920985E-15  0.00000000000E+00 -0.59928995315E+02  0.11303843124E+03  0.95844678823E+02 0.  0.
    9000005    2    3    3    0    0 -0.30231330943E+01  0.15337847231E+02  0.22513598955E+02  0.29126750047E+02  0.98547723989E+01 0.  0.
         22    1    3    3    0    0  0.30231330943E+01 -0.15337847231E+02 -0.82442594270E+02  0.83911681197E+02  0.00000000000E+00 0. -1.
         22    1    4    4    0    0  0.25763434665E+01  0.70825457466E+01  0.14460353820E+02  0.16306496635E+02  0.00000000000E+00 0. -1.
         22    1    4    4    0    0 -0.55994765609E+01  0.82553014842E+01  0.80532451348E+01  0.12820253412E+02  0.00000000000E+00 0. -1.
<mgrwt>
<rscale>  0 0.95844679E+02</rscale>
<asrwt>0</asrwt>
<pdfrwt beam="2">  1        1 0.13305186E-01 0.95844679E+02</pdfrwt>
<pdfrwt beam="1">  1       -1 0.40853413E-02 0.95844679E+02</pdfrwt>
<totfact> 0.88918300E+04</totfact>
</mgrwt>
</event>
<event>
 7    1  0.3345055E-009  0.9573624E+02  0.7818608E-02  0.1289526E+00
         -1   -1    0    0    0  501 -0.00000000000E+00  0.00000000000E+00  0.23861317394E+02  0.23861317926E+02  0.50400000000E-02 0.  1.
          1   -1    0    0  501    0  0.00000000000E+00 -0.00000000000E+00 -0.96028092355E+02  0.96028092487E+02  0.50400000000E-02 0. -1.
         23    2    1    2    0    0  0.00000000000E+00  0.00000000000E+00 -0.72166774961E+02  0.11988941041E+03  0.95736238285E+02 0.  0.
    9000005    2    3    3    0    0  0.22720675761E+01  0.33970431356E+02 -0.78173734161E+02  0.85317224246E+02  0.29569482121E+01 0.  0.
         22    1    3    3    0    0 -0.22720675761E+01 -0.33970431356E+02  0.60069592000E+01  0.34572186168E+02  0.00000000000E+00 0.  1.
         22    1    4    4    0    0  0.58830194937E+00  0.18978740739E+02 -0.46787307275E+02  0.50493473056E+02  0.00000000000E+00 0.  1.
         22    1    4    4    0    0  0.16837656268E+01  0.14991690617E+02 -0.31386426886E+02  0.34823751190E+02  0.00000000000E+00 0.  1.
<mgrwt>
<rscale>  0 0.95736238E+02</rscale>
<asrwt>0</asrwt>
<pdfrwt beam="2">  1        1 0.14773553E-01 0.95736238E+02</pdfrwt>
<pdfrwt beam="1">  1       -1 0.36709720E-02 0.95736238E+02</pdfrwt>
<totfact> 0.90767911E+04</totfact>
</mgrwt>
</event>
<event>
 7    1  0.3345055E-009  0.9078109E+02  0.7818608E-02  0.1300971E+00
          1   -1    0    0  501    0  0.00000000000E+00  0.00000000000E+00  0.30577834715E+03  0.30577834719E+03  0.50400000000E-02 0. -1.
         -1   -1    0    0    0  501 -0.00000000000E+00 -0.00000000000E+00 -0.67378912947E+01  0.67378931797E+01  0.50400000000E-02 0.  1.
         23    2    1    2    0    0  0.00000000000E+00 -0.71054273576E-14  0.29904045585E+03  0.31251624037E+03  0.90781089757E+02 0.  0.
    9000005    2    3    3    0    0 -0.21046840288E+02 -0.38480912131E+02  0.13560695491E+03  0.14329963564E+03  0.14892591139E+02 0.  0.
         22    1    3    3    0    0  0.21046840288E+02  0.38480912131E+02  0.16343350094E+03  0.16921660473E+03  0.00000000000E+00 0. -1.
         22    1    4    4    0    0 -0.16707331676E+02 -0.31970061748E+02  0.88864699150E+02  0.95907009832E+02  0.00000000000E+00 0. -1.
         22    1    4    4    0    0 -0.43395086123E+01 -0.65108503826E+01  0.46742255757E+02  0.47392625808E+02  0.00000000000E+00 0. -1.
<mgrwt>
<rscale>  0 0.90781090E+02</rscale>
<asrwt>0</asrwt>
<pdfrwt beam="1">  1        1 0.47042818E-01 0.90781090E+02</pdfrwt>
<pdfrwt beam="2">  1       -1 0.10365989E-02 0.90781090E+02</pdfrwt>
<totfact> 0.13008545E+05</totfact>
</mgrwt>
</event>
<event>
 7    1  0.3345055E-009  0.8918101E+02  0.7818608E-02  0.1304847E+00
         -1   -1    0    0    0  501 -0.00000000000E+00  0.00000000000E+00  0.15329551611E+03  0.15329551620E+03  0.50400000000E-02 0.  1.
          1   -1    0    0  501    0  0.00000000000E+00 -0.00000000000E+00 -0.12970457578E+02  0.12970458557E+02  0.50400000000E-02 0. -1.
         23    2    1    2    0    0  0.00000000000E+00  0.00000000000E+00  0.14032505854E+03  0.16626597475E+03  0.89181008673E+02 0.  0.
    9000005    2    3    3    0    0 -0.37929849829E+02 -0.36950986241E+01  0.11277906147E+03  0.11924354164E+03  0.68976992003E+01 0.  0.
         22    1    3    3    0    0  0.37929849829E+02  0.36950986241E+01  0.27545997065E+02  0.47022433116E+02  0.00000000000E+00 0. -1.
         22    1    4    4    0    0 -0.35896673649E+02 -0.19176873157E+01  0.10273112137E+03  0.10883901875E+03  0.00000000000E+00 0.  1.
         22    1    4    4    0    0 -0.20331761799E+01 -0.17774113084E+01  0.10047940099E+02  0.10404522890E+02  0.00000000000E+00 0.  1.
<mgrwt>
<rscale>  0 0.89181009E+02</rscale>
<asrwt>0</asrwt>
<pdfrwt beam="2">  1        1 0.19954550E-02 0.89181009E+02</pdfrwt>
<pdfrwt beam="1">  1       -1 0.23583927E-01 0.89181009E+02</pdfrwt>
<totfact> 0.78801169E+04</totfact>
</mgrwt>
</event>
<event>
 7    1  0.3345055E-009  0.8895102E+02  0.7818608E-02  0.1305412E+00
         -1   -1    0    0    0  501 -0.00000000000E+00  0.00000000000E+00  0.21716781116E+02  0.21716781701E+02  0.50400000000E-02 0.  1.
          1   -1    0    0  501    0  0.00000000000E+00 -0.00000000000E+00 -0.91084905163E+02  0.91084905303E+02  0.50400000000E-02 0. -1.
         23    2    1    2    0    0  0.00000000000E+00  0.00000000000E+00 -0.69368124047E+02  0.11280168700E+03  0.88951019988E+02 0.  0.
    9000005    2    3    3    0    0  0.23172435482E+02  0.26755224678E+02 -0.68015645060E+02  0.77380887843E+02  0.10434079582E+02 0.  0.
         22    1    3    3    0    0 -0.23172435482E+02 -0.26755224678E+02 -0.13524789868E+01  0.35420799160E+02  0.00000000000E+00 0.  1.
         22    1    4    4    0    0  0.27010762506E+01  0.84346021592E+01 -0.11257872113E+02  0.14324036128E+02  0.00000000000E+00 0. -1.
         22    1    4    4    0    0  0.20471359231E+02  0.18320622519E+02 -0.56757772948E+02  0.63056851715E+02  0.00000000000E+00 0. -1.
<mgrwt>
<rscale>  0 0.88951020E+02</rscale>
<asrwt>0</asrwt>
<pdfrwt beam="2">  1        1 0.14013062E-01 0.88951020E+02</pdfrwt>
<pdfrwt beam="1">  1       -1 0.33410433E-02 0.88951020E+02</pdfrwt>
<totfact> 0.11003158E+05</totfact>
</mgrwt>
</event>
<event>
 7    1  0.3345055E-009  0.9182690E+02  0.7818608E-02  0.1298487E+00
          1   -1    0    0  501    0  0.00000000000E+00  0.00000000000E+00  0.34228436122E+03  0.34228436125E+03  0.50400000000E-02 0. -1.
         -1   -1    0    0    0  501 -0.00000000000E+00 -0.00000000000E+00 -0.61587517606E+01  0.61587538228E+01  0.50400000000E-02 0.  1.
         23    2    1    2    0    0 -0.35527136788E-14 -0.35527136788E-14  0.33612560946E+03  0.34844311508E+03  0.91826897541E+02 0.  0.
    9000005    2    3    3    0    0  0.24401358492E+02  0.23366224072E+02  0.28450863281E+03  0.28675260525E+03  0.11852753071E+02 0.  0.
         22    1    3    3    0    0 -0.24401358492E+02 -0.23366224072E+02  0.51616976650E+02  0.61690509823E+02  0.00000000000E+00 0.  1.
         22    1    4    4    0    0  0.17369428505E+01 -0.13517852118E+01  0.13755027537E+02  0.13930006327E+02  0.00000000000E+00 0.  1.
         22    1    4    4    0    0  0.22664415641E+02  0.24718009284E+02  0.27075360527E+03  0.27282259893E+03  0.00000000000E+00 0.  1.
<mgrwt>
<rscale>  0 0.91826898E+02</rscale>
<asrwt>0</asrwt>
<pdfrwt beam="1">  1        1 0.52659123E-01 0.91826898E+02</pdfrwt>
<pdfrwt beam="2">  1       -1 0.94750061E-03 0.91826898E+02</pdfrwt>
<totfact> 0.12884536E+05</totfact>
</mgrwt>
</event>
<event>
 6    1  0.3345055E-009  0.4359650E+03  0.7818608E-02  0.1031992E+00
          1   -1    0    0  501    0  0.00000000000E+00  0.00000000000E+00  0.55536034346E+03  0.55536034348E+03  0.50400000000E-02 0. -1.
         -1   -1    0    0    0  501 -0.00000000000E+00 -0.00000000000E+00 -0.85559518260E+02  0.85559518409E+02  0.50400000000E-02 0.  1.
    9000005    2    1    2    0    0  0.40713250009E+02  0.19402913046E+03  0.36802792655E+03  0.41806880156E+03  0.56653265208E+01 0.  0.
         22    1    1    2    0    0 -0.40713250009E+02 -0.19402913046E+03  0.10177289865E+03  0.22285106033E+03  0.00000000000E+00 0. -1.
         22    1    3    3    0    0  0.21953073399E+02  0.11759827714E+03  0.22037970066E+03  0.25075586670E+03  0.00000000000E+00 0.  1.
         22    1    3    3    0    0  0.18760176610E+02  0.76430853313E+02  0.14764822589E+03  0.16731293486E+03  0.00000000000E+00 0.  1.
<mgrwt>
<rscale>  0 0.43596497E+03</rscale>
<asrwt>0</asrwt>
<pdfrwt beam="1">  1        1 0.85440052E-01 0.43596497E+03</pdfrwt>
<pdfrwt beam="2">  1       -1 0.13163003E-01 0.43596497E+03</pdfrwt>
<totfact> 0.15548196E+03</totfact>
</mgrwt>
</event>
<event>
 7    1  0.3345055E-009  0.7982215E+02  0.7818608E-02  0.1329557E+00
          1   -1    0    0  501    0  0.00000000000E+00  0.00000000000E+00  0.32216707387E+02  0.32216707782E+02  0.50400000000E-02 0. -1.
         -1   -1    0    0    0  501 -0.00000000000E+00 -0.00000000000E+00 -0.49443105723E+02  0.49443105980E+02  0.50400000000E-02 0.  1.
         23    2    1    2    0    0  0.00000000000E+00  0.35527136788E-14 -0.17226398336E+02  0.81659813761E+02  0.79822154719E+02 0.  0.
    9000005    2    3    3    0    0 -0.23804190307E+02  0.30179144998E+02 -0.79640653731E+01  0.42122349492E+02  0.15278930607E+02 0.  0.
         22    1    3    3    0    0  0.23804190307E+02 -0.30179144998E+02 -0.92623329624E+01  0.39537464270E+02  0.00000000000E+00 0.  1.
         22    1    4    4    0    0 -0.19147372894E+02  0.18948386547E+02 -0.11749077481E+02  0.29388842494E+02  0.00000000000E+00 0. -1.
         22    1    4    4    0    0 -0.46568174122E+01  0.11230758451E+02  0.37850121084E+01  0.12733506998E+02  0.00000000000E+00 0. -1.
<mgrwt>
<rscale>  0 0.79822155E+02</rscale>
<asrwt>0</asrwt>
<pdfrwt beam="1">  1        1 0.49564166E-02 0.79822155E+02</pdfrwt>
<pdfrwt beam="2">  1       -1 0.76066317E-02 0.79822155E+02</pdfrwt>
<totfact> 0.12761752E+05</totfact>
</mgrwt>
</event>
<event>
 7    1  0.3345055E-009  0.8897510E+02  0.7818608E-02  0.1305353E+00
          1   -1    0    0  501    0  0.00000000000E+00  0.00000000000E+00  0.48847764481E+02  0.48847764741E+02  0.50400000000E-02 0. -1.
         -1   -1    0    0    0  501 -0.00000000000E+00 -0.00000000000E+00 -0.40516532989E+02  0.40516533303E+02  0.50400000000E-02 0.  1.
         23    2    1    2    0    0  0.00000000000E+00  0.00000000000E+00  0.83312314919E+01  0.89364298044E+02  0.88975099588E+02 0.  0.
    9000005    2    3    3    0    0  0.25258505313E+02 -0.26030814885E+02 -0.21121980275E+02  0.42640780436E+02  0.75168272060E+01 0.  0.
         22    1    3    3    0    0 -0.25258505313E+02  0.26030814885E+02  0.29453211767E+02  0.46723517608E+02  0.00000000000E+00 0. -1.
         22    1    4    4    0    0  0.20085781172E+01 -0.33869401480E-01 -0.32793865785E+00  0.20354549744E+01  0.00000000000E+00 0. -1.
         22    1    4    4    0    0  0.23249927196E+02 -0.25996945484E+02 -0.20794041617E+02  0.40605325462E+02  0.00000000000E+00 0. -1.
<mgrwt>
<rscale>  0 0.88975100E+02</rscale>
<asrwt>0</asrwt>
<pdfrwt beam="1">  1        1 0.75150407E-02 0.88975100E+02</pdfrwt>
<pdfrwt beam="2">  1       -1 0.62333129E-02 0.88975100E+02</pdfrwt>
<totfact> 0.10003170E+05</totfact>
</mgrwt>
</event>
<event>
 7    1  0.3345055E-009  0.9388915E+02  0.7818608E-02  0.1293698E+00
          1   -1    0    0  501    0  0.00000000000E+00  0.00000000000E+00  0.88727428040E+01  0.88727442355E+01  0.50400000000E-02 0. -1.
         -1   -1    0    0    0  501 -0.00000000000E+00 -0.00000000000E+00 -0.24837787149E+03  0.24837787155E+03  0.50400000000E-02 0.  1.
         23    2    1    2    0    0  0.00000000000E+00  0.00000000000E+00 -0.23950512869E+03  0.25725061578E+03  0.93889150868E+02 0.  0.
    9000005    2    3    3    0    0 -0.22660476249E+02  0.35609872476E+02 -0.67793215861E+02  0.80427141070E+02  0.95417347617E+01 0.  0.
         22    1    3    3    0    0  0.22660476249E+02 -0.35609872476E+02 -0.17171191283E+03  0.17682347471E+03  0.00000000000E+00 0.  1.
         22    1    4    4    0    0 -0.52343411288E+01  0.27507487548E+01 -0.11923582096E+02  0.13309273300E+02  0.00000000000E+00 0.  1.
         22    1    4    4    0    0 -0.17426135120E+02  0.32859123721E+02 -0.55869633765E+02  0.67117867770E+02  0.00000000000E+00 0.  1.
<mgrwt>
<rscale>  0 0.93889151E+02</rscale>
<asrwt>0</asrwt>
<pdfrwt beam="1">  1        1 0.13650377E-02 0.93889151E+02</pdfrwt>
<pdfrwt beam="2">  1       -1 0.38211975E-01 0.93889151E+02</pdfrwt>
<totfact> 0.60117507E+04</totfact>
</mgrwt>
</event>
<event>
 7    1  0.3345055E-009  0.9004522E+02  0.7818608E-02  0.1302742E+00
         -1   -1    0    0    0  501 -0.00000000000E+00  0.00000000000E+00  0.59445027893E+01  0.59445049258E+01  0.50400000000E-02 0.  1.
          1   -1    0    0  501    0  0.00000000000E+00 -0.00000000000E+00 -0.34099318321E+03  0.34099318324E+03  0.50400000000E-02 0. -1.
         23    2    1    2    0    0  0.00000000000E+00  0.00000000000E+00 -0.33504868042E+03  0.34693768817E+03  0.90045217658E+02 0.  0.
    9000005    2    3    3    0    0 -0.13074402296E+02  0.75902787547E+01 -0.33042450029E+03  0.33112834382E+03  0.15397316606E+02 0.  0.
         22    1    3    3    0    0  0.13074402296E+02 -0.75902787547E+01 -0.46241801224E+01  0.15809344350E+02  0.00000000000E+00 0.  1.
         22    1    4    4    0    0 -0.16138254269E+02  0.37039423140E+01 -0.26517380155E+03  0.26569024722E+03  0.00000000000E+00 0. -1.
         22    1    4    4    0    0  0.30638519734E+01  0.38863364407E+01 -0.65250698749E+02  0.65438096604E+02  0.00000000000E+00 0. -1.
<mgrwt>
<rscale>  0 0.90045218E+02</rscale>
<asrwt>0</asrwt>
<pdfrwt beam="2">  1        1 0.52460474E-01 0.90045218E+02</pdfrwt>
<pdfrwt beam="1">  1       -1 0.91453933E-03 0.90045218E+02</pdfrwt>
<totfact> 0.13564325E+05</totfact>
</mgrwt>
</event>
<event>
 7    1  0.3345055E-009  0.9071710E+02  0.7818608E-02  0.1301124E+00
         -1   -1    0    0    0  501 -0.00000000000E+00  0.00000000000E+00  0.29346286768E+03  0.29346286772E+03  0.50400000000E-02 0.  1.
          1   -1    0    0  501    0  0.00000000000E+00 -0.00000000000E+00 -0.70107605747E+01  0.70107623863E+01  0.50400000000E-02 0. -1.
         23    2    1    2    0    0 -0.22204460493E-15  0.00000000000E+00  0.28645210710E+03  0.30047363011E+03  0.90717102721E+02 0.  0.
    9000005    2    3    3    0    0 -0.15015531940E+01 -0.20404927730E+02  0.27665431729E+03  0.27778855962E+03  0.14500236057E+02 0.  0.
         22    1    3    3    0    0  0.15015531940E+01  0.20404927730E+02  0.97977898164E+01  0.22685070486E+02  0.00000000000E+00 0. -1.
         22    1    4    4    0    0 -0.60686136223E+01 -0.29668523775E+01  0.57878835353E+02  0.58271690092E+02  0.00000000000E+00 0. -1.
         22    1    4    4    0    0  0.45670604283E+01 -0.17438075352E+02  0.21877548193E+03  0.21951686953E+03  0.00000000000E+00 0. -1.
<mgrwt>
<rscale>  0 0.90717103E+02</rscale>
<asrwt>0</asrwt>
<pdfrwt beam="2">  1        1 0.10785789E-02 0.90717103E+02</pdfrwt>
<pdfrwt beam="1">  1       -1 0.45148126E-01 0.90717103E+02</pdfrwt>
<totfact> 0.61922132E+04</totfact>
</mgrwt>
</event>
<event>
 7    1  0.3345055E-009  0.9568055E+02  0.7818608E-02  0.1289651E+00
         -1   -1    0    0    0  501 -0.00000000000E+00  0.00000000000E+00  0.45380255628E+02  0.45380255908E+02  0.50400000000E-02 0.  1.
          1   -1    0    0  501    0  0.00000000000E+00 -0.00000000000E+00 -0.50433646984E+02  0.50433647236E+02  0.50400000000E-02 0. -1.
         23    2    1    2    0    0  0.00000000000E+00  0.00000000000E+00 -0.50533913566E+01  0.95813903144E+02  0.95680548030E+02 0.  0.
    9000005    2    3    3    0    0 -0.16771510879E+02  0.22142895690E+02  0.35949312120E+02  0.46288020021E+02  0.88677138439E+01 0.  0.
         22    1    3    3    0    0  0.16771510879E+02 -0.22142895690E+02 -0.41002703477E+02  0.49525883123E+02  0.00000000000E+00 0. -1.
         22    1    4    4    0    0 -0.70403312884E+01  0.16318266390E+02  0.23190242141E+02  0.29217108228E+02  0.00000000000E+00 0. -1.
         22    1    4    4    0    0 -0.97311795908E+01  0.58246292993E+01  0.12759069979E+02  0.17070911793E+02  0.00000000000E+00 0. -1.
<mgrwt>
<rscale>  0 0.95680548E+02</rscale>
<asrwt>0</asrwt>
<pdfrwt beam="2">  1        1 0.77590227E-02 0.95680548E+02</pdfrwt>
<pdfrwt beam="1">  1       -1 0.69815778E-02 0.95680548E+02</pdfrwt>
<totfact> 0.82000243E+04</totfact>
</mgrwt>
</event>
<event>
 7    1  0.3345055E-009  0.8887447E+02  0.7818608E-02  0.1305600E+00
         -1   -1    0    0    0  501 -0.00000000000E+00  0.00000000000E+00  0.42796491608E+03  0.42796491611E+03  0.50400000000E-02 0.  1.
          1   -1    0    0  501    0  0.00000000000E+00 -0.00000000000E+00 -0.46140862545E+01  0.46140890071E+01  0.50400000000E-02 0. -1.
         23    2    1    2    0    0  0.71054273576E-14  0.00000000000E+00  0.42335082982E+03  0.43257900512E+03  0.88874465140E+02 0.  0.
    9000005    2    3    3    0    0 -0.36652705914E+02  0.28128194309E+01  0.33180685763E+03  0.33392997243E+03  0.78805402975E+01 0.  0.
         22    1    3    3    0    0  0.36652705914E+02 -0.28128194309E+01  0.91543972198E+02  0.98649032685E+02  0.00000000000E+00 0. -1.
         22    1    4    4    0    0 -0.27637538342E+02 -0.20339584428E+00  0.26754503675E+03  0.26896881155E+03  0.00000000000E+00 0.  1.
         22    1    4    4    0    0 -0.90151675722E+01  0.30162152751E+01  0.64261820874E+02  0.64961160881E+02  0.00000000000E+00 0.  1.
<mgrwt>
<rscale>  0 0.88874465E+02</rscale>
<asrwt>0</asrwt>
<pdfrwt beam="2">  1        1 0.70985991E-03 0.88874465E+02</pdfrwt>
<pdfrwt beam="1">  1       -1 0.65840731E-01 0.88874465E+02</pdfrwt>
<totfact> 0.55009876E+04</totfact>
</mgrwt>
</event>
<event>
 7    1  0.3345055E-009  0.9163570E+02  0.7818608E-02  0.1298938E+00
         -1   -1    0    0    0  501 -0.00000000000E+00  0.00000000000E+00  0.13933725630E+02  0.13933726541E+02  0.50400000000E-02 0.  1.
          1   -1    0    0  501    0  0.00000000000E+00 -0.00000000000E+00 -0.15066145150E+03  0.15066145158E+03  0.50400000000E-02 0. -1.
         23    2    1    2    0    0  0.00000000000E+00  0.00000000000E+00 -0.13672772587E+03  0.16459517812E+03  0.91635700687E+02 0.  0.
    9000005    2    3    3    0    0 -0.18063414741E+02  0.37619014865E+02 -0.99045606417E+02  0.10836867763E+03  0.13865818001E+02 0.  0.
         22    1    3    3    0    0  0.18063414741E+02 -0.37619014865E+02 -0.37682119449E+02  0.56226500493E+02  0.00000000000E+00 0. -1.
         22    1    4    4    0    0 -0.10632137547E+02  0.32447967077E+02 -0.68963004600E+02  0.76953290507E+02  0.00000000000E+00 0.  1.
         22    1    4    4    0    0 -0.74312771940E+01  0.51710477884E+01 -0.30082601817E+02  0.31415387122E+02  0.00000000000E+00 0.  1.
<mgrwt>
<rscale>  0 0.91635701E+02</rscale>
<asrwt>0</asrwt>
<pdfrwt beam="2">  1        1 0.23178684E-01 0.91635701E+02</pdfrwt>
<pdfrwt beam="1">  1       -1 0.21436503E-02 0.91635701E+02</pdfrwt>
<totfact> 0.11071230E+05</totfact>
</mgrwt>
</event>
<event>
 7    1  0.3345055E-009  0.8937329E+02  0.7818608E-02  0.1304377E+00
         -1   -1    0    0    0  501 -0.00000000000E+00  0.00000000000E+00  0.69986122873E+01  0.69986141020E+01  0.50400000000E-02 0.  1.
          1   -1    0    0  501    0  0.00000000000E+00 -0.00000000000E+00 -0.28532739573E+03  0.28532739578E+03  0.50400000000E-02 0. -1.
         23    2    1    2    0    0  0.35527136788E-14  0.00000000000E+00 -0.27832878344E+03  0.29232600988E+03  0.89373286600E+02 0.  0.
    9000005    2    3    3    0    0 -0.24239438681E+02  0.34693811443E+02 -0.11140517926E+03  0.12012060760E+03  0.15054416764E+02 0.  0.
         22    1    3    3    0    0  0.24239438681E+02 -0.34693811443E+02 -0.16692360419E+03  0.17220540228E+03  0.00000000000E+00 0. -1.
         22    1    4    4    0    0 -0.11912957697E+02  0.20417050405E+02 -0.80644446226E+02  0.84037498865E+02  0.00000000000E+00 0.  1.
         22    1    4    4    0    0 -0.12326480984E+02  0.14276761038E+02 -0.30760733033E+02  0.36083108734E+02  0.00000000000E+00 0.  1.
<mgrwt>
<rscale>  0 0.89373287E+02</rscale>
<asrwt>0</asrwt>
<pdfrwt beam="2">  1        1 0.43896514E-01 0.89373287E+02</pdfrwt>
<pdfrwt beam="1">  1       -1 0.10767099E-02 0.89373287E+02</pdfrwt>
<totfact> 0.13382681E+05</totfact>
</mgrwt>
</event>
<event>
 7    1  0.3345055E-009  0.9122629E+02  0.7818608E-02  0.1299909E+00
         -1   -1    0    0    0  501 -0.00000000000E+00  0.00000000000E+00  0.75786765371E+02  0.75786765539E+02  0.50400000000E-02 0.  1.
          1   -1    0    0  501    0  0.00000000000E+00 -0.00000000000E+00 -0.27452803646E+02  0.27452804109E+02  0.50400000000E-02 0. -1.
         23    2    1    2    0    0  0.00000000000E+00  0.00000000000E+00  0.48333961725E+02  0.10323956965E+03  0.91226294921E+02 0.  0.
    9000005    2    3    3    0    0 -0.41340084404E+02  0.44329343484E+01  0.67686114326E+01  0.44448993614E+02  0.14186100489E+02 0.  0.
         22    1    3    3    0    0  0.41340084404E+02 -0.44329343484E+01  0.41565350292E+02  0.58790576034E+02  0.00000000000E+00 0. -1.
         22    1    4    4    0    0 -0.85144446015E+01 -0.17955786744E+01 -0.36714415706E+01  0.94445409023E+01  0.00000000000E+00 0. -1.
         22    1    4    4    0    0 -0.32825639803E+02  0.62285130228E+01  0.10440053003E+02  0.35004452711E+02  0.00000000000E+00 0. -1.
<mgrwt>
<rscale>  0 0.91226295E+02</rscale>
<asrwt>0</asrwt>
<pdfrwt beam="2">  1        1 0.42235083E-02 0.91226295E+02</pdfrwt>
<pdfrwt beam="1">  1       -1 0.11659502E-01 0.91226295E+02</pdfrwt>
<totfact> 0.85302713E+04</totfact>
</mgrwt>
</event>
<event>
 7    1  0.3345055E-009  0.1020969E+03  0.7818608E-02  0.1275947E+00
          1   -1    0    0  501    0  0.00000000000E+00  0.00000000000E+00  0.16627398947E+03  0.16627398955E+03  0.50400000000E-02 0.  1.
         -1   -1    0    0    0  501 -0.00000000000E+00 -0.00000000000E+00 -0.15672605558E+02  0.15672606368E+02  0.50400000000E-02 0. -1.
         23    2    1    2    0    0  0.00000000000E+00  0.00000000000E+00  0.15060138392E+03  0.18194659592E+03  0.10209694868E+03 0.  0.
    9000005    2    3    3    0    0 -0.28987281689E+02 -0.27087855726E+02  0.13125097808E+03  0.13780531554E+03  0.13764858028E+02 0.  0.
         22    1    3    3    0    0  0.28987281689E+02  0.27087855726E+02  0.19350405837E+02  0.44141280380E+02  0.00000000000E+00 0. -1.
         22    1    4    4    0    0 -0.59374531020E+01 -0.10617598630E+02  0.24425181108E+02  0.27286924014E+02  0.00000000000E+00 0. -1.
         22    1    4    4    0    0 -0.23049828587E+02 -0.16470257096E+02  0.10682579697E+03  0.11051839152E+03  0.00000000000E+00 0. -1.
<mgrwt>
<rscale>  0 0.10209695E+03</rscale>
<asrwt>0</asrwt>
<pdfrwt beam="1">  1        1 0.25580613E-01 0.10209695E+03</pdfrwt>
<pdfrwt beam="2">  1       -1 0.24111702E-02 0.10209695E+03</pdfrwt>
<totfact> 0.84112895E+04</totfact>
</mgrwt>
</event>
<event>
 7    1  0.3345055E-009  0.9113885E+02  0.7818608E-02  0.1300117E+00
          1   -1    0    0  501    0  0.00000000000E+00  0.00000000000E+00  0.20041981152E+03  0.20041981158E+03  0.50400000000E-02 0. -1.
         -1   -1    0    0    0  501 -0.00000000000E+00 -0.00000000000E+00 -0.10361113105E+02  0.10361114331E+02  0.50400000000E-02 0.  1.
         23    2    1    2    0    0  0.00000000000E+00  0.00000000000E+00  0.19005869842E+03  0.21078092592E+03  0.91138849488E+02 0.  0.
    9000005    2    3    3    0    0 -0.19356706616E+02  0.13560966889E+02  0.18502330440E+03  0.18661613527E+03  0.57772709182E+01 0.  0.
         22    1    3    3    0    0  0.19356706616E+02 -0.13560966889E+02  0.50353940196E+01  0.24164790645E+02  0.00000000000E+00 0.  1.
         22    1    4    4    0    0 -0.44144910759E+01  0.56811384181E+01  0.68066725014E+02  0.68445906519E+02  0.00000000000E+00 0. -1.
         22    1    4    4    0    0 -0.14942215540E+02  0.78798284710E+01  0.11695657938E+03  0.11817022875E+03  0.00000000000E+00 0. -1.
<mgrwt>
<rscale>  0 0.91138849E+02</rscale>
<asrwt>0</asrwt>
<pdfrwt beam="1">  1        1 0.30833815E-01 0.91138849E+02</pdfrwt>
<pdfrwt beam="2">  1       -1 0.15940176E-02 0.91138849E+02</pdfrwt>
<totfact> 0.11858675E+05</totfact>
</mgrwt>
</event>
<event>
 7    1  0.3345055E-009  0.9022649E+02  0.7818608E-02  0.1302304E+00
         -1   -1    0    0    0  501 -0.00000000000E+00  0.00000000000E+00  0.10825025391E+02  0.10825026565E+02  0.50400000000E-02 0.  1.
          1   -1    0    0  501    0  0.00000000000E+00 -0.00000000000E+00 -0.18800922096E+03  0.18800922103E+03  0.50400000000E-02 0. -1.
         23    2    1    2    0    0 -0.71054273576E-14 -0.17763568394E-14 -0.17718419557E+03  0.19883424759E+03  0.90226486446E+02 0.  0.
    9000005    2    3    3    0    0 -0.42437897683E+02 -0.13103830354E+02 -0.92128476474E+02  0.10288029572E+03  0.11136136667E+02 0.  0.
         22    1    3    3    0    0  0.42437897683E+02  0.13103830354E+02 -0.85055719097E+02  0.95953951877E+02  0.00000000000E+00 0.  1.
         22    1    4    4    0    0 -0.56347099381E+01 -0.56798523342E+01 -0.12445662523E+02  0.14795445051E+02  0.00000000000E+00 0.  1.
         22    1    4    4    0    0 -0.36803187745E+02 -0.74239780197E+01 -0.79682813951E+02  0.88084850666E+02  0.00000000000E+00 0.  1.
<mgrwt>
<rscale>  0 0.90226486E+02</rscale>
<asrwt>0</asrwt>
<pdfrwt beam="2">  1        1 0.28924493E-01 0.90226486E+02</pdfrwt>
<pdfrwt beam="1">  1       -1 0.16653888E-02 0.90226486E+02</pdfrwt>
<totfact> 0.12033392E+05</totfact>
</mgrwt>
</event>
<event>
 7    1  0.3345055E-009  0.9144566E+02  0.7818608E-02  0.1299388E+00
          1   -1    0    0  501    0  0.00000000000E+00  0.00000000000E+00  0.75766979776E+02  0.75766979944E+02  0.50400000000E-02 0. -1.
         -1   -1    0    0    0  501 -0.00000000000E+00 -0.00000000000E+00 -0.27592193034E+02  0.27592193495E+02  0.50400000000E-02 0.  1.
         23    2    1    2    0    0  0.00000000000E+00  0.00000000000E+00  0.48174786742E+02  0.10335917344E+03  0.91445659581E+02 0.  0.
    9000005    2    3    3    0    0 -0.45306708466E+01 -0.26240006398E+02 -0.15710037768E+02  0.34146922234E+02  0.14496278740E+02 0.  0.
         22    1    3    3    0    0  0.45306708466E+01  0.26240006398E+02  0.63884824509E+02  0.69212251204E+02  0.00000000000E+00 0. -1.
         22    1    4    4    0    0  0.15677460567E+01 -0.22388649373E+02 -0.14783484671E+02  0.26874911487E+02  0.00000000000E+00 0.  1.
         22    1    4    4    0    0 -0.60984169033E+01 -0.38513570256E+01 -0.92655309724E+00  0.72720107472E+01  0.00000000000E+00 0.  1.
<mgrwt>
<rscale>  0 0.91445660E+02</rscale>
<asrwt>0</asrwt>
<pdfrwt beam="1">  1        1 0.11656458E-01 0.91445660E+02</pdfrwt>
<pdfrwt beam="2">  1       -1 0.42449528E-02 0.91445660E+02</pdfrwt>
<totfact> 0.99081531E+04</totfact>
</mgrwt>
</event>
<event>
 7    1  0.3345055E-009  0.8209893E+02  0.7818608E-02  0.1323198E+00
          1   -1    0    0  501    0  0.00000000000E+00  0.00000000000E+00  0.36656319534E+02  0.36656319881E+02  0.50400000000E-02 0. -1.
         -1   -1    0    0    0  501 -0.00000000000E+00 -0.00000000000E+00 -0.45969113981E+02  0.45969114257E+02  0.50400000000E-02 0.  1.
         23    2    1    2    0    0  0.00000000000E+00  0.00000000000E+00 -0.93127944469E+01  0.82625434138E+02  0.82098929506E+02 0.  0.
    9000005    2    3    3    0    0 -0.33263283069E+00  0.19856623928E+02 -0.39312365059E+02  0.46648074656E+02  0.15368300628E+02 0.  0.
         22    1    3    3    0    0  0.33263283069E+00 -0.19856623928E+02  0.29999570612E+02  0.35977359482E+02  0.00000000000E+00 0. -1.
         22    1    4    4    0    0  0.37129386931E+01  0.19115179129E+02 -0.37282722477E+02  0.42061590343E+02  0.00000000000E+00 0.  1.
         22    1    4    4    0    0 -0.40455715238E+01  0.74144479855E+00 -0.20296425817E+01  0.45864843130E+01  0.00000000000E+00 0.  1.
<mgrwt>
<rscale>  0 0.82098930E+02</rscale>
<asrwt>0</asrwt>
<pdfrwt beam="1">  1        1 0.56394338E-02 0.82098930E+02</pdfrwt>
<pdfrwt beam="2">  1       -1 0.70721714E-02 0.82098930E+02</pdfrwt>
<totfact> 0.12012129E+05</totfact>
</mgrwt>
</event>
<event>
 7    1  0.3345055E-009  0.8875161E+02  0.7818608E-02  0.1305903E+00
         -1   -1    0    0    0  501 -0.00000000000E+00  0.00000000000E+00  0.90298046877E+02  0.90298047018E+02  0.50400000000E-02 0.  1.
          1   -1    0    0  501    0  0.00000000000E+00 -0.00000000000E+00 -0.21807915337E+02  0.21807915919E+02  0.50400000000E-02 0. -1.
         23    2    1    2    0    0  0.00000000000E+00  0.00000000000E+00  0.68490131540E+02  0.11210596294E+03  0.88751612986E+02 0.  0.
    9000005    2    3    3    0    0 -0.95039448609E+00 -0.17180723806E+02 -0.15437356945E+02  0.26432724154E+02  0.12817815594E+02 0.  0.
         22    1    3    3    0    0  0.95039448609E+00  0.17180723806E+02  0.83927488485E+02  0.85673238783E+02  0.00000000000E+00 0.  1.
         22    1    4    4    0    0 -0.22487680821E+01 -0.60848879308E+01 -0.13658073985E+02  0.15120377112E+02  0.00000000000E+00 0.  1.
         22    1    4    4    0    0  0.12983735960E+01 -0.11095835875E+02 -0.17792829599E+01  0.11312347042E+02  0.00000000000E+00 0.  1.
<mgrwt>
<rscale>  0 0.88751613E+02</rscale>
<asrwt>0</asrwt>
<pdfrwt beam="2">  1        1 0.33550640E-02 0.88751613E+02</pdfrwt>
<pdfrwt beam="1">  1       -1 0.13892007E-01 0.88751613E+02</pdfrwt>
<totfact> 0.88829078E+04</totfact>
</mgrwt>
</event>
<event>
 7    1  0.3345055E-009  0.9253265E+02  0.7818608E-02  0.1296832E+00
         -1   -1    0    0    0  501 -0.00000000000E+00  0.00000000000E+00  0.37547930784E+02  0.37547931122E+02  0.50400000000E-02 0.  1.
          1   -1    0    0  501    0  0.00000000000E+00 -0.00000000000E+00 -0.57009074716E+02  0.57009074939E+02  0.50400000000E-02 0. -1.
         23    2    1    2    0    0  0.35527136788E-14  0.00000000000E+00 -0.19461143932E+02  0.94557006062E+02  0.92532649763E+02 0.  0.
    9000005    2    3    3    0    0  0.30477410688E+02 -0.12579386178E+02  0.23222539327E+02  0.40621764008E+02  0.48711250723E+01 0.  0.
         22    1    3    3    0    0 -0.30477410688E+02  0.12579386178E+02 -0.42683683259E+02  0.53935242054E+02  0.00000000000E+00 0. -1.
         22    1    4    4    0    0  0.30019047386E+02 -0.12580859134E+02  0.21921894406E+02  0.39242714953E+02  0.00000000000E+00 0. -1.
         22    1    4    4    0    0  0.45836330138E+00  0.14729552958E-02  0.13006449211E+01  0.13790490551E+01  0.00000000000E+00 0. -1.
<mgrwt>
<rscale>  0 0.92532650E+02</rscale>
<asrwt>0</asrwt>
<pdfrwt beam="2">  1        1 0.87706269E-02 0.92532650E+02</pdfrwt>
<pdfrwt beam="1">  1       -1 0.57766048E-02 0.92532650E+02</pdfrwt>
<totfact> 0.91778226E+04</totfact>
</mgrwt>
</event>
<event>
 7    1  0.3345055E-009  0.9070643E+02  0.7818608E-02  0.1301150E+00
         -1   -1    0    0    0  501 -0.00000000000E+00  0.00000000000E+00  0.12883489397E+01  0.12883587978E+01  0.50400000000E-02 0.  1.
          1   -1    0    0  501    0  0.00000000000E+00 -0.00000000000E+00 -0.15965444667E+04  0.15965444667E+04  0.50400000000E-02 0. -1.
         23    2    1    2    0    0 -0.22204460493E-15  0.00000000000E+00 -0.15952561178E+04  0.15978328255E+04  0.90706433134E+02 0.  0.
    9000005    2    3    3    0    0 -0.10316618463E+01 -0.11049748359E+02 -0.15722366650E+04  0.15722778559E+04  0.25227373916E+01 0.  0.
         22    1    3    3    0    0  0.10316618463E+01  0.11049748359E+02 -0.23019452799E+02  0.25554969617E+02  0.00000000000E+00 0.  1.
         22    1    4    4    0    0 -0.67705926522E+00 -0.18640364450E+01 -0.18213569123E+03  0.18214648792E+03  0.00000000000E+00 0.  1.
         22    1    4    4    0    0 -0.35460258113E+00 -0.91857119143E+01 -0.13901009737E+04  0.13901313680E+04  0.00000000000E+00 0.  1.
<mgrwt>
<rscale>  0 0.90706433E+02</rscale>
<asrwt>0</asrwt>
<pdfrwt beam="2">  1        1 0.24562064E+00 0.90706433E+02</pdfrwt>
<pdfrwt beam="1">  1       -1 0.19820957E-03 0.90706433E+02</pdfrwt>
<totfact> 0.10605927E+05</totfact>
</mgrwt>
</event>
<event>
 7    1  0.3345055E-009  0.9306506E+02  0.7818608E-02  0.1295594E+00
         -1   -1    0    0    0  501 -0.00000000000E+00  0.00000000000E+00  0.12520531305E+03  0.12520531315E+03  0.50400000000E-02 0.  1.
          1   -1    0    0  501    0  0.00000000000E+00 -0.00000000000E+00 -0.17293806409E+02  0.17293807143E+02  0.50400000000E-02 0. -1.
         23    2    1    2    0    0  0.35527136788E-14  0.00000000000E+00  0.10791150664E+03  0.14249912030E+03  0.93065063367E+02 0.  0.
    9000005    2    3    3    0    0 -0.17443578279E+02  0.35589674194E+02  0.89318573922E+02  0.98720124425E+02  0.14033958339E+02 0.  0.
         22    1    3    3    0    0  0.17443578279E+02 -0.35589674194E+02  0.18592932722E+02  0.43778995872E+02  0.00000000000E+00 0. -1.
         22    1    4    4    0    0 -0.18347231512E+02  0.23888375718E+02  0.68300429140E+02  0.74647330959E+02  0.00000000000E+00 0. -1.
         22    1    4    4    0    0  0.90365323249E+00  0.11701298476E+02  0.21018144782E+02  0.24072793466E+02  0.00000000000E+00 0. -1.
<mgrwt>
<rscale>  0 0.93065063E+02</rscale>
<asrwt>0</asrwt>
<pdfrwt beam="2">  1        1 0.26605856E-02 0.93065063E+02</pdfrwt>
<pdfrwt beam="1">  1       -1 0.19262356E-01 0.93065063E+02</pdfrwt>
<totfact> 0.73816732E+04</totfact>
</mgrwt>
</event>
<event>
 7    1  0.3345055E-009  0.9034483E+02  0.7818608E-02  0.1302019E+00
         -1   -1    0    0    0  501 -0.00000000000E+00  0.00000000000E+00  0.38902983738E+02  0.38902984064E+02  0.50400000000E-02 0.  1.
          1   -1    0    0  501    0  0.00000000000E+00 -0.00000000000E+00 -0.52452199396E+02  0.52452199638E+02  0.50400000000E-02 0. -1.
         23    2    1    2    0    0  0.00000000000E+00  0.00000000000E+00 -0.13549215658E+02  0.91355183703E+02  0.90344830203E+02 0.  0.
    9000005    2    3    3    0    0 -0.43096247797E+02 -0.70897806738E+01 -0.68577881980E+00  0.45824759024E+02  0.13852316876E+02 0.  0.
         22    1    3    3    0    0  0.43096247797E+02  0.70897806738E+01 -0.12863436839E+02  0.45530424679E+02  0.00000000000E+00 0. -1.
         22    1    4    4    0    0 -0.17841064668E+02  0.26110638290E+00 -0.63120395248E+01  0.18926531853E+02  0.00000000000E+00 0.  1.
         22    1    4    4    0    0 -0.25255183129E+02 -0.73508870567E+01  0.56262607050E+01  0.26898227171E+02  0.00000000000E+00 0.  1.
<mgrwt>
<rscale>  0 0.90344830E+02</rscale>
<asrwt>0</asrwt>
<pdfrwt beam="2">  1        1 0.80695692E-02 0.90344830E+02</pdfrwt>
<pdfrwt beam="1">  1       -1 0.59850745E-02 0.90344830E+02</pdfrwt>
<totfact> 0.96882496E+04</totfact>
</mgrwt>
</event>
<event>
 7    1  0.3345055E-009  0.9097023E+02  0.7818608E-02  0.1300519E+00
          1   -1    0    0  501    0  0.00000000000E+00  0.00000000000E+00  0.32858181632E+02  0.32858182018E+02  0.50400000000E-02 0. -1.
         -1   -1    0    0    0  501 -0.00000000000E+00 -0.00000000000E+00 -0.62964403870E+02  0.62964404071E+02  0.50400000000E-02 0.  1.
         23    2    1    2    0    0  0.71054273576E-14  0.00000000000E+00 -0.30106222238E+02  0.95822586090E+02  0.90970233524E+02 0.  0.
    9000005    2    3    3    0    0  0.30457813929E+02  0.29352323663E+02  0.18046762867E+00  0.43798352152E+02  0.11358950168E+02 0.  0.
         22    1    3    3    0    0 -0.30457813929E+02 -0.29352323663E+02 -0.30286689866E+02  0.52024233938E+02  0.00000000000E+00 0.  1.
         22    1    4    4    0    0  0.49495575594E+01  0.31934685459E+01  0.39122430191E+01  0.70712097146E+01  0.00000000000E+00 0. -1.
         22    1    4    4    0    0  0.25508256370E+02  0.26158855117E+02 -0.37317753904E+01  0.36727142437E+02  0.00000000000E+00 0. -1.
<mgrwt>
<rscale>  0 0.90970234E+02</rscale>
<asrwt>0</asrwt>
<pdfrwt beam="1">  1        1 0.50551049E-02 0.90970234E+02</pdfrwt>
<pdfrwt beam="2">  1       -1 0.96868314E-02 0.90970234E+02</pdfrwt>
<totfact> 0.88522404E+04</totfact>
</mgrwt>
</event>
<event>
 7    1  0.3345055E-009  0.9529742E+02  0.7818608E-02  0.1290508E+00
          1   -1    0    0  501    0  0.00000000000E+00  0.00000000000E+00  0.13883195795E+04  0.13883195795E+04  0.50400000000E-02 0.  1.
         -1   -1    0    0    0  501 -0.00000000000E+00 -0.00000000000E+00 -0.16353542455E+01  0.16353620119E+01  0.50400000000E-02 0. -1.
         23    2    1    2    0    0  0.00000000000E+00 -0.17763568394E-14  0.13866842252E+04  0.13899549415E+04  0.95297423308E+02 0.  0.
    9000005    2    3    3    0    0  0.28738366180E+02 -0.11926950412E+02  0.12177352028E+04  0.12181646099E+04  0.88230908382E+01 0.  0.
         22    1    3    3    0    0 -0.28738366180E+02  0.11926950412E+02  0.16894902245E+03  0.17179033157E+03  0.00000000000E+00 0. -1.
         22    1    4    4    0    0  0.17559743732E+01 -0.27326231401E+01  0.21420278112E+03  0.21422740748E+03  0.00000000000E+00 0.  1.
         22    1    4    4    0    0  0.26982391807E+02 -0.91943272717E+01  0.10035324217E+04  0.10039372024E+04  0.00000000000E+00 0.  1.
<mgrwt>
<rscale>  0 0.95297423E+02</rscale>
<asrwt>0</asrwt>
<pdfrwt beam="1">  1        1 0.21358856E+00 0.95297423E+02</pdfrwt>
<pdfrwt beam="2">  1       -1 0.25159246E-03 0.95297423E+02</pdfrwt>
<totfact> 0.10415668E+05</totfact>
</mgrwt>
</event>
<event>
 7    1  0.3441647E-009  0.8910694E+02  0.7818608E-02  0.1305029E+00
          1   -1    0    0  501    0  0.00000000000E+00  0.00000000000E+00  0.16524861856E+03  0.16524861863E+03  0.50400000000E-02 0. -1.
         -1   -1    0    0    0  501 -0.00000000000E+00 -0.00000000000E+00 -0.12012273947E+02  0.12012275005E+02  0.50400000000E-02 0.  1.
         23    2    1    2    0    0  0.00000000000E+00  0.00000000000E+00  0.15323634461E+03  0.17726089364E+03  0.89106941953E+02 0.  0.
    9000005    2    3    3    0    0 -0.25761885945E+02  0.26700553711E+02  0.34675855473E+02  0.53030527302E+02  0.15271788932E+02 0.  0.
         22    1    3    3    0    0  0.25761885945E+02 -0.26700553711E+02  0.11856048914E+03  0.12423036634E+03  0.00000000000E+00 0. -1.
         22    1    4    4    0    0 -0.12854446517E+02  0.21396120190E+02  0.28158111600E+02  0.37628579608E+02  0.00000000000E+00 0.  1.
         22    1    4    4    0    0 -0.12907439428E+02  0.53044335206E+01  0.65177438733E+01  0.15401947693E+02  0.00000000000E+00 0.  1.
<mgrwt>
<rscale>  0 0.89106942E+02</rscale>
<asrwt>0</asrwt>
<pdfrwt beam="1">  1        1 0.25422864E-01 0.89106942E+02</pdfrwt>
<pdfrwt beam="2">  1       -1 0.18480423E-02 0.89106942E+02</pdfrwt>
<totfact> 0.12143068E+05</totfact>
</mgrwt>
</event>
<event>
 7    1  0.3345055E-009  0.9098623E+02  0.7818608E-02  0.1300481E+00
         -1   -1    0    0    0  501 -0.00000000000E+00  0.00000000000E+00  0.20257426670E+03  0.20257426677E+03  0.50400000000E-02 0.  1.
          1   -1    0    0  501    0  0.00000000000E+00 -0.00000000000E+00 -0.10216615607E+02  0.10216616850E+02  0.50400000000E-02 0. -1.
         23    2    1    2    0    0  0.00000000000E+00  0.00000000000E+00  0.19235765110E+03  0.21279088362E+03  0.90986230908E+02 0.  0.
    9000005    2    3    3    0    0 -0.17875497509E+02  0.26482049848E+02  0.24929197512E+02  0.42341127251E+02  0.12266775981E+02 0.  0.
         22    1    3    3    0    0  0.17875497509E+02 -0.26482049848E+02  0.16742845358E+03  0.17044975637E+03  0.00000000000E+00 0.  1.
         22    1    4    4    0    0 -0.12761303100E+02  0.14188786484E+02  0.77275764225E+01  0.20588539435E+02  0.00000000000E+00 0. -1.
         22    1    4    4    0    0 -0.51141944088E+01  0.12293263364E+02  0.17201621090E+02  0.21752587816E+02  0.00000000000E+00 0. -1.
<mgrwt>
<rscale>  0 0.90986231E+02</rscale>
<asrwt>0</asrwt>
<pdfrwt beam="2">  1        1 0.15717873E-02 0.90986231E+02</pdfrwt>
<pdfrwt beam="1">  1       -1 0.31165269E-01 0.90986231E+02</pdfrwt>
<totfact> 0.69548263E+04</totfact>
</mgrwt>
</event>
<event>
 7    1  0.3345055E-009  0.9309012E+02  0.7818608E-02  0.1295536E+00
         -1   -1    0    0    0  501 -0.00000000000E+00  0.00000000000E+00  0.44528040096E+01  0.44528068619E+01  0.50400000000E-02 0.  1.
          1   -1    0    0  501    0  0.00000000000E+00 -0.00000000000E+00 -0.48653430188E+03  0.48653430191E+03  0.50400000000E-02 0. -1.
         23    2    1    2    0    0  0.00000000000E+00  0.00000000000E+00 -0.48208149787E+03  0.49098710877E+03  0.93090119708E+02 0.  0.
    9000005    2    3    3    0    0 -0.42306366103E+02 -0.66475665417E+01 -0.33110534752E+03  0.33405458592E+03  0.11300285923E+02 0.  0.
         22    1    3    3    0    0  0.42306366103E+02  0.66475665417E+01 -0.15097615035E+03  0.15693252285E+03  0.00000000000E+00 0.  1.
         22    1    4    4    0    0 -0.42737196002E+02 -0.63678709436E+01 -0.31599463171E+03  0.31893514226E+03  0.00000000000E+00 0. -1.
         22    1    4    4    0    0  0.43082989899E+00 -0.27969559813E+00 -0.15110715810E+02  0.15119443652E+02  0.00000000000E+00 0. -1.
<mgrwt>
<rscale>  0 0.93090120E+02</rscale>
<asrwt>0</asrwt>
<pdfrwt beam="2">  1        1 0.74851389E-01 0.93090120E+02</pdfrwt>
<pdfrwt beam="1">  1       -1 0.68504738E-03 0.93090120E+02</pdfrwt>
<totfact> 0.13135954E+05</totfact>
</mgrwt>
</event>
<event>
 7    1  0.3345055E-009  0.8794597E+02  0.7818608E-02  0.1307903E+00
         -1   -1    0    0    0  501 -0.00000000000E+00  0.00000000000E+00  0.80788116890E+02  0.80788117047E+02  0.50400000000E-02 0.  1.
          1   -1    0    0  501    0  0.00000000000E+00 -0.00000000000E+00 -0.23934503234E+02  0.23934503765E+02  0.50400000000E-02 0. -1.
         23    2    1    2    0    0  0.17763568394E-14  0.00000000000E+00  0.56853613656E+02  0.10472262081E+03  0.87945971619E+02 0.  0.
    9000005    2    3    3    0    0 -0.12961139803E+02  0.13800352741E+02 -0.18235226857E+02  0.27283774937E+02  0.73102664478E+01 0.  0.
         22    1    3    3    0    0  0.12961139803E+02 -0.13800352741E+02  0.75088840513E+02  0.77438845875E+02  0.00000000000E+00 0.  1.
         22    1    4    4    0    0 -0.96172259521E+01  0.59645852119E+01 -0.13202398516E+02  0.17388807847E+02  0.00000000000E+00 0. -1.
         22    1    4    4    0    0 -0.33439138510E+01  0.78357675287E+01 -0.50328283409E+01  0.98949670902E+01  0.00000000000E+00 0. -1.
<mgrwt>
<rscale>  0 0.87945972E+02</rscale>
<asrwt>0</asrwt>
<pdfrwt beam="2">  1        1 0.36822313E-02 0.87945972E+02</pdfrwt>
<pdfrwt beam="1">  1       -1 0.12428941E-01 0.87945972E+02</pdfrwt>
<totfact> 0.92677996E+04</totfact>
</mgrwt>
</event>
<event>
 7    1  0.3345055E-009  0.9101577E+02  0.7818608E-02  0.1300410E+00
          1   -1    0    0  501    0  0.00000000000E+00  0.00000000000E+00  0.21712378587E+02  0.21712379172E+02  0.50400000000E-02 0. -1.
         -1   -1    0    0    0  501 -0.00000000000E+00 -0.00000000000E+00 -0.95381876795E+02  0.95381876928E+02  0.50400000000E-02 0.  1.
         23    2    1    2    0    0  0.17763568394E-14  0.00000000000E+00 -0.73669498208E+02  0.11709425610E+03  0.91015767016E+02 0.  0.
    9000005    2    3    3    0    0 -0.97234604754E+01  0.37662706880E+02 -0.65121103758E+02  0.77268382339E+02  0.14718001953E+02 0.  0.
         22    1    3    3    0    0  0.97234604754E+01 -0.37662706880E+02 -0.85483944497E+01  0.39825873761E+02  0.00000000000E+00 0.  1.
         22    1    4    4    0    0  0.13842717471E+01  0.92726509574E+01 -0.26214903690E+02  0.27840966929E+02  0.00000000000E+00 0.  1.
         22    1    4    4    0    0 -0.11107732222E+02  0.28390055923E+02 -0.38906200068E+02  0.49427415410E+02  0.00000000000E+00 0.  1.
<mgrwt>
<rscale>  0 0.91015767E+02</rscale>
<asrwt>0</asrwt>
<pdfrwt beam="1">  1        1 0.33403660E-02 0.91015767E+02</pdfrwt>
<pdfrwt beam="2">  1       -1 0.14674135E-01 0.91015767E+02</pdfrwt>
<totfact> 0.82455799E+04</totfact>
</mgrwt>
</event>
<event>
 7    1  0.3345055E-009  0.9664168E+02  0.7818608E-02  0.1287521E+00
          1   -1    0    0  501    0  0.00000000000E+00  0.00000000000E+00  0.21684042256E+02  0.21684042842E+02  0.50400000000E-02 0. -1.
         -1   -1    0    0    0  501 -0.00000000000E+00 -0.00000000000E+00 -0.10767843117E+03  0.10767843129E+03  0.50400000000E-02 0.  1.
         23    2    1    2    0    0 -0.11102230246E-15  0.17763568394E-14 -0.85994388918E+02  0.12936247413E+03  0.96641682460E+02 0.  0.
    9000005    2    3    3    0    0 -0.86616823950E+00  0.11445653323E+02 -0.10535058805E+03  0.10685879283E+03  0.13722316699E+02 0.  0.
         22    1    3    3    0    0  0.86616823950E+00 -0.11445653323E+02  0.19356199131E+02  0.22503681303E+02  0.00000000000E+00 0. -1.
         22    1    4    4    0    0 -0.27506486675E+01  0.12004910476E+02 -0.50757746444E+02  0.52230573112E+02  0.00000000000E+00 0. -1.
         22    1    4    4    0    0  0.18844804280E+01 -0.55925715313E+00 -0.54592841605E+02  0.54628219718E+02  0.00000000000E+00 0. -1.
<mgrwt>
<rscale>  0 0.96641682E+02</rscale>
<asrwt>0</asrwt>
<pdfrwt beam="1">  1        1 0.33360066E-02 0.96641682E+02</pdfrwt>
<pdfrwt beam="2">  1       -1 0.16565912E-01 0.96641682E+02</pdfrwt>
<totfact> 0.69032860E+04</totfact>
</mgrwt>
</event>
<event>
 7    1  0.3345055E-009  0.9144312E+02  0.7818608E-02  0.1299394E+00
         -1   -1    0    0    0  501 -0.00000000000E+00  0.00000000000E+00  0.44700848529E+01  0.44700876941E+01  0.50400000000E-02 0.  1.
          1   -1    0    0  501    0  0.00000000000E+00 -0.00000000000E+00 -0.46765560294E+03  0.46765560297E+03  0.50400000000E-02 0. -1.
         23    2    1    2    0    0  0.00000000000E+00  0.00000000000E+00 -0.46318551809E+03  0.47212569066E+03  0.91443116836E+02 0.  0.
    9000005    2    3    3    0    0  0.32613702746E+02  0.26326975559E+02 -0.31413265329E+03  0.31729184503E+03  0.15428149926E+02 0.  0.
         22    1    3    3    0    0 -0.32613702746E+02 -0.26326975559E+02 -0.14905286479E+03  0.15483384563E+03  0.00000000000E+00 0.  1.
         22    1    4    4    0    0  0.27239981281E+01  0.10447430693E+02 -0.80145727720E+02  0.80869689288E+02  0.00000000000E+00 0. -1.
         22    1    4    4    0    0  0.29889704618E+02  0.15879544867E+02 -0.23398692557E+03  0.23642215575E+03  0.00000000000E+00 0. -1.
<mgrwt>
<rscale>  0 0.91443117E+02</rscale>
<asrwt>0</asrwt>
<pdfrwt beam="2">  1        1 0.71946977E-01 0.91443117E+02</pdfrwt>
<pdfrwt beam="1">  1       -1 0.68770595E-03 0.91443117E+02</pdfrwt>
<totfact> 0.13702817E+05</totfact>
</mgrwt>
</event>
<event>
 7    1  0.3345055E-009  0.9024419E+02  0.7818608E-02  0.1302261E+00
          1   -1    0    0  501    0  0.00000000000E+00  0.00000000000E+00  0.20010135069E+02  0.20010135704E+02  0.50400000000E-02 0. -1.
         -1   -1    0    0    0  501 -0.00000000000E+00 -0.00000000000E+00 -0.10174860034E+03  0.10174860046E+03  0.50400000000E-02 0.  1.
         23    2    1    2    0    0  0.00000000000E+00  0.00000000000E+00 -0.81738465269E+02  0.12175873617E+03  0.90244186119E+02 0.  0.
    9000005    2    3    3    0    0 -0.40211001424E+02  0.16821886514E+02 -0.54483234515E+02  0.70351070349E+02  0.89972081600E+01 0.  0.
         22    1    3    3    0    0  0.40211001424E+02 -0.16821886514E+02 -0.27255230754E+02  0.51407665818E+02  0.00000000000E+00 0. -1.
         22    1    4    4    0    0 -0.13191133385E+02  0.21770919310E+01 -0.21062612711E+02  0.24947532613E+02  0.00000000000E+00 0. -1.
         22    1    4    4    0    0 -0.27019868038E+02  0.14644794583E+02 -0.33420621803E+02  0.45403537735E+02  0.00000000000E+00 0. -1.
<mgrwt>
<rscale>  0 0.90244186E+02</rscale>
<asrwt>0</asrwt>
<pdfrwt beam="1">  1        1 0.30784824E-02 0.90244186E+02</pdfrwt>
<pdfrwt beam="2">  1       -1 0.15653631E-01 0.90244186E+02</pdfrwt>
<totfact> 0.83282711E+04</totfact>
</mgrwt>
</event>
<event>
 7    1  0.3345055E-009  0.9251901E+02  0.7818608E-02  0.1296864E+00
         -1   -1    0    0    0  501 -0.00000000000E+00  0.00000000000E+00  0.55964585585E+02  0.55964585812E+02  0.50400000000E-02 0.  1.
          1   -1    0    0  501    0  0.00000000000E+00 -0.00000000000E+00 -0.38237426426E+02  0.38237426759E+02  0.50400000000E-02 0. -1.
         23    2    1    2    0    0  0.00000000000E+00  0.00000000000E+00  0.17727159159E+02  0.94202012571E+02  0.92519008861E+02 0.  0.
    9000005    2    3    3    0    0 -0.50992493419E+01 -0.34986939946E+02  0.38311925100E+02  0.53289656253E+02  0.11040631688E+02 0.  0.
         22    1    3    3    0    0  0.50992493419E+01  0.34986939946E+02 -0.20584765941E+02  0.40912356318E+02  0.00000000000E+00 0. -1.
         22    1    4    4    0    0 -0.51798791440E+01 -0.73720911598E+01  0.13082861452E+02  0.15885217650E+02  0.00000000000E+00 0. -1.
         22    1    4    4    0    0  0.80629802064E-01 -0.27614848786E+02  0.25229063648E+02  0.37404438603E+02  0.00000000000E+00 0. -1.
<mgrwt>
<rscale>  0 0.92519009E+02</rscale>
<asrwt>0</asrwt>
<pdfrwt beam="2">  1        1 0.58826810E-02 0.92519009E+02</pdfrwt>
<pdfrwt beam="1">  1       -1 0.86099363E-02 0.92519009E+02</pdfrwt>
<totfact> 0.86385480E+04</totfact>
</mgrwt>
</event>
<event>
 7    1  0.3345055E-009  0.9557506E+02  0.7818608E-02  0.1289886E+00
          1   -1    0    0  501    0  0.00000000000E+00  0.00000000000E+00  0.66017422908E+02  0.66017423100E+02  0.50400000000E-02 0. -1.
         -1   -1    0    0    0  501 -0.00000000000E+00 -0.00000000000E+00 -0.34591594648E+02  0.34591595016E+02  0.50400000000E-02 0.  1.
         23    2    1    2    0    0 -0.71054273576E-14  0.00000000000E+00  0.31425828259E+02  0.10060901812E+03  0.95575058694E+02 0.  0.
    9000005    2    3    3    0    0  0.41537548681E+02 -0.84651548085E+01 -0.50039669284E+01  0.44714861232E+02  0.13317369619E+02 0.  0.
         22    1    3    3    0    0 -0.41537548681E+02  0.84651548085E+01  0.36429795188E+02  0.55894156884E+02  0.00000000000E+00 0. -1.
         22    1    4    4    0    0  0.29525991391E+02 -0.10586567545E+02  0.41154951378E+00  0.31369235774E+02  0.00000000000E+00 0. -1.
         22    1    4    4    0    0  0.12011557290E+02  0.21214127368E+01 -0.54155164422E+01  0.13345625458E+02  0.00000000000E+00 0. -1.
<mgrwt>
<rscale>  0 0.95575059E+02</rscale>
<asrwt>0</asrwt>
<pdfrwt beam="1">  1        1 0.10156527E-01 0.95575059E+02</pdfrwt>
<pdfrwt beam="2">  1       -1 0.53217839E-02 0.95575059E+02</pdfrwt>
<totfact> 0.85797089E+04</totfact>
</mgrwt>
</event>
<event>
 7    1  0.3345055E-009  0.8931899E+02  0.7818608E-02  0.1304509E+00
         -1   -1    0    0    0  501 -0.00000000000E+00  0.00000000000E+00  0.25708726194E+02  0.25708726688E+02  0.50400000000E-02 0.  1.
          1   -1    0    0  501    0  0.00000000000E+00 -0.00000000000E+00 -0.77579513117E+02  0.77579513280E+02  0.50400000000E-02 0. -1.
         23    2    1    2    0    0  0.35527136788E-14  0.35527136788E-14 -0.51870786922E+02  0.10328823997E+03  0.89318990030E+02 0.  0.
    9000005    2    3    3    0    0  0.23759770874E+02  0.30700107272E+02 -0.49684674338E+02  0.64406336894E+02  0.13137201742E+02 0.  0.
         22    1    3    3    0    0 -0.23759770874E+02 -0.30700107272E+02 -0.21861125846E+01  0.38881903075E+02  0.00000000000E+00 0.  1.
         22    1    4    4    0    0 -0.42646141653E+00  0.72277625940E+01 -0.77412136155E+01  0.10599472142E+02  0.00000000000E+00 0.  1.
         22    1    4    4    0    0  0.24186232290E+02  0.23472344678E+02 -0.41943460722E+02  0.53806864752E+02  0.00000000000E+00 0.  1.
<mgrwt>
<rscale>  0 0.89318990E+02</rscale>
<asrwt>0</asrwt>
<pdfrwt beam="2">  1        1 0.11935310E-01 0.89318990E+02</pdfrwt>
<pdfrwt beam="1">  1       -1 0.39551887E-02 0.89318990E+02</pdfrwt>
<totfact> 0.10607929E+05</totfact>
</mgrwt>
</event>
<event>
 7    1  0.3345055E-009  0.9603191E+02  0.7818608E-02  0.1288869E+00
          1   -1    0    0  501    0  0.00000000000E+00  0.00000000000E+00  0.93333732293E+02  0.93333732429E+02  0.50400000000E-02 0. -1.
         -1   -1    0    0    0  501 -0.00000000000E+00 -0.00000000000E+00 -0.24702021338E+02  0.24702021852E+02  0.50400000000E-02 0.  1.
         23    2    1    2    0    0  0.00000000000E+00  0.11102230246E-15  0.68631710955E+02  0.11803575428E+03  0.96031908968E+02 0.  0.
    9000005    2    3    3    0    0  0.30129521288E+02 -0.66341090504E+00 -0.11256226308E+02  0.32652438069E+02  0.55902517030E+01 0.  0.
         22    1    3    3    0    0 -0.30129521288E+02  0.66341090504E+00  0.79887937263E+02  0.85383316212E+02  0.00000000000E+00 0. -1.
         22    1    4    4    0    0  0.21790051629E+02 -0.11175531435E+01 -0.54757074981E+01  0.22495302790E+02  0.00000000000E+00 0. -1.
         22    1    4    4    0    0  0.83394696595E+01  0.45414223850E+00 -0.57805188100E+01  0.10157135280E+02  0.00000000000E+00 0. -1.
<mgrwt>
<rscale>  0 0.96031909E+02</rscale>
<asrwt>0</asrwt>
<pdfrwt beam="1">  1        1 0.14359036E-01 0.96031909E+02</pdfrwt>
<pdfrwt beam="2">  1       -1 0.38003110E-02 0.96031909E+02</pdfrwt>
<totfact> 0.89571259E+04</totfact>
</mgrwt>
</event>
<event>
 7    1  0.3345055E-009  0.9405618E+02  0.7818608E-02  0.1293316E+00
          1   -1    0    0  501    0  0.00000000000E+00  0.00000000000E+00  0.67304703313E+02  0.67304703502E+02  0.50400000000E-02 0. -1.
         -1   -1    0    0    0  501 -0.00000000000E+00 -0.00000000000E+00 -0.32860129755E+02  0.32860130141E+02  0.50400000000E-02 0.  1.
         23    2    1    2    0    0  0.00000000000E+00  0.00000000000E+00  0.34444573559E+02  0.10016483364E+03  0.94056181355E+02 0.  0.
    9000005    2    3    3    0    0  0.16757811250E+02 -0.35545631401E+02  0.44720615410E+02  0.59545710244E+02  0.12008398318E+01 0.  0.
         22    1    3    3    0    0 -0.16757811250E+02  0.35545631401E+02 -0.10276041851E+02  0.40619123399E+02  0.00000000000E+00 0.  1.
         22    1    4    4    0    0  0.11839131479E+02 -0.25448343133E+02  0.32723847440E+02  0.43111870682E+02  0.00000000000E+00 0. -1.
         22    1    4    4    0    0  0.49186797704E+01 -0.10097288268E+02  0.11996767970E+02  0.16433839563E+02  0.00000000000E+00 0. -1.
<mgrwt>
<rscale>  0 0.94056181E+02</rscale>
<asrwt>0</asrwt>
<pdfrwt beam="1">  1        1 0.10354570E-01 0.94056181E+02</pdfrwt>
<pdfrwt beam="2">  1       -1 0.50554047E-02 0.94056181E+02</pdfrwt>
<totfact> 0.89978257E+04</totfact>
</mgrwt>
</event>
<event>
 7    1  0.3345055E-009  0.9298276E+02  0.7818608E-02  0.1295785E+00
         -1   -1    0    0    0  501 -0.00000000000E+00  0.00000000000E+00  0.35977880975E+01  0.35977916277E+01  0.50400000000E-02 0.  1.
          1   -1    0    0  501    0  0.00000000000E+00 -0.00000000000E+00 -0.60077117655E+03  0.60077117657E+03  0.50400000000E-02 0. -1.
         23    2    1    2    0    0  0.00000000000E+00  0.00000000000E+00 -0.59717338845E+03  0.60436896819E+03  0.92982761014E+02 0.  0.
    9000005    2    3    3    0    0 -0.44034629960E+02  0.27092360665E+01 -0.37541450874E+03  0.37826414886E+03  0.14188881084E+02 0.  0.
         22    1    3    3    0    0  0.44034629960E+02 -0.27092360665E+01 -0.22175887971E+03  0.22610481933E+03  0.00000000000E+00 0.  1.
         22    1    4    4    0    0 -0.53510539302E+01 -0.57268381451E+00 -0.97835865687E+02  0.97983765796E+02  0.00000000000E+00 0.  1.
         22    1    4    4    0    0 -0.38683576029E+02  0.32819198810E+01 -0.27757864305E+03  0.28028038307E+03  0.00000000000E+00 0.  1.
<mgrwt>
<rscale>  0 0.92982761E+02</rscale>
<asrwt>0</asrwt>
<pdfrwt beam="2">  1        1 0.92426256E-01 0.92982761E+02</pdfrwt>
<pdfrwt beam="1">  1       -1 0.55350661E-03 0.92982761E+02</pdfrwt>
<totfact> 0.13442666E+05</totfact>
</mgrwt>
</event>
<event>
 7    1  0.3345055E-009  0.8984173E+02  0.7818608E-02  0.1303235E+00
         -1   -1    0    0    0  501 -0.00000000000E+00  0.00000000000E+00  0.50907159304E+02  0.50907159554E+02  0.50400000000E-02 0.  1.
          1   -1    0    0  501    0  0.00000000000E+00 -0.00000000000E+00 -0.39638516747E+02  0.39638517067E+02  0.50400000000E-02 0. -1.
         23    2    1    2    0    0  0.00000000000E+00 -0.71054273576E-14  0.11268642557E+02  0.90545676621E+02  0.89841734454E+02 0.  0.
    9000005    2    3    3    0    0  0.69150533823E+01 -0.43254812101E+02  0.10199665103E+02  0.46728563001E+02  0.12677882268E+02 0.  0.
         22    1    3    3    0    0 -0.69150533823E+01  0.43254812101E+02  0.10689774538E+01  0.43817113619E+02  0.00000000000E+00 0. -1.
         22    1    4    4    0    0 -0.31099081116E+01 -0.88098570325E+01 -0.30634678150E+00  0.93476712472E+01  0.00000000000E+00 0.  1.
         22    1    4    4    0    0  0.10024961494E+02 -0.34444955068E+02  0.10506011885E+02  0.37380891754E+02  0.00000000000E+00 0.  1.
<mgrwt>
<rscale>  0 0.89841734E+02</rscale>
<asrwt>0</asrwt>
<pdfrwt beam="2">  1        1 0.60982334E-02 0.89841734E+02</pdfrwt>
<pdfrwt beam="1">  1       -1 0.78318707E-02 0.89841734E+02</pdfrwt>
<totfact> 0.94384724E+04</totfact>
</mgrwt>
</event>
<event>
 7    1  0.3345055E-009  0.9091800E+02  0.7818608E-02  0.1300644E+00
         -1   -1    0    0    0  501 -0.00000000000E+00  0.00000000000E+00  0.32551977628E+02  0.32551978018E+02  0.50400000000E-02 0.  1.
          1   -1    0    0  501    0  0.00000000000E+00 -0.00000000000E+00 -0.63483726551E+02  0.63483726751E+02  0.50400000000E-02 0. -1.
         23    2    1    2    0    0  0.00000000000E+00  0.17763568394E-14 -0.30931748923E+02  0.96035704769E+02  0.90918004262E+02 0.  0.
    9000005    2    3    3    0    0  0.38134663373E+02  0.15601405991E+02  0.40147824391E+01  0.42008707131E+02  0.71383875879E+01 0.  0.
         22    1    3    3    0    0 -0.38134663373E+02 -0.15601405991E+02 -0.34946531363E+02  0.54026997638E+02  0.00000000000E+00 0.  1.
         22    1    4    4    0    0  0.18066576226E+02  0.81958722690E+01 -0.15702411590E+01  0.19900732551E+02  0.00000000000E+00 0.  1.
         22    1    4    4    0    0  0.20068087147E+02  0.74055337225E+01  0.55850235982E+01  0.22107974580E+02  0.00000000000E+00 0.  1.
<mgrwt>
<rscale>  0 0.90918004E+02</rscale>
<asrwt>0</asrwt>
<pdfrwt beam="2">  1        1 0.97667272E-02 0.90918004E+02</pdfrwt>
<pdfrwt beam="1">  1       -1 0.50079966E-02 0.90918004E+02</pdfrwt>
<totfact> 0.97968183E+04</totfact>
</mgrwt>
</event>
<event>
 7    1  0.3345055E-009  0.9284995E+02  0.7818608E-02  0.1296093E+00
         -1   -1    0    0    0  501 -0.00000000000E+00  0.00000000000E+00  0.77226842878E+02  0.77226843043E+02  0.50400000000E-02 0.  1.
          1   -1    0    0  501    0  0.00000000000E+00 -0.00000000000E+00 -0.27908409467E+02  0.27908409922E+02  0.50400000000E-02 0. -1.
         23    2    1    2    0    0  0.00000000000E+00  0.00000000000E+00  0.49318433412E+02  0.10513525296E+03  0.92849951759E+02 0.  0.
    9000005    2    3    3    0    0 -0.44580338716E+02  0.24428704130E+01  0.15921143622E+02  0.49379058858E+02  0.13835982927E+02 0.  0.
         22    1    3    3    0    0  0.44580338716E+02 -0.24428704130E+01  0.33397289790E+02  0.55756194106E+02  0.00000000000E+00 0. -1.
         22    1    4    4    0    0 -0.38913907272E+02 -0.93628247351E+00  0.17369022369E+02  0.42624543893E+02  0.00000000000E+00 0.  1.
         22    1    4    4    0    0 -0.56664314444E+01  0.33791528865E+01 -0.14478787471E+01  0.67545149649E+01  0.00000000000E+00 0.  1.
<mgrwt>
<rscale>  0 0.92849952E+02</rscale>
<asrwt>0</asrwt>
<pdfrwt beam="2">  1        1 0.42936015E-02 0.92849952E+02</pdfrwt>
<pdfrwt beam="1">  1       -1 0.11881053E-01 0.92849952E+02</pdfrwt>
<totfact> 0.81280435E+04</totfact>
</mgrwt>
</event>
<event>
 7    1  0.3345055E-009  0.9207884E+02  0.7818608E-02  0.1297894E+00
          1   -1    0    0  501    0  0.00000000000E+00  0.00000000000E+00  0.84113809901E+01  0.84113825001E+01  0.50400000000E-02 0. -1.
         -1   -1    0    0    0  501 -0.00000000000E+00 -0.00000000000E+00 -0.25199522972E+03  0.25199522977E+03  0.50400000000E-02 0.  1.
         23    2    1    2    0    0  0.00000000000E+00  0.00000000000E+00 -0.24358384873E+03  0.26040661227E+03  0.92078837700E+02 0.  0.
    9000005    2    3    3    0    0 -0.18703622905E+02 -0.37576248811E+02 -0.17221755220E+03  0.17761199732E+03  0.11195370558E+02 0.  0.
         22    1    3    3    0    0  0.18703622905E+02  0.37576248811E+02 -0.71366296533E+02  0.82794614954E+02  0.00000000000E+00 0. -1.
         22    1    4    4    0    0 -0.11370923695E+02 -0.28462194809E+02 -0.14054959005E+03  0.14385263884E+03  0.00000000000E+00 0.  1.
         22    1    4    4    0    0 -0.73326992095E+01 -0.91140540015E+01 -0.31667962153E+02  0.33759358480E+02  0.00000000000E+00 0.  1.
<mgrwt>
<rscale>  0 0.92078838E+02</rscale>
<asrwt>0</asrwt>
<pdfrwt beam="1">  1        1 0.12940589E-02 0.92078838E+02</pdfrwt>
<pdfrwt beam="2">  1       -1 0.38768491E-01 0.92078838E+02</pdfrwt>
<totfact> 0.62949241E+04</totfact>
</mgrwt>
</event>
<event>
 7    1  0.3345055E-009  0.9110300E+02  0.7818608E-02  0.1300202E+00
          1   -1    0    0  501    0  0.00000000000E+00  0.00000000000E+00  0.70551188666E+03  0.70551188668E+03  0.50400000000E-02 0. -1.
         -1   -1    0    0    0  501 -0.00000000000E+00 -0.00000000000E+00 -0.29410383198E+01  0.29410426383E+01  0.50400000000E-02 0.  1.
         23    2    1    2    0    0  0.17763568394E-14  0.17763568394E-14  0.70257084834E+03  0.70845292932E+03  0.91102997313E+02 0.  0.
    9000005    2    3    3    0    0  0.15602562918E+02  0.11064858619E+02  0.67170467233E+03  0.67214050875E+03  0.14826517032E+02 0.  0.
         22    1    3    3    0    0 -0.15602562918E+02 -0.11064858619E+02  0.30866176012E+02  0.36312420567E+02  0.00000000000E+00 0.  1.
         22    1    4    4    0    0  0.73022040611E+01 -0.52014049521E-01  0.41264104222E+03  0.41270565129E+03  0.00000000000E+00 0. -1.
         22    1    4    4    0    0  0.83003588574E+01  0.11116872669E+02  0.25906363012E+03  0.25943485746E+03  0.00000000000E+00 0. -1.
<mgrwt>
<rscale>  0 0.91102997E+02</rscale>
<asrwt>0</asrwt>
<pdfrwt beam="1">  1        1 0.10854029E+00 0.91102997E+02</pdfrwt>
<pdfrwt beam="2">  1       -1 0.45246779E-03 0.91102997E+02</pdfrwt>
<totfact> 0.14246781E+05</totfact>
</mgrwt>
</event>
<event>
 7    1  0.3345055E-009  0.8707999E+02  0.7818608E-02  0.1310081E+00
         -1   -1    0    0    0  501 -0.00000000000E+00  0.00000000000E+00  0.10091303531E+02  0.10091304790E+02  0.50400000000E-02 0.  1.
          1   -1    0    0  501    0  0.00000000000E+00 -0.00000000000E+00 -0.18785790227E+03  0.18785790233E+03  0.50400000000E-02 0. -1.
         23    2    1    2    0    0  0.35527136788E-14  0.11102230246E-15 -0.17776659873E+03  0.19794920712E+03  0.87079991817E+02 0.  0.
    9000005    2    3    3    0    0  0.29248949544E+02 -0.97199991028E+00 -0.16144822980E+03  0.16444196913E+03  0.10917164095E+02 0.  0.
         22    1    3    3    0    0 -0.29248949544E+02  0.97199991028E+00 -0.16318368932E+02  0.33507237992E+02  0.00000000000E+00 0.  1.
         22    1    4    4    0    0  0.11946013398E+02  0.43373163362E+01 -0.53640731154E+02  0.55125743422E+02  0.00000000000E+00 0. -1.
         22    1    4    4    0    0  0.17302936147E+02 -0.53093162465E+01 -0.10780749865E+03  0.10931622571E+03  0.00000000000E+00 0. -1.
<mgrwt>
<rscale>  0 0.87079992E+02</rscale>
<asrwt>0</asrwt>
<pdfrwt beam="2">  1        1 0.28901213E-01 0.87079992E+02</pdfrwt>
<pdfrwt beam="1">  1       -1 0.15525085E-02 0.87079992E+02</pdfrwt>
<totfact> 0.13229805E+05</totfact>
</mgrwt>
</event>
<event>
 7    1  0.3345055E-009  0.9179224E+02  0.7818608E-02  0.1298569E+00
          1   -1    0    0  501    0  0.00000000000E+00  0.00000000000E+00  0.69168922038E+02  0.69168922222E+02  0.50400000000E-02 0. -1.
         -1   -1    0    0    0  501 -0.00000000000E+00 -0.00000000000E+00 -0.30453763890E+02  0.30453764308E+02  0.50400000000E-02 0.  1.
         23    2    1    2    0    0  0.00000000000E+00 -0.71054273576E-14  0.38715158148E+02  0.99622686529E+02  0.91792244775E+02 0.  0.
    9000005    2    3    3    0    0 -0.19206573406E+02 -0.33660105738E+02 -0.39619492748E+01  0.41975217563E+02  0.15630952214E+02 0.  0.
         22    1    3    3    0    0  0.19206573406E+02  0.33660105738E+02  0.42677107423E+02  0.57647468966E+02  0.00000000000E+00 0. -1.
         22    1    4    4    0    0 -0.19900455253E+02 -0.20469418964E+02 -0.34503013286E+01  0.28756387312E+02  0.00000000000E+00 0. -1.
         22    1    4    4    0    0  0.69388184654E+00 -0.13190686774E+02 -0.51164794627E+00  0.13218830251E+02  0.00000000000E+00 0. -1.
<mgrwt>
<rscale>  0 0.91792245E+02</rscale>
<asrwt>0</asrwt>
<pdfrwt beam="1">  1        1 0.10641373E-01 0.91792245E+02</pdfrwt>
<pdfrwt beam="2">  1       -1 0.46851945E-02 0.91792245E+02</pdfrwt>
<totfact> 0.96671750E+04</totfact>
</mgrwt>
</event>
<event>
 7    1  0.3345055E-009  0.9165603E+02  0.7818608E-02  0.1298890E+00
         -1   -1    0    0    0  501 -0.00000000000E+00  0.00000000000E+00  0.28986979520E+02  0.28986979958E+02  0.50400000000E-02 0.  1.
          1   -1    0    0  501    0  0.00000000000E+00 -0.00000000000E+00 -0.72453465759E+02  0.72453465935E+02  0.50400000000E-02 0. -1.
         23    2    1    2    0    0  0.00000000000E+00  0.00000000000E+00 -0.43466486239E+02  0.10144044589E+03  0.91656034373E+02 0.  0.
    9000005    2    3    3    0    0 -0.83030781823E+01 -0.12329346000E+02  0.25779965192E+02  0.30616545154E+02  0.71980797259E+01 0.  0.
         22    1    3    3    0    0  0.83030781823E+01  0.12329346000E+02 -0.69246451431E+02  0.70823900739E+02  0.00000000000E+00 0. -1.
         22    1    4    4    0    0 -0.67329796814E+01 -0.50047202427E+01  0.93652374401E+01  0.12573301571E+02  0.00000000000E+00 0. -1.
         22    1    4    4    0    0 -0.15700985009E+01 -0.73246257575E+01  0.16414727752E+02  0.18043243582E+02  0.00000000000E+00 0. -1.
<mgrwt>
<rscale>  0 0.91656034E+02</rscale>
<asrwt>0</asrwt>
<pdfrwt beam="2">  1        1 0.11146687E-01 0.91656034E+02</pdfrwt>
<pdfrwt beam="1">  1       -1 0.44595354E-02 0.91656034E+02</pdfrwt>
<totfact> 0.97770550E+04</totfact>
</mgrwt>
</event>
<event>
 7    1  0.3345055E-009  0.9446280E+02  0.7818608E-02  0.1292391E+00
         -1   -1    0    0    0  501 -0.00000000000E+00  0.00000000000E+00  0.18801298859E+01  0.18801366412E+01  0.50400000000E-02 0.  1.
          1   -1    0    0  501    0  0.00000000000E+00 -0.00000000000E+00 -0.11865142678E+04  0.11865142678E+04  0.50400000000E-02 0. -1.
         23    2    1    2    0    0  0.00000000000E+00  0.35527136788E-14 -0.11846341379E+04  0.11883944045E+04  0.94462795964E+02 0.  0.
    9000005    2    3    3    0    0 -0.16835444809E+02 -0.24443411723E+02 -0.10518152622E+04  0.10522997083E+04  0.11765104394E+02 0.  0.
         22    1    3    3    0    0  0.16835444809E+02  0.24443411723E+02 -0.13281887568E+03  0.13609469614E+03  0.00000000000E+00 0.  1.
         22    1    4    4    0    0 -0.26614847013E+01 -0.46112385960E+01 -0.79064119619E+02  0.79243182882E+02  0.00000000000E+00 0. -1.
         22    1    4    4    0    0 -0.14173960108E+02 -0.19832173127E+02 -0.97275114262E+03  0.97305652544E+03  0.00000000000E+00 0. -1.
<mgrwt>
<rscale>  0 0.94462796E+02</rscale>
<asrwt>0</asrwt>
<pdfrwt beam="2">  1        1 0.18254006E+00 0.94462796E+02</pdfrwt>
<pdfrwt beam="1">  1       -1 0.28925222E-03 0.94462796E+02</pdfrwt>
<totfact> 0.11651617E+05</totfact>
</mgrwt>
</event>
<event>
 7    1  0.3345055E-009  0.8964397E+02  0.7818608E-02  0.1303716E+00
         -1   -1    0    0    0  501 -0.00000000000E+00  0.00000000000E+00  0.33852953487E+01  0.33852991004E+01  0.50400000000E-02 0.  1.
          1   -1    0    0  501    0  0.00000000000E+00 -0.00000000000E+00 -0.59345174405E+03  0.59345174407E+03  0.50400000000E-02 0. -1.
         23    2    1    2    0    0 -0.35527136788E-14  0.35527136788E-14 -0.59006644870E+03  0.59683704317E+03  0.89643974806E+02 0.  0.
    9000005    2    3    3    0    0  0.26851880585E+02 -0.17181821369E+02 -0.50416193627E+03  0.50520831551E+03  0.63202533375E+01 0.  0.
         22    1    3    3    0    0 -0.26851880585E+02  0.17181821369E+02 -0.85904512433E+02  0.91628727662E+02  0.00000000000E+00 0.  1.
         22    1    4    4    0    0  0.65449447463E+01 -0.67006645580E+01 -0.11827566782E+03  0.11864598099E+03  0.00000000000E+00 0.  1.
         22    1    4    4    0    0  0.20306935839E+02 -0.10481156811E+02 -0.38588626845E+03  0.38656233452E+03  0.00000000000E+00 0.  1.
<mgrwt>
<rscale>  0 0.89643975E+02</rscale>
<asrwt>0</asrwt>
<pdfrwt beam="2">  1        1 0.91300186E-01 0.89643975E+02</pdfrwt>
<pdfrwt beam="1">  1       -1 0.52081543E-03 0.89643975E+02</pdfrwt>
<totfact> 0.14797877E+05</totfact>
</mgrwt>
</event>
<event>
 7    1  0.3345055E-009  0.1035117E+03  0.7818608E-02  0.1273080E+00
          1   -1    0    0  501    0  0.00000000000E+00  0.00000000000E+00  0.11519401163E+02  0.11519402266E+02  0.50400000000E-02 0. -1.
         -1   -1    0    0    0  501 -0.00000000000E+00 -0.00000000000E+00 -0.23253536680E+03  0.23253536686E+03  0.50400000000E-02 0.  1.
         23    2    1    2    0    0  0.00000000000E+00  0.00000000000E+00 -0.22101596564E+03  0.24405476912E+03  0.10351170593E+03 0.  0.
    9000005    2    3    3    0    0 -0.12525537744E+02  0.49305669717E+02 -0.12713540989E+03  0.13727697691E+03  0.96756281132E+01 0.  0.
         22    1    3    3    0    0  0.12525537744E+02 -0.49305669717E+02 -0.93880555745E+02  0.10677779221E+03  0.00000000000E+00 0. -1.
         22    1    4    4    0    0 -0.51479685429E+01  0.37056978287E+02 -0.88664674817E+02  0.96234847017E+02  0.00000000000E+00 0.  1.
         22    1    4    4    0    0 -0.73775692013E+01  0.12248691431E+02 -0.38470735076E+02  0.41042129896E+02  0.00000000000E+00 0.  1.
<mgrwt>
<rscale>  0 0.10351171E+03</rscale>
<asrwt>0</asrwt>
<pdfrwt beam="1">  1        1 0.17722158E-02 0.10351171E+03</pdfrwt>
<pdfrwt beam="2">  1       -1 0.35774668E-01 0.10351171E+03</pdfrwt>
<totfact> 0.47565960E+04</totfact>
</mgrwt>
</event>
<event>
 7    1  0.3345055E-009  0.9365444E+02  0.7818608E-02  0.1294236E+00
         -1   -1    0    0    0  501 -0.00000000000E+00  0.00000000000E+00  0.10105983609E+04  0.10105983609E+04  0.50400000000E-02 0.  1.
          1   -1    0    0  501    0  0.00000000000E+00 -0.00000000000E+00 -0.21697893402E+01  0.21697951937E+01  0.50400000000E-02 0. -1.
         23    2    1    2    0    0  0.00000000000E+00  0.00000000000E+00  0.10084285715E+04  0.10127681561E+04  0.93654439748E+02 0.  0.
    9000005    2    3    3    0    0 -0.15736392620E+02  0.11034977959E+02  0.96557005304E+03  0.96579734175E+03  0.83410558144E+01 0.  0.
         22    1    3    3    0    0  0.15736392620E+02 -0.11034977959E+02  0.42858518478E+02  0.46970814314E+02  0.00000000000E+00 0. -1.
         22    1    4    4    0    0 -0.32104350362E+01 -0.12127513856E+01  0.16202330337E+03  0.16205964487E+03  0.00000000000E+00 0.  1.
         22    1    4    4    0    0 -0.12525957584E+02  0.12247729345E+02  0.80354674967E+03  0.80373769689E+03  0.00000000000E+00 0.  1.
<mgrwt>
<rscale>  0 0.93654440E+02</rscale>
<asrwt>0</asrwt>
<pdfrwt beam="2">  1        1 0.33381375E-03 0.93654440E+02</pdfrwt>
<pdfrwt beam="1">  1       -1 0.15547688E+00 0.93654440E+02</pdfrwt>
<totfact> 0.23593393E+04</totfact>
</mgrwt>
</event>
<event>
 7    1  0.3345055E-009  0.9156121E+02  0.7818608E-02  0.1299114E+00
         -1   -1    0    0    0  501 -0.00000000000E+00  0.00000000000E+00  0.93236894811E+02  0.93236894947E+02  0.50400000000E-02 0.  1.
          1   -1    0    0  501    0  0.00000000000E+00 -0.00000000000E+00 -0.22478908910E+02  0.22478909475E+02  0.50400000000E-02 0. -1.
         23    2    1    2    0    0  0.35527136788E-14  0.00000000000E+00  0.70757985901E+02  0.11571580442E+03  0.91561208076E+02 0.  0.
    9000005    2    3    3    0    0 -0.25812328843E+02 -0.35739516776E+02  0.50873746823E+02  0.67352881192E+02  0.21640492913E+01 0.  0.
         22    1    3    3    0    0  0.25812328843E+02  0.35739516776E+02  0.19884239078E+02  0.48362923230E+02  0.00000000000E+00 0.  1.
         22    1    4    4    0    0 -0.13510866018E+01 -0.12760808262E+01  0.25578094737E+01  0.31616778116E+01  0.00000000000E+00 0. -1.
         22    1    4    4    0    0 -0.24461242241E+02 -0.34463435950E+02  0.48315937350E+02  0.64191203380E+02  0.00000000000E+00 0. -1.
<mgrwt>
<rscale>  0 0.91561208E+02</rscale>
<asrwt>0</asrwt>
<pdfrwt beam="2">  1        1 0.34582937E-02 0.91561208E+02</pdfrwt>
<pdfrwt beam="1">  1       -1 0.14344138E-01 0.91561208E+02</pdfrwt>
<totfact> 0.81532471E+04</totfact>
</mgrwt>
</event>
<event>
 6    1  0.3345055E-009  0.1482464E+03  0.7818608E-02  0.1202644E+00
         -1   -1    0    0    0  501 -0.00000000000E+00  0.00000000000E+00  0.34005541334E+03  0.34005541338E+03  0.50400000000E-02 0. -1.
          1   -1    0    0  501    0  0.00000000000E+00 -0.00000000000E+00 -0.16156931907E+02  0.16156932693E+02  0.50400000000E-02 0.  1.
    9000005    2    1    2    0    0  0.16842568163E+02 -0.59616266618E+02  0.68989953485E+02  0.93884061342E+02  0.14725214575E+02 0.  0.
         22    1    1    2    0    0 -0.16842568163E+02  0.59616266618E+02  0.25490852795E+03  0.26232828473E+03  0.00000000000E+00 0. -1.
         22    1    3    3    0    0  0.15134954595E+02 -0.41093270542E+02  0.39257560307E+02  0.58812241716E+02  0.00000000000E+00 0.  1.
         22    1    3    3    0    0  0.17076135678E+01 -0.18522996076E+02  0.29732393178E+02  0.35071819625E+02  0.00000000000E+00 0.  1.
<mgrwt>
<rscale>  0 0.14824645E+03</rscale>
<asrwt>0</asrwt>
<pdfrwt beam="2">  1        1 0.24856820E-02 0.14824645E+03</pdfrwt>
<pdfrwt beam="1">  1       -1 0.52316215E-01 0.14824645E+03</pdfrwt>
<totfact> 0.15807406E+04</totfact>
</mgrwt>
</event>
<event>
 7    1  0.3345055E-009  0.9370264E+02  0.7818608E-02  0.1294125E+00
          1   -1    0    0  501    0  0.00000000000E+00  0.00000000000E+00  0.59553207170E+01  0.59553228496E+01  0.50400000000E-02 0. -1.
         -1   -1    0    0    0  501 -0.00000000000E+00 -0.00000000000E+00 -0.36858562713E+03  0.36858562717E+03  0.50400000000E-02 0.  1.
         23    2    1    2    0    0  0.00000000000E+00  0.00000000000E+00 -0.36263030642E+03  0.37454095002E+03  0.93702636614E+02 0.  0.
    9000005    2    3    3    0    0 -0.24840555641E+02  0.11813526045E+02 -0.33277839957E+03  0.33394847603E+03  0.48485894707E+01 0.  0.
         22    1    3    3    0    0  0.24840555641E+02 -0.11813526045E+02 -0.29851906850E+02  0.40592473992E+02  0.00000000000E+00 0. -1.
         22    1    4    4    0    0 -0.20137303466E+02  0.79883742000E+01 -0.24192763292E+03  0.24289566625E+03  0.00000000000E+00 0.  1.
         22    1    4    4    0    0 -0.47032521750E+01  0.38251518452E+01 -0.90850766650E+02  0.91052809779E+02  0.00000000000E+00 0.  1.
<mgrwt>
<rscale>  0 0.93702637E+02</rscale>
<asrwt>0</asrwt>
<pdfrwt beam="1">  1        1 0.91620364E-03 0.93702637E+02</pdfrwt>
<pdfrwt beam="2">  1       -1 0.56705463E-01 0.93702637E+02</pdfrwt>
<totfact> 0.51621358E+04</totfact>
</mgrwt>
</event>
<event>
 7    1  0.3345055E-009  0.9076070E+02  0.7818608E-02  0.1301020E+00
          1   -1    0    0  501    0  0.00000000000E+00  0.00000000000E+00  0.95680509416E+01  0.95680522691E+01  0.50400000000E-02 0. -1.
         -1   -1    0    0    0  501 -0.00000000000E+00 -0.00000000000E+00 -0.21523465754E+03  0.21523465760E+03  0.50400000000E-02 0.  1.
         23    2    1    2    0    0  0.00000000000E+00  0.00000000000E+00 -0.20566660660E+03  0.22480270987E+03  0.90760703470E+02 0.  0.
    9000005    2    3    3    0    0  0.95937128864E+01 -0.21558961629E+02 -0.19826113259E+03  0.20007076294E+03  0.12806456776E+02 0.  0.
         22    1    3    3    0    0 -0.95937128864E+01  0.21558961629E+02 -0.74054740100E+01  0.24731946927E+02  0.00000000000E+00 0. -1.
         22    1    4    4    0    0  0.11871853438E+02 -0.20542369790E+02 -0.18885091818E+03  0.19033549106E+03  0.00000000000E+00 0.  1.
         22    1    4    4    0    0 -0.22781405511E+01 -0.10165918393E+01 -0.94102144113E+01  0.97352718815E+01  0.00000000000E+00 0.  1.
<mgrwt>
<rscale>  0 0.90760703E+02</rscale>
<asrwt>0</asrwt>
<pdfrwt beam="1">  1        1 0.14720081E-02 0.90760703E+02</pdfrwt>
<pdfrwt beam="2">  1       -1 0.33113021E-01 0.90760703E+02</pdfrwt>
<totfact> 0.68757676E+04</totfact>
</mgrwt>
</event>
<event>
 7    1  0.3345055E-009  0.9044535E+02  0.7818608E-02  0.1301777E+00
          1   -1    0    0  501    0  0.00000000000E+00  0.00000000000E+00  0.10215589847E+03  0.10215589859E+03  0.50400000000E-02 0. -1.
         -1   -1    0    0    0  501 -0.00000000000E+00 -0.00000000000E+00 -0.20019305439E+02  0.20019306074E+02  0.50400000000E-02 0.  1.
         23    2    1    2    0    0  0.00000000000E+00  0.00000000000E+00  0.82136593030E+02  0.12217520467E+03  0.90445346596E+02 0.  0.
    9000005    2    3    3    0    0  0.35050505524E+02 -0.26608716679E+02  0.50533971008E+02  0.67996911417E+02  0.11547120665E+02 0.  0.
         22    1    3    3    0    0 -0.35050505524E+02  0.26608716679E+02  0.31602622022E+02  0.54178293250E+02  0.00000000000E+00 0.  1.
         22    1    4    4    0    0  0.33341064508E+01 -0.80928087609E+01  0.10488643940E+02  0.13660946935E+02  0.00000000000E+00 0.  1.
         22    1    4    4    0    0  0.31716399073E+02 -0.18515907918E+02  0.40045327068E+02  0.54335964482E+02  0.00000000000E+00 0.  1.
<mgrwt>
<rscale>  0 0.90445347E+02</rscale>
<asrwt>0</asrwt>
<pdfrwt beam="1">  1        1 0.15716292E-01 0.90445347E+02</pdfrwt>
<pdfrwt beam="2">  1       -1 0.30798932E-02 0.90445347E+02</pdfrwt>
<totfact> 0.10714701E+05</totfact>
</mgrwt>
</event>
<event>
 7    1  0.3345055E-009  0.8971148E+02  0.7818608E-02  0.1303552E+00
          1   -1    0    0  501    0  0.00000000000E+00  0.00000000000E+00  0.27152284570E+02  0.27152285037E+02  0.50400000000E-02 0. -1.
         -1   -1    0    0    0  501 -0.00000000000E+00 -0.00000000000E+00 -0.74101950828E+02  0.74101950999E+02  0.50400000000E-02 0.  1.
         23    2    1    2    0    0  0.00000000000E+00  0.00000000000E+00 -0.46949666258E+02  0.10125423604E+03  0.89711477268E+02 0.  0.
    9000005    2    3    3    0    0  0.21191433554E+02  0.30458462006E+02  0.36021483329E+01  0.38546336038E+02  0.98004992475E+01 0.  0.
         22    1    3    3    0    0 -0.21191433554E+02 -0.30458462006E+02 -0.50551814591E+02  0.62707899999E+02  0.00000000000E+00 0.  1.
         22    1    4    4    0    0  0.16969683533E+01  0.74023579204E+01  0.34783822056E+01  0.83530681274E+01  0.00000000000E+00 0.  1.
         22    1    4    4    0    0  0.19494465201E+02  0.23056104085E+02  0.12376612728E+00  0.30193267910E+02  0.00000000000E+00 0.  1.
<mgrwt>
<rscale>  0 0.89711477E+02</rscale>
<asrwt>0</asrwt>
<pdfrwt beam="1">  1        1 0.41772746E-02 0.89711477E+02</pdfrwt>
<pdfrwt beam="2">  1       -1 0.11400300E-01 0.89711477E+02</pdfrwt>
<totfact> 0.89357570E+04</totfact>
</mgrwt>
</event>
<event>
 7    1  0.3345055E-009  0.9682258E+02  0.7818608E-02  0.1287123E+00
         -1   -1    0    0    0  501 -0.00000000000E+00  0.00000000000E+00  0.62081881581E+02  0.62081881785E+02  0.50400000000E-02 0.  1.
          1   -1    0    0  501    0  0.00000000000E+00 -0.00000000000E+00 -0.37750997409E+02  0.37750997745E+02  0.50400000000E-02 0. -1.
         23    2    1    2    0    0  0.00000000000E+00  0.00000000000E+00  0.24330884172E+02  0.99832879530E+02  0.96822579550E+02 0.  0.
    9000005    2    3    3    0    0 -0.76825765559E+01 -0.46604546284E+02  0.20488383506E+02  0.52443318146E+02  0.99760735032E+01 0.  0.
         22    1    3    3    0    0  0.76825765559E+01  0.46604546284E+02  0.38425006661E+01  0.47389561385E+02  0.00000000000E+00 0. -1.
         22    1    4    4    0    0 -0.32536688663E+01 -0.17741810304E+02  0.26663219985E+01  0.18233690437E+02  0.00000000000E+00 0.  1.
         22    1    4    4    0    0 -0.44289076896E+01 -0.28862735981E+02  0.17822061507E+02  0.34209627709E+02  0.00000000000E+00 0.  1.
<mgrwt>
<rscale>  0 0.96822580E+02</rscale>
<asrwt>0</asrwt>
<pdfrwt beam="2">  1        1 0.58078458E-02 0.96822580E+02</pdfrwt>
<pdfrwt beam="1">  1       -1 0.95510587E-02 0.96822580E+02</pdfrwt>
<totfact> 0.75720161E+04</totfact>
</mgrwt>
</event>
<event>
 7    1  0.3345055E-009  0.9431647E+02  0.7818608E-02  0.1292723E+00
         -1   -1    0    0    0  501 -0.00000000000E+00  0.00000000000E+00  0.96845246006E+01  0.96845259121E+01  0.50400000000E-02 0.  1.
          1   -1    0    0  501    0  0.00000000000E+00 -0.00000000000E+00 -0.22963430961E+03  0.22963430966E+03  0.50400000000E-02 0. -1.
         23    2    1    2    0    0  0.35527136788E-14  0.44408920985E-15 -0.21994978500E+03  0.23931883557E+03  0.94316473303E+02 0.  0.
    9000005    2    3    3    0    0 -0.20258538716E+02 -0.20312594183E+01 -0.21749170871E+03  0.21881087261E+03  0.12689373957E+02 0.  0.
         22    1    3    3    0    0  0.20258538716E+02  0.20312594183E+01 -0.24580762983E+01  0.20507962961E+02  0.00000000000E+00 0.  1.
         22    1    4    4    0    0 -0.21123290952E+02  0.67243213288E+00 -0.19436250519E+03  0.19550813029E+03  0.00000000000E+00 0.  1.
         22    1    4    4    0    0  0.86475223626E+00 -0.27036915512E+01 -0.23129203518E+02  0.23302742324E+02  0.00000000000E+00 0.  1.
<mgrwt>
<rscale>  0 0.94316473E+02</rscale>
<asrwt>0</asrwt>
<pdfrwt beam="2">  1        1 0.35328351E-01 0.94316473E+02</pdfrwt>
<pdfrwt beam="1">  1       -1 0.14899271E-02 0.94316473E+02</pdfrwt>
<totfact> 0.11107880E+05</totfact>
</mgrwt>
</event>
<event>
 6    1  0.3345055E-009  0.2303480E+03  0.7818608E-02  0.1126395E+00
          1   -1    0    0  501    0  0.00000000000E+00  0.00000000000E+00  0.26770793084E+03  0.26770793089E+03  0.50400000000E-02 0. -1.
         -1   -1    0    0    0  501 -0.00000000000E+00 -0.00000000000E+00 -0.49550454980E+02  0.49550455236E+02  0.50400000000E-02 0.  1.
    9000005    2    1    2    0    0  0.50229580965E+02 -0.35407682184E+02  0.24309274457E+03  0.25093733074E+03  0.99371390387E+01 0.  0.
         22    1    1    2    0    0 -0.50229580965E+02  0.35407682184E+02 -0.24935268714E+02  0.66321055385E+02  0.00000000000E+00 0.  1.
         22    1    3    3    0    0  0.16912116687E+02 -0.69936755433E+01  0.63615238142E+02  0.66195390416E+02  0.00000000000E+00 0. -1.
         22    1    3    3    0    0  0.33317464278E+02 -0.28414006641E+02  0.17947750643E+03  0.18474194032E+03  0.00000000000E+00 0. -1.
<mgrwt>
<rscale>  0 0.23034800E+03</rscale>
<asrwt>0</asrwt>
<pdfrwt beam="1">  1        1 0.41185835E-01 0.23034800E+03</pdfrwt>
<pdfrwt beam="2">  1       -1 0.76231470E-02 0.23034800E+03</pdfrwt>
<totfact> 0.92115863E+03</totfact>
</mgrwt>
</event>
<event>
 7    1  0.3345055E-009  0.9708088E+02  0.7818608E-02  0.1286557E+00
          1   -1    0    0  501    0  0.00000000000E+00  0.00000000000E+00  0.33757711591E+03  0.33757711594E+03  0.50400000000E-02 0. -1.
         -1   -1    0    0    0  501 -0.00000000000E+00 -0.00000000000E+00 -0.69796618020E+01  0.69796636217E+01  0.50400000000E-02 0.  1.
         23    2    1    2    0    0  0.00000000000E+00  0.00000000000E+00  0.33059745411E+03  0.34455677957E+03  0.97080882178E+02 0.  0.
    9000005    2    3    3    0    0  0.81185026609E+01  0.40678526461E+02  0.79633182548E+02  0.90187523958E+02  0.84671786609E+01 0.  0.
         22    1    3    3    0    0 -0.81185026609E+01 -0.40678526461E+02  0.25096427156E+03  0.25436925561E+03  0.00000000000E+00 0. -1.
         22    1    4    4    0    0  0.69982381461E+01  0.17029871312E+02  0.30047934143E+02  0.35240178778E+02  0.00000000000E+00 0. -1.
         22    1    4    4    0    0  0.11202645148E+01  0.23648655150E+02  0.49585248406E+02  0.54947345181E+02  0.00000000000E+00 0. -1.
<mgrwt>
<rscale>  0 0.97080882E+02</rscale>
<asrwt>0</asrwt>
<pdfrwt beam="1">  1        1 0.51934941E-01 0.97080882E+02</pdfrwt>
<pdfrwt beam="2">  1       -1 0.10737943E-02 0.97080882E+02</pdfrwt>
<totfact> 0.11077193E+05</totfact>
</mgrwt>
</event>
<event>
 7    1  0.3345055E-009  0.8787865E+02  0.7818608E-02  0.1308072E+00
          1   -1    0    0  501    0  0.00000000000E+00  0.00000000000E+00  0.25971774735E+03  0.25971774740E+03  0.50400000000E-02 0.  1.
         -1   -1    0    0    0  501 -0.00000000000E+00 -0.00000000000E+00 -0.74337016204E+01  0.74337033290E+01  0.50400000000E-02 0. -1.
         23    2    1    2    0    0  0.00000000000E+00  0.00000000000E+00  0.25228404573E+03  0.26715145073E+03  0.87878654385E+02 0.  0.
    9000005    2    3    3    0    0  0.49722438987E+01  0.10112353950E+02  0.25522917786E+03  0.25550427446E+03  0.36767002968E+01 0.  0.
         22    1    3    3    0    0 -0.49722438987E+01 -0.10112353950E+02 -0.29451321278E+01  0.11647176269E+02  0.00000000000E+00 0. -1.
         22    1    4    4    0    0  0.20691004229E+01  0.10180304807E+01  0.48445555320E+02  0.48500406110E+02  0.00000000000E+00 0. -1.
         22    1    4    4    0    0  0.29031434758E+01  0.90943234692E+01  0.20678362254E+03  0.20700386835E+03  0.00000000000E+00 0. -1.
<mgrwt>
<rscale>  0 0.87878654E+02</rscale>
<asrwt>0</asrwt>
<pdfrwt beam="1">  1        1 0.39956574E-01 0.87878654E+02</pdfrwt>
<pdfrwt beam="2">  1       -1 0.11436466E-02 0.87878654E+02</pdfrwt>
<totfact> 0.13743881E+05</totfact>
</mgrwt>
</event>
<event>
 7    1  0.3345055E-009  0.8824024E+02  0.7818608E-02  0.1307170E+00
         -1   -1    0    0    0  501 -0.00000000000E+00  0.00000000000E+00  0.79435490711E+02  0.79435490871E+02  0.50400000000E-02 0.  1.
          1   -1    0    0  501    0  0.00000000000E+00 -0.00000000000E+00 -0.24505232042E+02  0.24505232560E+02  0.50400000000E-02 0. -1.
         23    2    1    2    0    0  0.00000000000E+00  0.00000000000E+00  0.54930258669E+02  0.10394072343E+03  0.88240244049E+02 0.  0.
    9000005    2    3    3    0    0  0.21905075177E+02 -0.26661596098E+02 -0.46977215501E+01  0.35048277908E+02  0.39547656779E+01 0.  0.
         22    1    3    3    0    0 -0.21905075177E+02  0.26661596098E+02  0.59627980219E+02  0.68892445522E+02  0.00000000000E+00 0.  1.
         22    1    4    4    0    0  0.20823768864E+02 -0.25171190921E+02 -0.35082031771E+01  0.32856136286E+02  0.00000000000E+00 0.  1.
         22    1    4    4    0    0  0.10813063128E+01 -0.14904051770E+01 -0.11895183729E+01  0.21921416225E+01  0.00000000000E+00 0.  1.
<mgrwt>
<rscale>  0 0.88240244E+02</rscale>
<asrwt>0</asrwt>
<pdfrwt beam="2">  1        1 0.37700357E-02 0.88240244E+02</pdfrwt>
<pdfrwt beam="1">  1       -1 0.12220845E-01 0.88240244E+02</pdfrwt>
<totfact> 0.92149062E+04</totfact>
</mgrwt>
</event>
<event>
 7    1  0.3345055E-009  0.9002789E+02  0.7818608E-02  0.1302784E+00
          1   -1    0    0  501    0  0.00000000000E+00  0.00000000000E+00  0.13419874296E+03  0.13419874306E+03  0.50400000000E-02 0. -1.
         -1   -1    0    0    0  501 -0.00000000000E+00 -0.00000000000E+00 -0.15098914388E+02  0.15098915229E+02  0.50400000000E-02 0.  1.
         23    2    1    2    0    0  0.00000000000E+00  0.00000000000E+00  0.11909982858E+03  0.14929765829E+03  0.90027893475E+02 0.  0.
    9000005    2    3    3    0    0  0.21341547634E+02  0.38643111534E+02  0.71229367253E+02  0.84179820550E+02  0.79917272254E+01 0.  0.
         22    1    3    3    0    0 -0.21341547634E+02 -0.38643111534E+02  0.47870461322E+02  0.65117837738E+02  0.00000000000E+00 0. -1.
         22    1    4    4    0    0  0.14642466250E+02  0.27288721778E+02  0.56357875578E+02  0.64306191722E+02  0.00000000000E+00 0. -1.
         22    1    4    4    0    0  0.66990813843E+01  0.11354389756E+02  0.14871491675E+02  0.19873628827E+02  0.00000000000E+00 0. -1.
<mgrwt>
<rscale>  0 0.90027893E+02</rscale>
<asrwt>0</asrwt>
<pdfrwt beam="1">  1        1 0.20645960E-01 0.90027893E+02</pdfrwt>
<pdfrwt beam="2">  1       -1 0.23229100E-02 0.90027893E+02</pdfrwt>
<totfact> 0.11371796E+05</totfact>
</mgrwt>
</event>
<event>
 7    1  0.3345055E-009  0.8974578E+02  0.7818608E-02  0.1303469E+00
          1   -1    0    0  501    0  0.00000000000E+00  0.00000000000E+00  0.22493557087E+03  0.22493557093E+03  0.50400000000E-02 0. -1.
         -1   -1    0    0    0  501 -0.00000000000E+00 -0.00000000000E+00 -0.89517896611E+01  0.89517910799E+01  0.50400000000E-02 0.  1.
         23    2    1    2    0    0  0.00000000000E+00  0.00000000000E+00  0.21598378121E+03  0.23388736201E+03  0.89745776286E+02 0.  0.
    9000005    2    3    3    0    0  0.36165528658E+02 -0.14333421448E+02  0.54714292540E+02  0.67992092607E+02  0.10764683711E+02 0.  0.
         22    1    3    3    0    0 -0.36165528658E+02  0.14333421448E+02  0.16126948867E+03  0.16589526940E+03  0.00000000000E+00 0. -1.
         22    1    4    4    0    0  0.32992916082E+02 -0.10638932448E+02  0.42513966608E+02  0.54855781391E+02  0.00000000000E+00 0.  1.
         22    1    4    4    0    0  0.31726125764E+01 -0.36944889994E+01  0.12200325932E+02  0.13136311217E+02  0.00000000000E+00 0.  1.
<mgrwt>
<rscale>  0 0.89745776E+02</rscale>
<asrwt>0</asrwt>
<pdfrwt beam="1">  1        1 0.34605466E-01 0.89745776E+02</pdfrwt>
<pdfrwt beam="2">  1       -1 0.13771988E-02 0.89745776E+02</pdfrwt>
<totfact> 0.12637857E+05</totfact>
</mgrwt>
</event>
<event>
 7    1  0.3345055E-009  0.9596125E+02  0.7818608E-02  0.1289026E+00
         -1   -1    0    0    0  501 -0.00000000000E+00  0.00000000000E+00  0.51556658040E+03  0.51556658043E+03  0.50400000000E-02 0.  1.
          1   -1    0    0  501    0  0.00000000000E+00 -0.00000000000E+00 -0.44652616319E+01  0.44652644763E+01  0.50400000000E-02 0. -1.
         23    2    1    2    0    0 -0.35527136788E-14  0.88817841970E-15  0.51110131877E+03  0.52003184491E+03  0.95961250850E+02 0.  0.
    9000005    2    3    3    0    0  0.23625288313E+02 -0.55391563793E+01  0.47951369075E+03  0.48019951199E+03  0.83279768725E+01 0.  0.
         22    1    3    3    0    0 -0.23625288313E+02  0.55391563793E+01  0.31587628021E+02  0.39832332912E+02  0.00000000000E+00 0. -1.
         22    1    4    4    0    0  0.51304461158E+01 -0.17862921558E+00  0.17647084906E+03  0.17654550109E+03  0.00000000000E+00 0. -1.
         22    1    4    4    0    0  0.18494842197E+02 -0.53605271637E+01  0.30304284169E+03  0.30365401090E+03  0.00000000000E+00 0. -1.
<mgrwt>
<rscale>  0 0.95961251E+02</rscale>
<asrwt>0</asrwt>
<pdfrwt beam="2">  1        1 0.68696349E-03 0.95961251E+02</pdfrwt>
<pdfrwt beam="1">  1       -1 0.79317942E-01 0.95961251E+02</pdfrwt>
<totfact> 0.40342033E+04</totfact>
</mgrwt>
</event>
<event>
 7    1  0.3345055E-009  0.8986355E+02  0.7818608E-02  0.1303182E+00
          1   -1    0    0  501    0  0.00000000000E+00  0.00000000000E+00  0.91215281622E+01  0.91215295546E+01  0.50400000000E-02 0. -1.
         -1   -1    0    0    0  501 -0.00000000000E+00 -0.00000000000E+00 -0.22132959443E+03  0.22132959449E+03  0.50400000000E-02 0.  1.
         23    2    1    2    0    0  0.00000000000E+00 -0.35527136788E-14 -0.21220806627E+03  0.23045112404E+03  0.89863547577E+02 0.  0.
    9000005    2    3    3    0    0  0.37049284923E+02  0.24081751353E+02 -0.89635511516E+02  0.10015679784E+03  0.66542443347E+01 0.  0.
         22    1    3    3    0    0 -0.37049284923E+02 -0.24081751353E+02 -0.12257255475E+03  0.13029432620E+03  0.00000000000E+00 0. -1.
         22    1    4    4    0    0  0.34652442401E+02  0.20397400427E+02 -0.78872228756E+02  0.88530639766E+02  0.00000000000E+00 0. -1.
         22    1    4    4    0    0  0.23968425222E+01  0.36843509261E+01 -0.10763282760E+02  0.11626158075E+02  0.00000000000E+00 0. -1.
<mgrwt>
<rscale>  0 0.89863548E+02</rscale>
<asrwt>0</asrwt>
<pdfrwt beam="1">  1        1 0.14033123E-02 0.89863548E+02</pdfrwt>
<pdfrwt beam="2">  1       -1 0.34050703E-01 0.89863548E+02</pdfrwt>
<totfact> 0.69961593E+04</totfact>
</mgrwt>
</event>
<event>
 7    1  0.3345055E-009  0.9074401E+02  0.7818608E-02  0.1301060E+00
          1   -1    0    0  501    0  0.00000000000E+00  0.00000000000E+00  0.24441366211E+03  0.24441366216E+03  0.50400000000E-02 0. -1.
         -1   -1    0    0    0  501 -0.00000000000E+00 -0.00000000000E+00 -0.84226829804E+01  0.84226844883E+01  0.50400000000E-02 0.  1.
         23    2    1    2    0    0  0.00000000000E+00  0.00000000000E+00  0.23599097912E+03  0.25283634665E+03  0.90744013338E+02 0.  0.
    9000005    2    3    3    0    0 -0.92863098989E+01  0.41987819632E+02  0.80511649215E+02  0.91519780298E+02  0.66732284166E+01 0.  0.
         22    1    3    3    0    0  0.92863098989E+01 -0.41987819632E+02  0.15547932991E+03  0.16131656635E+03  0.00000000000E+00 0. -1.
         22    1    4    4    0    0 -0.88398407238E+00  0.15591900809E+02  0.24926512736E+02  0.29414619424E+02  0.00000000000E+00 0. -1.
         22    1    4    4    0    0 -0.84023258265E+01  0.26395918822E+02  0.55585136479E+02  0.62105160874E+02  0.00000000000E+00 0. -1.
<mgrwt>
<rscale>  0 0.90744013E+02</rscale>
<asrwt>0</asrwt>
<pdfrwt beam="1">  1        1 0.37602106E-01 0.90744013E+02</pdfrwt>
<pdfrwt beam="2">  1       -1 0.12957974E-02 0.90744013E+02</pdfrwt>
<totfact> 0.12470160E+05</totfact>
</mgrwt>
</event>
<event>
 7    1  0.3345055E-009  0.9502638E+02  0.7818608E-02  0.1291117E+00
         -1   -1    0    0    0  501 -0.00000000000E+00  0.00000000000E+00  0.16182878392E+02  0.16182879177E+02  0.50400000000E-02 0.  1.
          1   -1    0    0  501    0  0.00000000000E+00 -0.00000000000E+00 -0.13949947033E+03  0.13949947042E+03  0.50400000000E-02 0. -1.
         23    2    1    2    0    0  0.00000000000E+00  0.00000000000E+00 -0.12331659194E+03  0.15568234960E+03  0.95026375967E+02 0.  0.
    9000005    2    3    3    0    0 -0.37515181237E+01 -0.32671778988E+02 -0.11676600845E+03  0.12214984038E+03  0.14309568315E+02 0.  0.
         22    1    3    3    0    0  0.37515181237E+01  0.32671778988E+02 -0.65505834894E+01  0.33532509219E+02  0.00000000000E+00 0.  1.
         22    1    4    4    0    0 -0.60357722239E+00 -0.92926383475E+01 -0.14763645523E+02  0.17455161473E+02  0.00000000000E+00 0.  1.
         22    1    4    4    0    0 -0.31479409013E+01 -0.23379140640E+02 -0.10200236293E+03  0.10469467891E+03  0.00000000000E+00 0.  1.
<mgrwt>
<rscale>  0 0.95026376E+02</rscale>
<asrwt>0</asrwt>
<pdfrwt beam="2">  1        1 0.21461456E-01 0.95026376E+02</pdfrwt>
<pdfrwt beam="1">  1       -1 0.24896738E-02 0.95026376E+02</pdfrwt>
<totfact> 0.98922558E+04</totfact>
</mgrwt>
</event>
<event>
 7    1  0.3345055E-009  0.9509319E+02  0.7818608E-02  0.1290966E+00
         -1   -1    0    0    0  501 -0.00000000000E+00  0.00000000000E+00  0.30588902730E+02  0.30588903145E+02  0.50400000000E-02 0.  1.
          1   -1    0    0  501    0  0.00000000000E+00 -0.00000000000E+00 -0.73905186022E+02  0.73905186194E+02  0.50400000000E-02 0. -1.
         23    2    1    2    0    0 -0.11102230246E-15  0.00000000000E+00 -0.43316283293E+02  0.10449408934E+03  0.95093187498E+02 0.  0.
    9000005    2    3    3    0    0  0.58623364042E+00 -0.44232252398E+02 -0.37680844539E+02  0.59900435171E+02  0.14538922463E+02 0.  0.
         22    1    3    3    0    0 -0.58623364042E+00  0.44232252398E+02 -0.56354387534E+01  0.44593654168E+02  0.00000000000E+00 0.  1.
         22    1    4    4    0    0  0.22075333533E+01  0.36180367671E-01 -0.24715031380E+01  0.33140368565E+01  0.00000000000E+00 0. -1.
         22    1    4    4    0    0 -0.16212997129E+01 -0.44268432766E+02 -0.35209341401E+02  0.56586398315E+02  0.00000000000E+00 0. -1.
<mgrwt>
<rscale>  0 0.95093187E+02</rscale>
<asrwt>0</asrwt>
<pdfrwt beam="2">  1        1 0.11370029E-01 0.95093187E+02</pdfrwt>
<pdfrwt beam="1">  1       -1 0.47059851E-02 0.95093187E+02</pdfrwt>
<totfact> 0.88584401E+04</totfact>
</mgrwt>
</event>
<event>
 7    1  0.3345055E-009  0.9020873E+02  0.7818608E-02  0.1302347E+00
          1   -1    0    0  501    0  0.00000000000E+00  0.00000000000E+00  0.40733197615E+01  0.40733228796E+01  0.50400000000E-02 0.  1.
         -1   -1    0    0    0  501 -0.00000000000E+00 -0.00000000000E+00 -0.49944592011E+03  0.49944592013E+03  0.50400000000E-02 0. -1.
         23    2    1    2    0    0  0.00000000000E+00  0.00000000000E+00 -0.49537260034E+03  0.50351924301E+03  0.90208729679E+02 0.  0.
    9000005    2    3    3    0    0 -0.21779082939E+02  0.21453376241E+02 -0.42975392612E+03  0.43112873112E+03  0.15778782274E+02 0.  0.
         22    1    3    3    0    0  0.21779082939E+02 -0.21453376241E+02 -0.65618674221E+02  0.72390511895E+02  0.00000000000E+00 0.  1.
         22    1    4    4    0    0 -0.73366594213E+01  0.13915800284E+02 -0.13284485191E+03  0.13377305689E+03  0.00000000000E+00 0. -1.
         22    1    4    4    0    0 -0.14442423517E+02  0.75375759573E+01 -0.29690907421E+03  0.29735567423E+03  0.00000000000E+00 0. -1.
<mgrwt>
<rscale>  0 0.90208730E+02</rscale>
<asrwt>0</asrwt>
<pdfrwt beam="1">  1        1 0.62666521E-03 0.90208730E+02</pdfrwt>
<pdfrwt beam="2">  1       -1 0.76837786E-01 0.90208730E+02</pdfrwt>
<totfact> 0.48410441E+04</totfact>
</mgrwt>
</event>
<event>
 7    1  0.3345055E-009  0.7511649E+02  0.7818608E-02  0.1343511E+00
          1   -1    0    0  501    0  0.00000000000E+00  0.00000000000E+00  0.21655904560E+02  0.21655905147E+02  0.50400000000E-02 0. -1.
         -1   -1    0    0    0  501 -0.00000000000E+00 -0.00000000000E+00 -0.65137973946E+02  0.65137974141E+02  0.50400000000E-02 0.  1.
         23    2    1    2    0    0  0.35527136788E-14  0.00000000000E+00 -0.43482069386E+02  0.86793879288E+02  0.75116490358E+02 0.  0.
    9000005    2    3    3    0    0  0.21378095460E+02  0.20640484726E+02  0.46540059001E+01  0.30224149580E+02  0.29642657966E+01 0.  0.
         22    1    3    3    0    0 -0.21378095460E+02 -0.20640484726E+02 -0.48136075286E+02  0.56569729707E+02  0.00000000000E+00 0.  1.
         22    1    4    4    0    0  0.15596513320E+02  0.16259301965E+02  0.44597292851E+01  0.22967483829E+02  0.00000000000E+00 0.  1.
         22    1    4    4    0    0  0.57815821398E+01  0.43811827616E+01  0.19427661505E+00  0.72566657518E+01  0.00000000000E+00 0.  1.
<mgrwt>
<rscale>  0 0.75116490E+02</rscale>
<asrwt>0</asrwt>
<pdfrwt beam="1">  1        1 0.33316777E-02 0.75116490E+02</pdfrwt>
<pdfrwt beam="2">  1       -1 0.10021227E-01 0.75116490E+02</pdfrwt>
<totfact> 0.14313398E+05</totfact>
</mgrwt>
</event>
<event>
 7    1  0.3345055E-009  0.7896154E+02  0.7818608E-02  0.1332025E+00
          1   -1    0    0  501    0  0.00000000000E+00  0.00000000000E+00  0.62018181661E+01  0.62018202140E+01  0.50400000000E-02 0. -1.
         -1   -1    0    0    0  501 -0.00000000000E+00 -0.00000000000E+00 -0.25133449594E+03  0.25133449599E+03  0.50400000000E-02 0.  1.
         23    2    1    2    0    0 -0.11102230246E-15 -0.35527136788E-14 -0.24513267777E+03  0.25753631620E+03  0.78961537798E+02 0.  0.
    9000005    2    3    3    0    0  0.99653126329E+00 -0.26917019313E+02 -0.21644378897E+03  0.21818442497E+03  0.55687081477E+01 0.  0.
         22    1    3    3    0    0 -0.99653126329E+00  0.26917019313E+02 -0.28688888801E+02  0.39351891237E+02  0.00000000000E+00 0. -1.
         22    1    4    4    0    0 -0.15934657384E+01 -0.38744807846E+01 -0.26214902372E+02  0.26547539260E+02  0.00000000000E+00 0.  1.
         22    1    4    4    0    0  0.25899970016E+01 -0.23042538528E+02 -0.19022888660E+03  0.19163688570E+03  0.00000000000E+00 0.  1.
<mgrwt>
<rscale>  0 0.78961538E+02</rscale>
<asrwt>0</asrwt>
<pdfrwt beam="1">  1        1 0.95412623E-03 0.78961538E+02</pdfrwt>
<pdfrwt beam="2">  1       -1 0.38666838E-01 0.78961538E+02</pdfrwt>
<totfact> 0.93937007E+04</totfact>
</mgrwt>
</event>
<event>
 7    1  0.3345055E-009  0.9116771E+02  0.7818608E-02  0.1300048E+00
          1   -1    0    0  501    0  0.00000000000E+00  0.00000000000E+00  0.83989998811E+02  0.83989998962E+02  0.50400000000E-02 0. -1.
         -1   -1    0    0    0  501 -0.00000000000E+00 -0.00000000000E+00 -0.24739703560E+02  0.24739704073E+02  0.50400000000E-02 0.  1.
         23    2    1    2    0    0  0.00000000000E+00  0.00000000000E+00  0.59250295251E+02  0.10872970304E+03  0.91167707193E+02 0.  0.
    9000005    2    3    3    0    0  0.40320386963E+02 -0.18459995330E+02  0.38239511202E+02  0.59658753597E+02  0.11419353363E+02 0.  0.
         22    1    3    3    0    0 -0.40320386963E+02  0.18459995330E+02  0.21010784048E+02  0.49070949439E+02  0.00000000000E+00 0. -1.
         22    1    4    4    0    0  0.17053375502E+02 -0.74513733800E+01  0.89007703482E+01  0.20629209729E+02  0.00000000000E+00 0. -1.
         22    1    4    4    0    0  0.23267011461E+02 -0.11008621950E+02  0.29338740854E+02  0.39029543867E+02  0.00000000000E+00 0. -1.
<mgrwt>
<rscale>  0 0.91167707E+02</rscale>
<asrwt>0</asrwt>
<pdfrwt beam="1">  1        1 0.12921538E-01 0.91167707E+02</pdfrwt>
<pdfrwt beam="2">  1       -1 0.38061083E-02 0.91167707E+02</pdfrwt>
<totfact> 0.10155293E+05</totfact>
</mgrwt>
</event>
<event>
 7    1  0.3345055E-009  0.8634085E+02  0.7818608E-02  0.1311963E+00
          1   -1    0    0  501    0  0.00000000000E+00  0.00000000000E+00  0.81187539771E+01  0.81187555415E+01  0.50400000000E-02 0. -1.
         -1   -1    0    0    0  501 -0.00000000000E+00 -0.00000000000E+00 -0.22955314163E+03  0.22955314169E+03  0.50400000000E-02 0.  1.
         23    2    1    2    0    0  0.00000000000E+00  0.00000000000E+00 -0.22143438766E+03  0.23767189723E+03  0.86340851839E+02 0.  0.
    9000005    2    3    3    0    0 -0.82422382865E+01 -0.21659427489E+02 -0.20997644482E+03  0.21181943613E+03  0.15501640224E+02 0.  0.
         22    1    3    3    0    0  0.82422382865E+01  0.21659427489E+02 -0.11457942833E+02  0.25852461103E+02  0.00000000000E+00 0. -1.
         22    1    4    4    0    0  0.41642969514E+01 -0.69047505767E+01 -0.44579674369E+02  0.45303027675E+02  0.00000000000E+00 0.  1.
         22    1    4    4    0    0 -0.12406535238E+02 -0.14754676912E+02 -0.16539677046E+03  0.16651640845E+03  0.00000000000E+00 0.  1.
<mgrwt>
<rscale>  0 0.86340852E+02</rscale>
<asrwt>0</asrwt>
<pdfrwt beam="1">  1        1 0.12490394E-02 0.86340852E+02</pdfrwt>
<pdfrwt beam="2">  1       -1 0.35315863E-01 0.86340852E+02</pdfrwt>
<totfact> 0.76752977E+04</totfact>
</mgrwt>
</event>
<event>
 7    1  0.3345055E-009  0.8988551E+02  0.7818608E-02  0.1303129E+00
         -1   -1    0    0    0  501 -0.00000000000E+00  0.00000000000E+00  0.13986427702E+03  0.13986427711E+03  0.50400000000E-02 0.  1.
          1   -1    0    0  501    0  0.00000000000E+00 -0.00000000000E+00 -0.14441507889E+02  0.14441508768E+02  0.50400000000E-02 0. -1.
         23    2    1    2    0    0  0.00000000000E+00  0.00000000000E+00  0.12542276913E+03  0.15430578588E+03  0.89885507948E+02 0.  0.
    9000005    2    3    3    0    0  0.38780750099E+02 -0.16626098122E+02  0.83830410688E+02  0.95058018006E+02  0.15103486820E+02 0.  0.
         22    1    3    3    0    0 -0.38780750099E+02  0.16626098122E+02  0.41592358443E+02  0.59247767872E+02  0.00000000000E+00 0. -1.
         22    1    4    4    0    0  0.52734757451E+01  0.20054641256E+00  0.32934320049E+01  0.62206478496E+01  0.00000000000E+00 0. -1.
         22    1    4    4    0    0  0.33507274354E+02 -0.16826644535E+02  0.80536978683E+02  0.88837370156E+02  0.00000000000E+00 0. -1.
<mgrwt>
<rscale>  0 0.89885508E+02</rscale>
<asrwt>0</asrwt>
<pdfrwt beam="2">  1        1 0.22217705E-02 0.89885508E+02</pdfrwt>
<pdfrwt beam="1">  1       -1 0.21517582E-01 0.89885508E+02</pdfrwt>
<totfact> 0.78856452E+04</totfact>
</mgrwt>
</event>
<event>
 7    1  0.3345055E-009  0.9178882E+02  0.7818608E-02  0.1298577E+00
         -1   -1    0    0    0  501 -0.00000000000E+00  0.00000000000E+00  0.25305870698E+03  0.25305870704E+03  0.50400000000E-02 0.  1.
          1   -1    0    0  501    0  0.00000000000E+00 -0.00000000000E+00 -0.83233521512E+01  0.83233536771E+01  0.50400000000E-02 0. -1.
         23    2    1    2    0    0 -0.71054273576E-14 -0.11102230246E-15  0.24473535483E+03  0.26138206071E+03  0.91788821523E+02 0.  0.
    9000005    2    3    3    0    0  0.44866546974E+02 -0.38586996854E+00  0.13771424261E+03  0.14533605951E+03  0.12008398887E+02 0.  0.
         22    1    3    3    0    0 -0.44866546974E+02  0.38586996854E+00  0.10702111223E+03  0.11604600120E+03  0.00000000000E+00 0.  1.
         22    1    4    4    0    0  0.35581114646E+02  0.32952957757E+01  0.95778825901E+02  0.10222748253E+03  0.00000000000E+00 0. -1.
         22    1    4    4    0    0  0.92854323277E+01 -0.36811657442E+01  0.41935416705E+02  0.43108576977E+02  0.00000000000E+00 0. -1.
<mgrwt>
<rscale>  0 0.91788822E+02</rscale>
<asrwt>0</asrwt>
<pdfrwt beam="2">  1        1 0.12805158E-02 0.91788822E+02</pdfrwt>
<pdfrwt beam="1">  1       -1 0.38932111E-01 0.91788822E+02</pdfrwt>
<totfact> 0.63379342E+04</totfact>
</mgrwt>
</event>
<event>
 7    1  0.3345055E-009  0.9060190E+02  0.7818608E-02  0.1301401E+00
         -1   -1    0    0    0  501 -0.00000000000E+00  0.00000000000E+00  0.22624122783E+03  0.22624122789E+03  0.50400000000E-02 0.  1.
          1   -1    0    0  501    0  0.00000000000E+00 -0.00000000000E+00 -0.90707416523E+01  0.90707430525E+01  0.50400000000E-02 0. -1.
         23    2    1    2    0    0  0.00000000000E+00  0.00000000000E+00  0.21717048618E+03  0.23531197094E+03  0.90601896230E+02 0.  0.
    9000005    2    3    3    0    0 -0.15181883702E+02  0.34344400887E+02  0.17267872330E+03  0.17709217680E+03  0.11561580365E+02 0.  0.
         22    1    3    3    0    0  0.15181883702E+02 -0.34344400887E+02  0.44491762884E+02  0.58219794138E+02  0.00000000000E+00 0. -1.
         22    1    4    4    0    0 -0.32208641719E+01  0.97656851202E+01  0.73488901211E+02  0.74204859498E+02  0.00000000000E+00 0.  1.
         22    1    4    4    0    0 -0.11961019530E+02  0.24578715766E+02  0.99189822084E+02  0.10288731730E+03  0.00000000000E+00 0.  1.
<mgrwt>
<rscale>  0 0.90601896E+02</rscale>
<asrwt>0</asrwt>
<pdfrwt beam="2">  1        1 0.13954989E-02 0.90601896E+02</pdfrwt>
<pdfrwt beam="1">  1       -1 0.34806341E-01 0.90601896E+02</pdfrwt>
<totfact> 0.68020733E+04</totfact>
</mgrwt>
</event>
<event>
 7    1  0.3345055E-009  0.9162053E+02  0.7818608E-02  0.1298974E+00
         -1   -1    0    0    0  501 -0.00000000000E+00  0.00000000000E+00  0.43096299522E+02  0.43096299817E+02  0.50400000000E-02 0.  1.
          1   -1    0    0  501    0  0.00000000000E+00 -0.00000000000E+00 -0.48695142194E+02  0.48695142455E+02  0.50400000000E-02 0. -1.
         23    2    1    2    0    0 -0.71054273576E-14  0.00000000000E+00 -0.55988426714E+01  0.91791442272E+02  0.91620531733E+02 0.  0.
    9000005    2    3    3    0    0  0.41135606063E+02 -0.80261797984E+01 -0.18473325694E+02  0.47947286887E+02  0.14181710381E+02 0.  0.
         22    1    3    3    0    0 -0.41135606063E+02  0.80261797984E+01  0.12874483022E+02  0.43844155385E+02  0.00000000000E+00 0. -1.
         22    1    4    4    0    0  0.28062123557E+02 -0.26657355526E+00 -0.70623336362E+01  0.28938389665E+02  0.00000000000E+00 0.  1.
         22    1    4    4    0    0  0.13073482506E+02 -0.77596062432E+01 -0.11410992057E+02  0.19008897222E+02  0.00000000000E+00 0.  1.
<mgrwt>
<rscale>  0 0.91620532E+02</rscale>
<asrwt>0</asrwt>
<pdfrwt beam="2">  1        1 0.74915604E-02 0.91620532E+02</pdfrwt>
<pdfrwt beam="1">  1       -1 0.66302000E-02 0.91620532E+02</pdfrwt>
<totfact> 0.92130568E+04</totfact>
</mgrwt>
</event>
<event>
 7    1  0.3345055E-009  0.9236040E+02  0.7818608E-02  0.1297234E+00
          1   -1    0    0  501    0  0.00000000000E+00  0.00000000000E+00  0.61245188478E+02  0.61245188685E+02  0.50400000000E-02 0. -1.
         -1   -1    0    0    0  501 -0.00000000000E+00 -0.00000000000E+00 -0.34820873259E+02  0.34820873624E+02  0.50400000000E-02 0.  1.
         23    2    1    2    0    0  0.00000000000E+00  0.00000000000E+00  0.26424315219E+02  0.96066062309E+02  0.92360402190E+02 0.  0.
    9000005    2    3    3    0    0  0.44706600475E+02  0.41172063477E+01  0.63217674769E+01  0.46875169454E+02  0.11903161476E+02 0.  0.
         22    1    3    3    0    0 -0.44706600475E+02 -0.41172063477E+01  0.20102547742E+02  0.49190892855E+02  0.00000000000E+00 0. -1.
         22    1    4    4    0    0  0.15556727349E+02  0.39887521489E+01 -0.28611376600E+01  0.16312817605E+02  0.00000000000E+00 0. -1.
         22    1    4    4    0    0  0.29149873127E+02  0.12845419883E+00  0.91829051369E+01  0.30562351849E+02  0.00000000000E+00 0. -1.
<mgrwt>
<rscale>  0 0.92360402E+02</rscale>
<asrwt>0</asrwt>
<pdfrwt beam="1">  1        1 0.94223367E-02 0.92360402E+02</pdfrwt>
<pdfrwt beam="2">  1       -1 0.53570575E-02 0.92360402E+02</pdfrwt>
<totfact> 0.93270559E+04</totfact>
</mgrwt>
</event>
<event>
 7    1  0.3345055E-009  0.9160791E+02  0.7818608E-02  0.1299004E+00
         -1   -1    0    0    0  501 -0.00000000000E+00  0.00000000000E+00  0.10357944310E+02  0.10357945536E+02  0.50400000000E-02 0.  1.
          1   -1    0    0  501    0  0.00000000000E+00 -0.00000000000E+00 -0.20255006383E+03  0.20255006389E+03  0.50400000000E-02 0. -1.
         23    2    1    2    0    0  0.35527136788E-14  0.00000000000E+00 -0.19219211951E+03  0.21290800942E+03  0.91607912723E+02 0.  0.
    9000005    2    3    3    0    0 -0.30475391349E+02 -0.31937239053E+02 -0.11370046606E+03  0.12285426782E+03  0.14718641965E+02 0.  0.
         22    1    3    3    0    0  0.30475391349E+02  0.31937239053E+02 -0.78491653451E+02  0.90053741608E+02  0.00000000000E+00 0.  1.
         22    1    4    4    0    0 -0.18090198664E+02 -0.27357364114E+02 -0.88907884987E+02  0.94764406144E+02  0.00000000000E+00 0.  1.
         22    1    4    4    0    0 -0.12385192685E+02 -0.45798749388E+01 -0.24792581077E+02  0.28089861672E+02  0.00000000000E+00 0.  1.
<mgrwt>
<rscale>  0 0.91607913E+02</rscale>
<asrwt>0</asrwt>
<pdfrwt beam="2">  1        1 0.31161545E-01 0.91607913E+02</pdfrwt>
<pdfrwt beam="1">  1       -1 0.15935301E-02 0.91607913E+02</pdfrwt>
<totfact> 0.11720426E+05</totfact>
</mgrwt>
</event>
<event>
 7    1  0.3345055E-009  0.8969324E+02  0.7818608E-02  0.1303596E+00
          1   -1    0    0  501    0  0.00000000000E+00  0.00000000000E+00  0.32556654902E+02  0.32556655292E+02  0.50400000000E-02 0. -1.
         -1   -1    0    0    0  501 -0.00000000000E+00 -0.00000000000E+00 -0.61775981335E+02  0.61775981541E+02  0.50400000000E-02 0.  1.
         23    2    1    2    0    0  0.00000000000E+00 -0.71054273576E-14 -0.29219326433E+02  0.94332636833E+02  0.89693240184E+02 0.  0.
    9000005    2    3    3    0    0 -0.23035684978E+02  0.37254863412E+02 -0.81500061472E+01  0.45727247342E+02  0.10295189120E+02 0.  0.
         22    1    3    3    0    0  0.23035684978E+02 -0.37254863412E+02 -0.21069320286E+02  0.48605389491E+02  0.00000000000E+00 0.  1.
         22    1    4    4    0    0 -0.18005618734E+02  0.24013516284E+02 -0.14268007666E+01  0.30048078653E+02  0.00000000000E+00 0. -1.
         22    1    4    4    0    0 -0.50300662444E+01  0.13241347128E+02 -0.67232053806E+01  0.15679168689E+02  0.00000000000E+00 0. -1.
<mgrwt>
<rscale>  0 0.89693240E+02</rscale>
<asrwt>0</asrwt>
<pdfrwt beam="1">  1        1 0.50087162E-02 0.89693240E+02</pdfrwt>
<pdfrwt beam="2">  1       -1 0.95039971E-02 0.89693240E+02</pdfrwt>
<totfact> 0.92027167E+04</totfact>
</mgrwt>
</event>
<event>
 7    1  0.3345055E-009  0.9455239E+02  0.7818608E-02  0.1292187E+00
         -1   -1    0    0    0  501 -0.00000000000E+00  0.00000000000E+00  0.22890512692E+03  0.22890512697E+03  0.50400000000E-02 0.  1.
          1   -1    0    0  501    0  0.00000000000E+00 -0.00000000000E+00 -0.97640379613E+01  0.97640392621E+01  0.50400000000E-02 0. -1.
         23    2    1    2    0    0  0.00000000000E+00  0.00000000000E+00  0.21914108896E+03  0.23866916624E+03  0.94552387820E+02 0.  0.
    9000005    2    3    3    0    0  0.32259949827E+02 -0.29338300278E+01  0.19603393332E+03  0.19887906240E+03  0.86178145544E+01 0.  0.
         22    1    3    3    0    0 -0.32259949827E+02  0.29338300278E+01  0.23107155638E+02  0.39790103834E+02  0.00000000000E+00 0. -1.
         22    1    4    4    0    0  0.19167829155E+01 -0.24905023512E+01  0.16056155760E+02  0.16360831168E+02  0.00000000000E+00 0.  1.
         22    1    4    4    0    0  0.30343166911E+02 -0.44332767660E+00  0.17997777756E+03  0.18251823123E+03  0.00000000000E+00 0.  1.
<mgrwt>
<rscale>  0 0.94552388E+02</rscale>
<asrwt>0</asrwt>
<pdfrwt beam="2">  1        1 0.15021601E-02 0.94552388E+02</pdfrwt>
<pdfrwt beam="1">  1       -1 0.35216167E-01 0.94552388E+02</pdfrwt>
<totfact> 0.60618771E+04</totfact>
</mgrwt>
</event>
<event>
 7    1  0.3345055E-009  0.9178809E+02  0.7818608E-02  0.1298578E+00
         -1   -1    0    0    0  501 -0.00000000000E+00  0.00000000000E+00  0.49151270405E+03  0.49151270407E+03  0.50400000000E-02 0.  1.
          1   -1    0    0  501    0  0.00000000000E+00 -0.00000000000E+00 -0.42852662652E+01  0.42852692291E+01  0.50400000000E-02 0. -1.
         23    2    1    2    0    0  0.00000000000E+00  0.00000000000E+00  0.48722743778E+03  0.49579797330E+03  0.91788094015E+02 0.  0.
    9000005    2    3    3    0    0 -0.18736766255E+02 -0.40362840654E+02  0.26913628665E+03  0.27321321300E+03  0.15195185169E+02 0.  0.
         22    1    3    3    0    0  0.18736766255E+02  0.40362840654E+02  0.21809115113E+03  0.22258476030E+03  0.00000000000E+00 0. -1.
         22    1    4    4    0    0 -0.17572229126E+02 -0.41358931275E+02  0.26535691819E+03  0.26913498186E+03  0.00000000000E+00 0. -1.
         22    1    4    4    0    0 -0.11645371295E+01  0.99609062150E+00  0.37793684634E+01  0.40782311404E+01  0.00000000000E+00 0. -1.
<mgrwt>
<rscale>  0 0.91788094E+02</rscale>
<asrwt>0</asrwt>
<pdfrwt beam="2">  1        1 0.65927142E-03 0.91788094E+02</pdfrwt>
<pdfrwt beam="1">  1       -1 0.75617401E-01 0.91788094E+02</pdfrwt>
<totfact> 0.46711745E+04</totfact>
</mgrwt>
</event>
<event>
 7    1  0.3345055E-009  0.9026719E+02  0.7818608E-02  0.1302206E+00
         -1   -1    0    0    0  501 -0.00000000000E+00  0.00000000000E+00  0.87695008837E+01  0.87695023320E+01  0.50400000000E-02 0.  1.
          1   -1    0    0  501    0  0.00000000000E+00 -0.00000000000E+00 -0.23228703659E+03  0.23228703665E+03  0.50400000000E-02 0. -1.
         23    2    1    2    0    0  0.00000000000E+00  0.35527136788E-14 -0.22351753571E+03  0.24105653898E+03  0.90267193461E+02 0.  0.
    9000005    2    3    3    0    0  0.39540258053E+02  0.17709857366E+02 -0.13483245572E+03  0.14235438871E+03  0.14419078161E+02 0.  0.
         22    1    3    3    0    0 -0.39540258053E+02 -0.17709857366E+02 -0.88685079984E+02  0.98702150263E+02  0.00000000000E+00 0. -1.
         22    1    4    4    0    0  0.58175080942E+01  0.81604857197E+01 -0.40491591196E+02  0.41713377772E+02  0.00000000000E+00 0.  1.
         22    1    4    4    0    0  0.33722749959E+02  0.95493716460E+01 -0.94340864528E+02  0.10064101094E+03  0.00000000000E+00 0.  1.
<mgrwt>
<rscale>  0 0.90267193E+02</rscale>
<asrwt>0</asrwt>
<pdfrwt beam="2">  1        1 0.35736463E-01 0.90267193E+02</pdfrwt>
<pdfrwt beam="1">  1       -1 0.13491543E-02 0.90267193E+02</pdfrwt>
<totfact> 0.12522034E+05</totfact>
</mgrwt>
</event>
<event>
 7    1  0.3345055E-009  0.9115521E+02  0.7818608E-02  0.1300078E+00
         -1   -1    0    0    0  501 -0.00000000000E+00  0.00000000000E+00  0.49383180044E+02  0.49383180301E+02  0.50400000000E-02 0.  1.
          1   -1    0    0  501    0  0.00000000000E+00 -0.00000000000E+00 -0.42065298518E+02  0.42065298820E+02  0.50400000000E-02 0. -1.
         23    2    1    2    0    0 -0.88817841970E-15  0.00000000000E+00  0.73178815255E+01  0.91448479122E+02  0.91155213475E+02 0.  0.
    9000005    2    3    3    0    0  0.70361763912E+01  0.39314782165E+02  0.23641922303E+02  0.48301820129E+02  0.13377797376E+02 0.  0.
         22    1    3    3    0    0 -0.70361763912E+01 -0.39314782165E+02 -0.16324040778E+02  0.43146658993E+02  0.00000000000E+00 0.  1.
         22    1    4    4    0    0  0.71593731360E-01  0.28543595048E+02  0.11943838818E+02  0.30941836236E+02  0.00000000000E+00 0.  1.
         22    1    4    4    0    0  0.69645826598E+01  0.10771187118E+02  0.11698083485E+02  0.17359983893E+02  0.00000000000E+00 0.  1.
<mgrwt>
<rscale>  0 0.91155213E+02</rscale>
<asrwt>0</asrwt>
<pdfrwt beam="2">  1        1 0.64715845E-02 0.91155213E+02</pdfrwt>
<pdfrwt beam="1">  1       -1 0.75974123E-02 0.91155213E+02</pdfrwt>
<totfact> 0.91419222E+04</totfact>
</mgrwt>
</event>
<event>
 7    1  0.3345055E-009  0.9455161E+02  0.7818608E-02  0.1292189E+00
          1   -1    0    0  501    0  0.00000000000E+00  0.00000000000E+00  0.83782090875E+02  0.83782091026E+02  0.50400000000E-02 0. -1.
         -1   -1    0    0    0  501 -0.00000000000E+00 -0.00000000000E+00 -0.26676364111E+02  0.26676364587E+02  0.50400000000E-02 0.  1.
         23    2    1    2    0    0  0.00000000000E+00  0.00000000000E+00  0.57105726764E+02  0.11045845561E+03  0.94551607005E+02 0.  0.
    9000005    2    3    3    0    0 -0.34531824784E+02  0.25986916948E+02  0.50531621317E+02  0.66743633895E+02  0.57880166933E+01 0.  0.
         22    1    3    3    0    0  0.34531824784E+02 -0.25986916948E+02  0.65741054471E+01  0.43714821718E+02  0.00000000000E+00 0.  1.
         22    1    4    4    0    0 -0.11868959514E+02  0.10653883848E+02  0.22416639224E+02  0.27511509502E+02  0.00000000000E+00 0. -1.
         22    1    4    4    0    0 -0.22662865271E+02  0.15333033100E+02  0.28114982093E+02  0.39232124393E+02  0.00000000000E+00 0. -1.
<mgrwt>
<rscale>  0 0.94551607E+02</rscale>
<asrwt>0</asrwt>
<pdfrwt beam="1">  1        1 0.12889553E-01 0.94551607E+02</pdfrwt>
<pdfrwt beam="2">  1       -1 0.41040560E-02 0.94551607E+02</pdfrwt>
<totfact> 0.91832552E+04</totfact>
</mgrwt>
</event>
<event>
 7    1  0.3345055E-009  0.9274107E+02  0.7818608E-02  0.1296346E+00
         -1   -1    0    0    0  501 -0.00000000000E+00  0.00000000000E+00  0.46839760449E+02  0.46839760720E+02  0.50400000000E-02 0.  1.
          1   -1    0    0  501    0  0.00000000000E+00 -0.00000000000E+00 -0.45906010201E+02  0.45906010478E+02  0.50400000000E-02 0. -1.
         23    2    1    2    0    0  0.00000000000E+00  0.00000000000E+00  0.93375024745E+00  0.92745771198E+02  0.92741070652E+02 0.  0.
    9000005    2    3    3    0    0 -0.20694179439E+02 -0.20312665790E+02  0.36332671099E+02  0.46986214255E+02  0.68401671539E+01 0.  0.
         22    1    3    3    0    0  0.20694179439E+02  0.20312665790E+02 -0.35398920852E+02  0.45759556943E+02  0.00000000000E+00 0. -1.
         22    1    4    4    0    0 -0.66613140436E+00 -0.32058123426E+01  0.25570389283E+01  0.41544448371E+01  0.00000000000E+00 0.  1.
         22    1    4    4    0    0 -0.20028048035E+02 -0.17106853447E+02  0.33775632171E+02  0.42831769418E+02  0.00000000000E+00 0.  1.
<mgrwt>
<rscale>  0 0.92741071E+02</rscale>
<asrwt>0</asrwt>
<pdfrwt beam="2">  1        1 0.70624632E-02 0.92741071E+02</pdfrwt>
<pdfrwt beam="1">  1       -1 0.72061170E-02 0.92741071E+02</pdfrwt>
<totfact> 0.88244234E+04</totfact>
</mgrwt>
</event>
<event>
 7    1  0.3345055E-009  0.9238430E+02  0.7818608E-02  0.1297178E+00
         -1   -1    0    0    0  501 -0.00000000000E+00  0.00000000000E+00  0.17450498514E+03  0.17450498521E+03  0.50400000000E-02 0.  1.
          1   -1    0    0  501    0  0.00000000000E+00 -0.00000000000E+00 -0.12227242458E+02  0.12227243497E+02  0.50400000000E-02 0. -1.
         23    2    1    2    0    0  0.00000000000E+00  0.71054273576E-14  0.16227774268E+03  0.18673222871E+03  0.92384303153E+02 0.  0.
    9000005    2    3    3    0    0 -0.28815489331E+02  0.35543415282E+02  0.86131076979E+02  0.97895403615E+02  0.84427976454E+01 0.  0.
         22    1    3    3    0    0  0.28815489331E+02 -0.35543415282E+02  0.76146665703E+02  0.88836825095E+02  0.00000000000E+00 0. -1.
         22    1    4    4    0    0 -0.12851734789E+02  0.12274933846E+02  0.40747598502E+02  0.44454559627E+02  0.00000000000E+00 0. -1.
         22    1    4    4    0    0 -0.15963754543E+02  0.23268481435E+02  0.45383478478E+02  0.53440843988E+02  0.00000000000E+00 0. -1.
<mgrwt>
<rscale>  0 0.92384303E+02</rscale>
<asrwt>0</asrwt>
<pdfrwt beam="2">  1        1 0.18811143E-02 0.92384303E+02</pdfrwt>
<pdfrwt beam="1">  1       -1 0.26846921E-01 0.92384303E+02</pdfrwt>
<totfact> 0.69626057E+04</totfact>
</mgrwt>
</event>
<event>
 7    1  0.3345055E-009  0.9153919E+02  0.7818608E-02  0.1299167E+00
          1   -1    0    0  501    0  0.00000000000E+00  0.00000000000E+00  0.90532135446E+02  0.90532135586E+02  0.50400000000E-02 0. -1.
         -1   -1    0    0    0  501 -0.00000000000E+00 -0.00000000000E+00 -0.23139362678E+02  0.23139363227E+02  0.50400000000E-02 0.  1.
         23    2    1    2    0    0  0.00000000000E+00  0.00000000000E+00  0.67392772768E+02  0.11367149881E+03  0.91539192815E+02 0.  0.
    9000005    2    3    3    0    0 -0.17957819329E+02  0.37101711768E+02  0.57905319739E+02  0.71374547906E+02  0.65022875601E+01 0.  0.
         22    1    3    3    0    0  0.17957819329E+02 -0.37101711768E+02  0.94874530285E+01  0.42296950908E+02  0.00000000000E+00 0.  1.
         22    1    4    4    0    0 -0.68925443597E+01  0.21244231740E+02  0.32906071369E+02  0.39769763425E+02  0.00000000000E+00 0. -1.
         22    1    4    4    0    0 -0.11065274970E+02  0.15857480028E+02  0.24999248370E+02  0.31604784480E+02  0.00000000000E+00 0. -1.
<mgrwt>
<rscale>  0 0.91539193E+02</rscale>
<asrwt>0</asrwt>
<pdfrwt beam="1">  1        1 0.13928021E-01 0.91539193E+02</pdfrwt>
<pdfrwt beam="2">  1       -1 0.35599020E-02 0.91539193E+02</pdfrwt>
<totfact> 0.10164897E+05</totfact>
</mgrwt>
</event>
<event>
 7    1  0.3345055E-009  0.9320585E+02  0.7818608E-02  0.1295269E+00
          1   -1    0    0  501    0  0.00000000000E+00  0.00000000000E+00  0.34080859905E+02  0.34080860278E+02  0.50400000000E-02 0. -1.
         -1   -1    0    0    0  501 -0.00000000000E+00 -0.00000000000E+00 -0.63725874230E+02  0.63725874429E+02  0.50400000000E-02 0.  1.
         23    2    1    2    0    0  0.00000000000E+00  0.35527136788E-14 -0.29645014325E+02  0.97806734707E+02  0.93205850030E+02 0.  0.
    9000005    2    3    3    0    0  0.39527418676E+02 -0.17825397189E+02 -0.32352962518E+02  0.54361428913E+02  0.53187552684E+01 0.  0.
         22    1    3    3    0    0 -0.39527418676E+02  0.17825397189E+02  0.27079481932E+01  0.43445305794E+02  0.00000000000E+00 0. -1.
         22    1    4    4    0    0  0.31595106458E+01 -0.34188510942E-01 -0.29690516209E+01  0.43357748907E+01  0.00000000000E+00 0. -1.
         22    1    4    4    0    0  0.36367908030E+02 -0.17791208678E+02 -0.29383910897E+02  0.50025654022E+02  0.00000000000E+00 0. -1.
<mgrwt>
<rscale>  0 0.93205850E+02</rscale>
<asrwt>0</asrwt>
<pdfrwt beam="1">  1        1 0.52432092E-02 0.93205850E+02</pdfrwt>
<pdfrwt beam="2">  1       -1 0.98039807E-02 0.93205850E+02</pdfrwt>
<totfact> 0.83063705E+04</totfact>
</mgrwt>
</event>
<event>
 7    1  0.3345055E-009  0.8836538E+02  0.7818608E-02  0.1306859E+00
          1   -1    0    0  501    0  0.00000000000E+00  0.00000000000E+00  0.46424141020E+03  0.46424141023E+03  0.50400000000E-02 0. -1.
         -1   -1    0    0    0  501 -0.00000000000E+00 -0.00000000000E+00 -0.42049447036E+01  0.42049477241E+01  0.50400000000E-02 0.  1.
         23    2    1    2    0    0  0.00000000000E+00  0.00000000000E+00  0.46003646550E+03  0.46844635795E+03  0.88365381749E+02 0.  0.
    9000005    2    3    3    0    0  0.36903840494E+01  0.41441034653E+02  0.30235092836E+03  0.30536445549E+03  0.10019406703E+02 0.  0.
         22    1    3    3    0    0 -0.36903840494E+01 -0.41441034653E+02  0.15768553714E+03  0.16308190246E+03  0.00000000000E+00 0.  1.
         22    1    4    4    0    0  0.25317231332E+01  0.35397401192E+02  0.22637825822E+03  0.22914297158E+03  0.00000000000E+00 0. -1.
         22    1    4    4    0    0  0.11586609162E+01  0.60436334609E+01  0.75972670144E+02  0.76221483909E+02  0.00000000000E+00 0. -1.
<mgrwt>
<rscale>  0 0.88365382E+02</rscale>
<asrwt>0</asrwt>
<pdfrwt beam="1">  1        1 0.71421774E-01 0.88365382E+02</pdfrwt>
<pdfrwt beam="2">  1       -1 0.64691464E-03 0.88365382E+02</pdfrwt>
<totfact> 0.14987838E+05</totfact>
</mgrwt>
</event>
<event>
 7    1  0.3345055E-009  0.9031085E+02  0.7818608E-02  0.1302101E+00
          1   -1    0    0  501    0  0.00000000000E+00  0.00000000000E+00  0.38399689206E+01  0.38399722282E+01  0.50400000000E-02 0.  1.
         -1   -1    0    0    0  501 -0.00000000000E+00 -0.00000000000E+00 -0.53099692620E+03  0.53099692623E+03  0.50400000000E-02 0. -1.
         23    2    1    2    0    0  0.00000000000E+00 -0.17763568394E-14 -0.52715695728E+03  0.53483689845E+03  0.90310853931E+02 0.  0.
    9000005    2    3    3    0    0 -0.11986236234E+02 -0.15164250496E+02 -0.50442393335E+03  0.50499708061E+03  0.14315115467E+02 0.  0.
         22    1    3    3    0    0  0.11986236234E+02  0.15164250496E+02 -0.22733023928E+02  0.29839817846E+02  0.00000000000E+00 0.  1.
         22    1    4    4    0    0 -0.74044606261E+01 -0.12684848675E+02 -0.20403662330E+03  0.20456459877E+03  0.00000000000E+00 0.  1.
         22    1    4    4    0    0 -0.45817756082E+01 -0.24794018213E+01 -0.30038731005E+03  0.30043248184E+03  0.00000000000E+00 0.  1.
<mgrwt>
<rscale>  0 0.90310854E+02</rscale>
<asrwt>0</asrwt>
<pdfrwt beam="1">  1        1 0.59076513E-03 0.90310854E+02</pdfrwt>
<pdfrwt beam="2">  1       -1 0.81691777E-01 0.90310854E+02</pdfrwt>
<totfact> 0.46429080E+04</totfact>
</mgrwt>
</event>
<event>
 7    1  0.3345055E-009  0.8632753E+02  0.7818608E-02  0.1311997E+00
         -1   -1    0    0    0  501 -0.00000000000E+00  0.00000000000E+00  0.39073285564E+02  0.39073285889E+02  0.50400000000E-02 0.  1.
          1   -1    0    0  501    0  0.00000000000E+00 -0.00000000000E+00 -0.47682460811E+02  0.47682461077E+02  0.50400000000E-02 0. -1.
         23    2    1    2    0    0  0.00000000000E+00  0.00000000000E+00 -0.86091752468E+01  0.86755746966E+02  0.86327525930E+02 0.  0.
    9000005    2    3    3    0    0 -0.32380895842E+02 -0.78022542335E+01 -0.31782866356E+02  0.46179675862E+02  0.36075313295E+01 0.  0.
         22    1    3    3    0    0  0.32380895842E+02  0.78022542335E+01  0.23173691109E+02  0.40576071104E+02  0.00000000000E+00 0.  1.
         22    1    4    4    0    0 -0.31099573051E+02 -0.67487434539E+01 -0.29842183434E+02  0.43626653484E+02  0.00000000000E+00 0.  1.
         22    1    4    4    0    0 -0.12813227911E+01 -0.10535107796E+01 -0.19406829218E+01  0.25530223776E+01  0.00000000000E+00 0.  1.
<mgrwt>
<rscale>  0 0.86327526E+02</rscale>
<asrwt>0</asrwt>
<pdfrwt beam="2">  1        1 0.73357633E-02 0.86327526E+02</pdfrwt>
<pdfrwt beam="1">  1       -1 0.60112747E-02 0.86327526E+02</pdfrwt>
<totfact> 0.10841284E+05</totfact>
</mgrwt>
</event>
<event>
 7    1  0.3345055E-009  0.8738104E+02  0.7818608E-02  0.1309321E+00
         -1   -1    0    0    0  501 -0.00000000000E+00  0.00000000000E+00  0.12951970448E+01  0.12952068508E+01  0.50400000000E-02 0.  1.
          1   -1    0    0  501    0  0.00000000000E+00 -0.00000000000E+00 -0.14737944667E+04  0.14737944668E+04  0.50400000000E-02 0. -1.
         23    2    1    2    0    0  0.00000000000E+00  0.88817841970E-15 -0.14724992697E+04  0.14750896736E+04  0.87381038600E+02 0.  0.
    9000005    2    3    3    0    0 -0.18183934070E+02  0.78135773662E+01 -0.13916014792E+04  0.13918060620E+04  0.13331539063E+02 0.  0.
         22    1    3    3    0    0  0.18183934070E+02 -0.78135773662E+01 -0.80897790485E+02  0.83283611562E+02  0.00000000000E+00 0.  1.
         22    1    4    4    0    0 -0.52972142091E+00  0.51632692773E+01 -0.49264781779E+03  0.49267515903E+03  0.00000000000E+00 0.  1.
         22    1    4    4    0    0 -0.17654212649E+02  0.26503080889E+01 -0.89895366143E+03  0.89913090301E+03  0.00000000000E+00 0.  1.
<mgrwt>
<rscale>  0 0.87381039E+02</rscale>
<asrwt>0</asrwt>
<pdfrwt beam="2">  1        1 0.22673627E+00 0.87381039E+02</pdfrwt>
<pdfrwt beam="1">  1       -1 0.19926302E-03 0.87381039E+02</pdfrwt>
<totfact> 0.12541856E+05</totfact>
</mgrwt>
</event>
<event>
 7    1  0.3345055E-009  0.8949491E+02  0.7818608E-02  0.1304079E+00
          1   -1    0    0  501    0  0.00000000000E+00  0.00000000000E+00  0.21491281096E+01  0.21491340194E+01  0.50400000000E-02 0. -1.
         -1   -1    0    0    0  501 -0.00000000000E+00 -0.00000000000E+00 -0.93169496492E+03  0.93169496493E+03  0.50400000000E-02 0.  1.
         23    2    1    2    0    0  0.00000000000E+00  0.00000000000E+00 -0.92954583681E+03  0.93384409895E+03  0.89494907217E+02 0.  0.
    9000005    2    3    3    0    0  0.31632789105E+02 -0.49904196831E+00 -0.79005968065E+03  0.79081518527E+03  0.13909560463E+02 0.  0.
         22    1    3    3    0    0 -0.31632789105E+02  0.49904196831E+00 -0.13948615616E+03  0.14302891368E+03  0.00000000000E+00 0. -1.
         22    1    4    4    0    0 -0.14070651189E+01 -0.16204674395E+00 -0.46816375723E+02  0.46837795927E+02  0.00000000000E+00 0.  1.
         22    1    4    4    0    0  0.33039854224E+02 -0.33699522435E+00 -0.74324330493E+03  0.74397738934E+03  0.00000000000E+00 0.  1.
<mgrwt>
<rscale>  0 0.89494907E+02</rscale>
<asrwt>0</asrwt>
<pdfrwt beam="1">  1        1 0.33063629E-03 0.89494907E+02</pdfrwt>
<pdfrwt beam="2">  1       -1 0.14333737E+00 0.89494907E+02</pdfrwt>
<totfact> 0.29249728E+04</totfact>
</mgrwt>
</event>
<event>
 7    1  0.3345055E-009  0.8872737E+02  0.7818608E-02  0.1305963E+00
          1   -1    0    0  501    0  0.00000000000E+00  0.00000000000E+00  0.37983490223E+03  0.37983490226E+03  0.50400000000E-02 0. -1.
         -1   -1    0    0    0  501 -0.00000000000E+00 -0.00000000000E+00 -0.51815563438E+01  0.51815587950E+01  0.50400000000E-02 0.  1.
         23    2    1    2    0    0 -0.35527136788E-14 -0.35527136788E-14  0.37465334589E+03  0.38501646106E+03  0.88727367268E+02 0.  0.
    9000005    2    3    3    0    0 -0.26160900319E+02 -0.31575171496E+02  0.25825907484E+03  0.26161058400E+03  0.78079294592E+01 0.  0.
         22    1    3    3    0    0  0.26160900319E+02  0.31575171496E+02  0.11639427104E+03  0.12340587706E+03  0.00000000000E+00 0.  1.
         22    1    4    4    0    0 -0.45993306249E+01 -0.18136367367E+01  0.26854830322E+02  0.27306135429E+02  0.00000000000E+00 0.  1.
         22    1    4    4    0    0 -0.21561569694E+02 -0.29761534759E+02  0.23140424452E+03  0.23430444857E+03  0.00000000000E+00 0.  1.
<mgrwt>
<rscale>  0 0.88727367E+02</rscale>
<asrwt>0</asrwt>
<pdfrwt beam="1">  1        1 0.58436155E-01 0.88727367E+02</pdfrwt>
<pdfrwt beam="2">  1       -1 0.79716249E-03 0.88727367E+02</pdfrwt>
<totfact> 0.14374315E+05</totfact>
</mgrwt>
</event>
<event>
 7    1  0.3345055E-009  0.9109441E+02  0.7818608E-02  0.1300223E+00
          1   -1    0    0  501    0  0.00000000000E+00  0.00000000000E+00  0.21792585166E+03  0.21792585172E+03  0.50400000000E-02 0. -1.
         -1   -1    0    0    0  501 -0.00000000000E+00 -0.00000000000E+00 -0.95195114433E+01  0.95195127775E+01  0.50400000000E-02 0.  1.
         23    2    1    2    0    0  0.00000000000E+00  0.00000000000E+00  0.20840634022E+03  0.22744536450E+03  0.91094408106E+02 0.  0.
    9000005    2    3    3    0    0 -0.44121116467E+02 -0.28092743993E+01  0.10919301972E+03  0.11882746585E+03  0.15565543527E+02 0.  0.
         22    1    3    3    0    0  0.44121116467E+02  0.28092743993E+01  0.99213320503E+02  0.10861789865E+03  0.00000000000E+00 0. -1.
         22    1    4    4    0    0 -0.28411344919E+02 -0.90983929266E+01  0.65580932654E+02  0.72047512113E+02  0.00000000000E+00 0.  1.
         22    1    4    4    0    0 -0.15709771548E+02  0.62891185273E+01  0.43612087062E+02  0.46779953739E+02  0.00000000000E+00 0.  1.
<mgrwt>
<rscale>  0 0.91094408E+02</rscale>
<asrwt>0</asrwt>
<pdfrwt beam="1">  1        1 0.33527053E-01 0.91094408E+02</pdfrwt>
<pdfrwt beam="2">  1       -1 0.14645404E-02 0.91094408E+02</pdfrwt>
<totfact> 0.12069270E+05</totfact>
</mgrwt>
</event>
<event>
 7    1  0.3345055E-009  0.9137218E+02  0.7818608E-02  0.1299562E+00
         -1   -1    0    0    0  501 -0.00000000000E+00  0.00000000000E+00  0.40353395000E+01  0.40353426474E+01  0.50400000000E-02 0.  1.
          1   -1    0    0  501    0  0.00000000000E+00 -0.00000000000E+00 -0.51723475491E+03  0.51723475494E+03  0.50400000000E-02 0. -1.
         23    2    1    2    0    0  0.00000000000E+00  0.00000000000E+00 -0.51319941541E+03  0.52127009759E+03  0.91372176597E+02 0.  0.
    9000005    2    3    3    0    0 -0.40438266954E+01 -0.43605515918E+02 -0.33041173356E+03  0.33330964912E+03  0.23695916435E+01 0.  0.
         22    1    3    3    0    0  0.40438266954E+01  0.43605515918E+02 -0.18278768185E+03  0.18796044847E+03  0.00000000000E+00 0.  1.
         22    1    4    4    0    0 -0.25773433868E+01 -0.17907636958E+02 -0.14193620750E+03  0.14308463635E+03  0.00000000000E+00 0.  1.
         22    1    4    4    0    0 -0.14664833086E+01 -0.25697878960E+02 -0.18847552606E+03  0.19022501276E+03  0.00000000000E+00 0.  1.
<mgrwt>
<rscale>  0 0.91372177E+02</rscale>
<asrwt>0</asrwt>
<pdfrwt beam="2">  1        1 0.79574525E-01 0.91372177E+02</pdfrwt>
<pdfrwt beam="1">  1       -1 0.62082212E-03 0.91372177E+02</pdfrwt>
<totfact> 0.13901082E+05</totfact>
</mgrwt>
</event>
<event>
 7    1  0.3345055E-009  0.9199685E+02  0.7818608E-02  0.1298087E+00
          1   -1    0    0  501    0  0.00000000000E+00  0.00000000000E+00  0.15068310430E+02  0.15068311272E+02  0.50400000000E-02 0. -1.
         -1   -1    0    0    0  501 -0.00000000000E+00 -0.00000000000E+00 -0.14041753496E+03  0.14041753505E+03  0.50400000000E-02 0.  1.
         23    2    1    2    0    0 -0.17763568394E-14 -0.88817841970E-15 -0.12534922453E+03  0.15548584632E+03  0.91996849492E+02 0.  0.
    9000005    2    3    3    0    0 -0.14231017338E+02 -0.34673884301E+01 -0.13609311151E+03  0.13732061183E+03  0.11003217544E+02 0.  0.
         22    1    3    3    0    0  0.14231017338E+02  0.34673884301E+01  0.10743886974E+02  0.18165234497E+02  0.00000000000E+00 0. -1.
         22    1    4    4    0    0 -0.85712817409E+01  0.35208044374E+01 -0.63463853630E+02  0.64136757418E+02  0.00000000000E+00 0.  1.
         22    1    4    4    0    0 -0.56597355973E+01 -0.69881928675E+01 -0.72629257876E+02  0.73183854409E+02  0.00000000000E+00 0.  1.
<mgrwt>
<rscale>  0 0.91996849E+02</rscale>
<asrwt>0</asrwt>
<pdfrwt beam="1">  1        1 0.23182018E-02 0.91996849E+02</pdfrwt>
<pdfrwt beam="2">  1       -1 0.21602697E-01 0.91996849E+02</pdfrwt>
<totfact> 0.74185045E+04</totfact>
</mgrwt>
</event>
<event>
 7    1  0.3345055E-009  0.1013790E+03  0.7818608E-02  0.1277423E+00
         -1   -1    0    0    0  501 -0.00000000000E+00  0.00000000000E+00  0.10289866030E+02  0.10289867264E+02  0.50400000000E-02 0.  1.
          1   -1    0    0  501    0  0.00000000000E+00 -0.00000000000E+00 -0.24970430037E+03  0.24970430042E+03  0.50400000000E-02 0. -1.
         23    2    1    2    0    0  0.00000000000E+00  0.00000000000E+00 -0.23941443434E+03  0.25999416769E+03  0.10137897149E+03 0.  0.
    9000005    2    3    3    0    0 -0.38852246744E+02 -0.80365087385E+01 -0.42427510939E+02  0.59051562594E+02  0.10625949867E+02 0.  0.
         22    1    3    3    0    0  0.38852246744E+02  0.80365087385E+01 -0.19698692340E+03  0.20094260509E+03  0.00000000000E+00 0.  1.
         22    1    4    4    0    0 -0.11125343971E+02 -0.56246497573E+01 -0.18721868441E+02  0.22492628154E+02  0.00000000000E+00 0. -1.
         22    1    4    4    0    0 -0.27726902773E+02 -0.24118589812E+01 -0.23705642498E+02  0.36558934440E+02  0.00000000000E+00 0. -1.
<mgrwt>
<rscale>  0 0.10137897E+03</rscale>
<asrwt>0</asrwt>
<pdfrwt beam="2">  1        1 0.38416042E-01 0.10137897E+03</pdfrwt>
<pdfrwt beam="1">  1       -1 0.15830566E-02 0.10137897E+03</pdfrwt>
<totfact> 0.92969868E+04</totfact>
</mgrwt>
</event>
<event>
 7    1  0.3345055E-009  0.9141610E+02  0.7818608E-02  0.1299458E+00
          1   -1    0    0  501    0  0.00000000000E+00  0.00000000000E+00  0.32831645834E+02  0.32831646221E+02  0.50400000000E-02 0. -1.
         -1   -1    0    0    0  501 -0.00000000000E+00 -0.00000000000E+00 -0.63634517479E+02  0.63634517678E+02  0.50400000000E-02 0.  1.
         23    2    1    2    0    0  0.00000000000E+00  0.00000000000E+00 -0.30802871644E+02  0.96466163900E+02  0.91416102936E+02 0.  0.
    9000005    2    3    3    0    0 -0.26054371801E+02 -0.84257198352E+00  0.22991035545E+02  0.36688871655E+02  0.11745014703E+02 0.  0.
         22    1    3    3    0    0  0.26054371801E+02  0.84257198352E+00 -0.53793907189E+02  0.59777292245E+02  0.00000000000E+00 0.  1.
         22    1    4    4    0    0 -0.14657857655E+02  0.46636780464E+01  0.16143469174E+02  0.22298302198E+02  0.00000000000E+00 0. -1.
         22    1    4    4    0    0 -0.11396514147E+02 -0.55062500299E+01  0.68475663702E+01  0.14390569456E+02  0.00000000000E+00 0. -1.
<mgrwt>
<rscale>  0 0.91416103E+02</rscale>
<asrwt>0</asrwt>
<pdfrwt beam="1">  1        1 0.50510225E-02 0.91416103E+02</pdfrwt>
<pdfrwt beam="2">  1       -1 0.97899258E-02 0.91416103E+02</pdfrwt>
<totfact> 0.87283059E+04</totfact>
</mgrwt>
</event>
<event>
 7    1  0.3345055E-009  0.9046352E+02  0.7818608E-02  0.1301733E+00
          1   -1    0    0  501    0  0.00000000000E+00  0.00000000000E+00  0.15851284370E+03  0.15851284378E+03  0.50400000000E-02 0. -1.
         -1   -1    0    0    0  501 -0.00000000000E+00 -0.00000000000E+00 -0.12906915979E+02  0.12906916963E+02  0.50400000000E-02 0.  1.
         23    2    1    2    0    0  0.00000000000E+00  0.00000000000E+00  0.14560592772E+03  0.17141976074E+03  0.90463518534E+02 0.  0.
    9000005    2    3    3    0    0 -0.27676080135E+02  0.28439994182E+01  0.74226168345E+01  0.30463451370E+02  0.99434845198E+01 0.  0.
         22    1    3    3    0    0  0.27676080135E+02 -0.28439994182E+01  0.13818331089E+03  0.14095630937E+03  0.00000000000E+00 0. -1.
         22    1    4    4    0    0 -0.21547699046E+02  0.15850284330E+01  0.98595438218E+01  0.23749236907E+02  0.00000000000E+00 0. -1.
         22    1    4    4    0    0 -0.61283810888E+01  0.12589709852E+01 -0.24369269873E+01  0.67142144628E+01  0.00000000000E+00 0. -1.
<mgrwt>
<rscale>  0 0.90463519E+02</rscale>
<asrwt>0</asrwt>
<pdfrwt beam="1">  1        1 0.24386589E-01 0.90463519E+02</pdfrwt>
<pdfrwt beam="2">  1       -1 0.19856797E-02 0.90463519E+02</pdfrwt>
<totfact> 0.11570354E+05</totfact>
</mgrwt>
</event>
<event>
 7    1  0.3345055E-009  0.8919861E+02  0.7818608E-02  0.1304804E+00
         -1   -1    0    0    0  501 -0.00000000000E+00  0.00000000000E+00  0.73088559563E+02  0.73088559736E+02  0.50400000000E-02 0.  1.
          1   -1    0    0  501    0  0.00000000000E+00 -0.00000000000E+00 -0.27214902339E+02  0.27214902806E+02  0.50400000000E-02 0. -1.
         23    2    1    2    0    0 -0.35527136788E-14  0.35527136788E-14  0.45873657223E+02  0.10030346254E+03  0.89198610813E+02 0.  0.
    9000005    2    3    3    0    0  0.24224120762E+02 -0.31918187530E+02  0.42554794703E+01  0.42531051814E+02  0.13608914025E+02 0.  0.
         22    1    3    3    0    0 -0.24224120762E+02  0.31918187530E+02  0.41618177753E+02  0.57772410729E+02  0.00000000000E+00 0.  1.
         22    1    4    4    0    0 -0.17467019608E+01 -0.19692451823E+01  0.73990725000E+00  0.27342927909E+01  0.00000000000E+00 0.  1.
         22    1    4    4    0    0  0.25970822723E+02 -0.29948942348E+02  0.35155722203E+01  0.39796759023E+02  0.00000000000E+00 0.  1.
<mgrwt>
<rscale>  0 0.89198611E+02</rscale>
<asrwt>0</asrwt>
<pdfrwt beam="2">  1        1 0.41869082E-02 0.89198611E+02</pdfrwt>
<pdfrwt beam="1">  1       -1 0.11244394E-01 0.89198611E+02</pdfrwt>
<totfact> 0.90876995E+04</totfact>
</mgrwt>
</event>
<event>
 7    1  0.3345055E-009  0.9193383E+02  0.7818608E-02  0.1298235E+00
         -1   -1    0    0    0  501 -0.00000000000E+00  0.00000000000E+00  0.13536092279E+03  0.13536092288E+03  0.50400000000E-02 0.  1.
          1   -1    0    0  501    0  0.00000000000E+00 -0.00000000000E+00 -0.15609801499E+02  0.15609802312E+02  0.50400000000E-02 0. -1.
         23    2    1    2    0    0  0.00000000000E+00  0.35527136788E-14  0.11975112129E+03  0.15097072519E+03  0.91933828461E+02 0.  0.
    9000005    2    3    3    0    0 -0.34884937082E+02 -0.29088973961E+02  0.62029994935E+02  0.77521043990E+02  0.99330130616E+01 0.  0.
         22    1    3    3    0    0  0.34884937082E+02  0.29088973961E+02  0.57721126352E+02  0.73449681201E+02  0.00000000000E+00 0. -1.
         22    1    4    4    0    0 -0.44041004840E+01 -0.61449159740E+00  0.35532872328E+01  0.56920603612E+01  0.00000000000E+00 0. -1.
         22    1    4    4    0    0 -0.30480836598E+02 -0.28474482363E+02  0.58476707702E+02  0.71828983629E+02  0.00000000000E+00 0. -1.
<mgrwt>
<rscale>  0 0.91933828E+02</rscale>
<asrwt>0</asrwt>
<pdfrwt beam="2">  1        1 0.24015081E-02 0.91933828E+02</pdfrwt>
<pdfrwt beam="1">  1       -1 0.20824757E-01 0.91933828E+02</pdfrwt>
<totfact> 0.74926094E+04</totfact>
</mgrwt>
</event>
<event>
 7    1  0.3345055E-009  0.9035382E+02  0.7818608E-02  0.1301997E+00
         -1   -1    0    0    0  501 -0.00000000000E+00  0.00000000000E+00  0.73563547897E+02  0.73563548070E+02  0.50400000000E-02 0.  1.
          1   -1    0    0  501    0  0.00000000000E+00 -0.00000000000E+00 -0.27744085518E+02  0.27744085976E+02  0.50400000000E-02 0. -1.
         23    2    1    2    0    0  0.00000000000E+00  0.00000000000E+00  0.45819462379E+02  0.10130763405E+03  0.90353824398E+02 0.  0.
    9000005    2    3    3    0    0  0.12889719748E+02 -0.31421574257E+02  0.55969513295E+02  0.65860719686E+02  0.71824630213E+01 0.  0.
         22    1    3    3    0    0 -0.12889719748E+02  0.31421574257E+02 -0.10150050917E+02  0.35446914360E+02  0.00000000000E+00 0. -1.
         22    1    4    4    0    0  0.87907040326E+01 -0.12072072859E+02  0.24364003462E+02  0.28576495328E+02  0.00000000000E+00 0. -1.
         22    1    4    4    0    0  0.40990157157E+01 -0.19349501398E+02  0.31605509833E+02  0.37284224359E+02  0.00000000000E+00 0. -1.
<mgrwt>
<rscale>  0 0.90353824E+02</rscale>
<asrwt>0</asrwt>
<pdfrwt beam="2">  1        1 0.42683210E-02 0.90353824E+02</pdfrwt>
<pdfrwt beam="1">  1       -1 0.11317469E-01 0.90353824E+02</pdfrwt>
<totfact> 0.87850985E+04</totfact>
</mgrwt>
</event>
<event>
 7    1  0.3345055E-009  0.8976647E+02  0.7818608E-02  0.1303418E+00
         -1   -1    0    0    0  501 -0.00000000000E+00  0.00000000000E+00  0.68961342734E+03  0.68961342736E+03  0.50400000000E-02 0.  1.
          1   -1    0    0  501    0  0.00000000000E+00 -0.00000000000E+00 -0.29212062807E+01  0.29212106285E+01  0.50400000000E-02 0. -1.
         23    2    1    2    0    0  0.00000000000E+00  0.00000000000E+00  0.68669222106E+03  0.69253463799E+03  0.89766465611E+02 0.  0.
    9000005    2    3    3    0    0 -0.17796603623E+02 -0.99226959479E+01  0.65126519914E+03  0.65166591061E+03  0.10340234225E+02 0.  0.
         22    1    3    3    0    0  0.17796603623E+02  0.99226959479E+01  0.35427021919E+02  0.40868727377E+02  0.00000000000E+00 0. -1.
         22    1    4    4    0    0 -0.88465900307E+01  0.43407183083E+00  0.30948840533E+03  0.30961512174E+03  0.00000000000E+00 0. -1.
         22    1    4    4    0    0 -0.89500135927E+01 -0.10356767779E+02  0.34177679381E+03  0.34205078887E+03  0.00000000000E+00 0. -1.
<mgrwt>
<rscale>  0 0.89766466E+02</rscale>
<asrwt>0</asrwt>
<pdfrwt beam="2">  1        1 0.44941662E-03 0.89766466E+02</pdfrwt>
<pdfrwt beam="1">  1       -1 0.10609439E+00 0.89766466E+02</pdfrwt>
<totfact> 0.38871997E+04</totfact>
</mgrwt>
</event>
<event>
 7    1  0.3345055E-009  0.9335315E+02  0.7818608E-02  0.1294929E+00
         -1   -1    0    0    0  501 -0.00000000000E+00  0.00000000000E+00  0.42173703978E+03  0.42173703981E+03  0.50400000000E-02 0.  1.
          1   -1    0    0  501    0  0.00000000000E+00 -0.00000000000E+00 -0.51660202507E+01  0.51660227092E+01  0.50400000000E-02 0. -1.
         23    2    1    2    0    0 -0.52735593670E-15  0.00000000000E+00  0.41657101953E+03  0.42690306252E+03  0.93353149260E+02 0.  0.
    9000005    2    3    3    0    0 -0.21191328430E+00  0.18586691546E+02  0.40337402387E+03  0.40410677545E+03  0.15689895473E+02 0.  0.
         22    1    3    3    0    0  0.21191328430E+00 -0.18586691546E+02  0.13196995662E+02  0.22796287074E+02  0.00000000000E+00 0. -1.
         22    1    4    4    0    0 -0.46098243002E+01  0.17574116293E+02  0.36767426701E+03  0.36812289614E+03  0.00000000000E+00 0. -1.
         22    1    4    4    0    0  0.43979110159E+01  0.10125752525E+01  0.35699756863E+02  0.35983879307E+02  0.00000000000E+00 0. -1.
<mgrwt>
<rscale>  0 0.93353149E+02</rscale>
<asrwt>0</asrwt>
<pdfrwt beam="2">  1        1 0.79477229E-03 0.93353149E+02</pdfrwt>
<pdfrwt beam="1">  1       -1 0.64882642E-01 0.93353149E+02</pdfrwt>
<totfact> 0.48738759E+04</totfact>
</mgrwt>
</event>
<event>
 7    1  0.3345055E-009  0.9093818E+02  0.7818608E-02  0.1300596E+00
         -1   -1    0    0    0  501 -0.00000000000E+00  0.00000000000E+00  0.51604019082E+01  0.51604043694E+01  0.50400000000E-02 0.  1.
          1   -1    0    0  501    0  0.00000000000E+00 -0.00000000000E+00 -0.40063500892E+03  0.40063500895E+03  0.50400000000E-02 0. -1.
         23    2    1    2    0    0 -0.71054273576E-14  0.00000000000E+00 -0.39547460701E+03  0.40579541332E+03  0.90938180548E+02 0.  0.
    9000005    2    3    3    0    0  0.34067175729E+02 -0.28407080822E+02 -0.15480749770E+03  0.16107477216E+03  0.34908711178E+01 0.  0.
         22    1    3    3    0    0 -0.34067175729E+02  0.28407080822E+02 -0.24066710931E+03  0.24472064116E+03  0.00000000000E+00 0.  1.
         22    1    4    4    0    0  0.30469035031E+02 -0.23923201663E+02 -0.13569882578E+03  0.14111999501E+03  0.00000000000E+00 0.  1.
         22    1    4    4    0    0  0.35981406975E+01 -0.44838791590E+01 -0.19108671918E+02  0.19954777154E+02  0.00000000000E+00 0.  1.
<mgrwt>
<rscale>  0 0.90938181E+02</rscale>
<asrwt>0</asrwt>
<pdfrwt beam="2">  1        1 0.61636131E-01 0.90938181E+02</pdfrwt>
<pdfrwt beam="1">  1       -1 0.79390849E-03 0.90938181E+02</pdfrwt>
<totfact> 0.13586882E+05</totfact>
</mgrwt>
</event>
<event>
 7    1  0.3345055E-009  0.1163107E+03  0.7818608E-02  0.1249310E+00
         -1   -1    0    0    0  501 -0.00000000000E+00  0.00000000000E+00  0.68181366724E+02  0.68181366910E+02  0.50400000000E-02 0.  1.
          1   -1    0    0  501    0  0.00000000000E+00 -0.00000000000E+00 -0.49603651786E+02  0.49603652042E+02  0.50400000000E-02 0. -1.
         23    2    1    2    0    0  0.00000000000E+00  0.00000000000E+00  0.18577714938E+02  0.11778501895E+03  0.11631070113E+03 0.  0.
    9000005    2    3    3    0    0 -0.33801213508E+02  0.25618610994E+02 -0.30178672779E+02  0.53162881824E+02  0.10802983350E+02 0.  0.
         22    1    3    3    0    0  0.33801213508E+02 -0.25618610994E+02  0.48756387717E+02  0.64622137129E+02  0.00000000000E+00 0.  1.
         22    1    4    4    0    0 -0.33499767138E+00  0.28453289113E+01 -0.36319533116E+00  0.28879111658E+01  0.00000000000E+00 0. -1.
         22    1    4    4    0    0 -0.33466215836E+02  0.22773282083E+02 -0.29815477448E+02  0.50274970658E+02  0.00000000000E+00 0. -1.
<mgrwt>
<rscale>  0 0.11631070E+03</rscale>
<asrwt>0</asrwt>
<pdfrwt beam="2">  1        1 0.76313312E-02 0.11631070E+03</pdfrwt>
<pdfrwt beam="1">  1       -1 0.10489441E-01 0.11631070E+03</pdfrwt>
<totfact> 0.46727022E+04</totfact>
</mgrwt>
</event>
<event>
 7    1  0.3345055E-009  0.8413541E+02  0.7818608E-02  0.1317709E+00
          1   -1    0    0  501    0  0.00000000000E+00  0.00000000000E+00  0.13510479794E+02  0.13510480734E+02  0.50400000000E-02 0. -1.
         -1   -1    0    0    0  501 -0.00000000000E+00 -0.00000000000E+00 -0.13098659492E+03  0.13098659502E+03  0.50400000000E-02 0.  1.
         23    2    1    2    0    0  0.00000000000E+00  0.00000000000E+00 -0.11747611512E+03  0.14449707575E+03  0.84135410355E+02 0.  0.
    9000005    2    3    3    0    0 -0.82133397464E+01  0.21755989711E+02 -0.11862771717E+03  0.12121385807E+03  0.89152716750E+01 0.  0.
         22    1    3    3    0    0  0.82133397464E+01 -0.21755989711E+02  0.11516020502E+01  0.23283217676E+02  0.00000000000E+00 0. -1.
         22    1    4    4    0    0 -0.62166535104E+01  0.18485246839E+02 -0.77818581847E+02  0.80225200606E+02  0.00000000000E+00 0.  1.
         22    1    4    4    0    0 -0.19966862360E+01  0.32707428719E+01 -0.40809135327E+02  0.40988657468E+02  0.00000000000E+00 0.  1.
<mgrwt>
<rscale>  0 0.84135410E+02</rscale>
<asrwt>0</asrwt>
<pdfrwt beam="1">  1        1 0.20785355E-02 0.84135410E+02</pdfrwt>
<pdfrwt beam="2">  1       -1 0.20151783E-01 0.84135410E+02</pdfrwt>
<totfact> 0.94887300E+04</totfact>
</mgrwt>
</event>
<event>
 7    1  0.3345055E-009  0.9275828E+02  0.7818608E-02  0.1296306E+00
          1   -1    0    0  501    0  0.00000000000E+00  0.00000000000E+00  0.27954407458E+01  0.27954452892E+01  0.50400000000E-02 0. -1.
         -1   -1    0    0    0  501 -0.00000000000E+00 -0.00000000000E+00 -0.76947540777E+03  0.76947540778E+03  0.50400000000E-02 0.  1.
         23    2    1    2    0    0 -0.17763568394E-14  0.17763568394E-14 -0.76667996702E+03  0.77227085307E+03  0.92758280891E+02 0.  0.
    9000005    2    3    3    0    0 -0.83977329907E+01  0.92577832633E+01 -0.75495070927E+03  0.75513014253E+03  0.10711221584E+02 0.  0.
         22    1    3    3    0    0  0.83977329907E+01 -0.92577832633E+01 -0.11729257752E+02  0.17140710538E+02  0.00000000000E+00 0. -1.
         22    1    4    4    0    0  0.22670875061E+01 -0.10908715540E-01 -0.12957642616E+03  0.12959625775E+03  0.00000000000E+00 0. -1.
         22    1    4    4    0    0 -0.10664820497E+02  0.92686919789E+01 -0.62537428310E+03  0.62553388479E+03  0.00000000000E+00 0. -1.
<mgrwt>
<rscale>  0 0.92758281E+02</rscale>
<asrwt>0</asrwt>
<pdfrwt beam="1">  1        1 0.43006877E-03 0.92758281E+02</pdfrwt>
<pdfrwt beam="2">  1       -1 0.11838066E+00 0.92758281E+02</pdfrwt>
<totfact> 0.32384698E+04</totfact>
</mgrwt>
</event>
<event>
 7    1  0.3345055E-009  0.9076933E+02  0.7818608E-02  0.1300999E+00
         -1   -1    0    0    0  501 -0.00000000000E+00  0.00000000000E+00  0.92668357421E+03  0.92668357422E+03  0.50400000000E-02 0.  1.
          1   -1    0    0  501    0  0.00000000000E+00 -0.00000000000E+00 -0.22227278048E+01  0.22227335188E+01  0.50400000000E-02 0. -1.
         23    2    1    2    0    0  0.00000000000E+00  0.00000000000E+00  0.92446084640E+03  0.92890630774E+03  0.90769334181E+02 0.  0.
    9000005    2    3    3    0    0  0.37956231504E+01  0.22360223147E+02  0.86222943854E+03  0.86267086059E+03  0.15716955680E+02 0.  0.
         22    1    3    3    0    0 -0.37956231504E+01 -0.22360223147E+02  0.62231407861E+02  0.66235447146E+02  0.00000000000E+00 0. -1.
         22    1    4    4    0    0  0.75406076091E+01  0.11227766039E+02  0.62944850128E+03  0.62959378908E+03  0.00000000000E+00 0.  1.
         22    1    4    4    0    0 -0.37449844586E+01  0.11132457107E+02  0.23278093726E+03  0.23307707151E+03  0.00000000000E+00 0.  1.
<mgrwt>
<rscale>  0 0.90769334E+02</rscale>
<asrwt>0</asrwt>
<pdfrwt beam="2">  1        1 0.34195841E-03 0.90769334E+02</pdfrwt>
<pdfrwt beam="1">  1       -1 0.14256677E+00 0.90769334E+02</pdfrwt>
<totfact> 0.28354193E+04</totfact>
</mgrwt>
</event>
<event>
 7    1  0.3345055E-009  0.9128448E+02  0.7818608E-02  0.1299771E+00
         -1   -1    0    0    0  501 -0.00000000000E+00  0.00000000000E+00  0.37182313111E+02  0.37182313453E+02  0.50400000000E-02 0.  1.
          1   -1    0    0  501    0  0.00000000000E+00 -0.00000000000E+00 -0.56027011231E+02  0.56027011457E+02  0.50400000000E-02 0. -1.
         23    2    1    2    0    0  0.00000000000E+00  0.00000000000E+00 -0.18844698120E+02  0.93209324910E+02  0.91284476243E+02 0.  0.
    9000005    2    3    3    0    0 -0.28283876018E+02 -0.24443217607E+02  0.16228347283E+02  0.41949525424E+02  0.99476076605E+01 0.  0.
         22    1    3    3    0    0  0.28283876018E+02  0.24443217607E+02 -0.35073045402E+02  0.51259799486E+02  0.00000000000E+00 0. -1.
         22    1    4    4    0    0 -0.10066749689E+02 -0.29621031608E+01  0.50702938797E+01  0.11654243196E+02  0.00000000000E+00 0. -1.
         22    1    4    4    0    0 -0.18217126329E+02 -0.21481114447E+02  0.11158053403E+02  0.30295282228E+02  0.00000000000E+00 0. -1.
<mgrwt>
<rscale>  0 0.91284476E+02</rscale>
<asrwt>0</asrwt>
<pdfrwt beam="2">  1        1 0.86195403E-02 0.91284476E+02</pdfrwt>
<pdfrwt beam="1">  1       -1 0.57203559E-02 0.91284476E+02</pdfrwt>
<totfact> 0.95067360E+04</totfact>
</mgrwt>
</event>
<event>
 7    1  0.3345055E-009  0.8949682E+02  0.7818608E-02  0.1304075E+00
         -1   -1    0    0    0  501 -0.00000000000E+00  0.00000000000E+00  0.11662169984E+02  0.11662171073E+02  0.50400000000E-02 0. -1.
          1   -1    0    0  501    0  0.00000000000E+00 -0.00000000000E+00 -0.17170217502E+03  0.17170217509E+03  0.50400000000E-02 0.  1.
         23    2    1    2    0    0  0.00000000000E+00  0.00000000000E+00 -0.16004000503E+03  0.18336434617E+03  0.89496816890E+02 0.  0.
    9000005    2    3    3    0    0 -0.15520206505E+02  0.36508171759E+02 -0.44974722884E+02  0.61652627044E+02  0.14303751530E+02 0.  0.
         22    1    3    3    0    0  0.15520206505E+02 -0.36508171759E+02 -0.11506528215E+03  0.12171171912E+03  0.00000000000E+00 0.  1.
         22    1    4    4    0    0 -0.13750143871E+01  0.89445225496E+01 -0.31059943750E+01  0.95677766102E+01  0.00000000000E+00 0. -1.
         22    1    4    4    0    0 -0.14145192118E+02  0.27563649210E+02 -0.41868728509E+02  0.52084850434E+02  0.00000000000E+00 0. -1.
<mgrwt>
<rscale>  0 0.89496817E+02</rscale>
<asrwt>0</asrwt>
<pdfrwt beam="2">  1        1 0.26415717E-01 0.89496817E+02</pdfrwt>
<pdfrwt beam="1">  1       -1 0.17941802E-02 0.89496817E+02</pdfrwt>
<totfact> 0.12087919E+05</totfact>
</mgrwt>
</event>
<event>
 7    1  0.3345055E-009  0.9135943E+02  0.7818608E-02  0.1299593E+00
          1   -1    0    0  501    0  0.00000000000E+00  0.00000000000E+00  0.49349203549E+03  0.49349203552E+03  0.50400000000E-02 0. -1.
         -1   -1    0    0    0  501 -0.00000000000E+00 -0.00000000000E+00 -0.42283065643E+01  0.42283095680E+01  0.50400000000E-02 0.  1.
         23    2    1    2    0    0  0.00000000000E+00  0.00000000000E+00  0.48926372893E+03  0.49772034509E+03  0.91359430099E+02 0.  0.
    9000005    2    3    3    0    0  0.43094241937E+02  0.14770506131E+02  0.23563024174E+03  0.24002822770E+03  0.40813883716E+01 0.  0.
         22    1    3    3    0    0 -0.43094241937E+02 -0.14770506131E+02  0.25363348719E+03  0.25769211738E+03  0.00000000000E+00 0. -1.
         22    1    4    4    0    0  0.51285204339E+01  0.68801394790E+00  0.22762757405E+02  0.23343483239E+02  0.00000000000E+00 0.  1.
         22    1    4    4    0    0  0.37965721504E+02  0.14082492183E+02  0.21286748434E+03  0.21668474447E+03  0.00000000000E+00 0.  1.
<mgrwt>
<rscale>  0 0.91359430E+02</rscale>
<asrwt>0</asrwt>
<pdfrwt beam="1">  1        1 0.75921877E-01 0.91359430E+02</pdfrwt>
<pdfrwt beam="2">  1       -1 0.65050872E-03 0.91359430E+02</pdfrwt>
<totfact> 0.13831120E+05</totfact>
</mgrwt>
</event>
<event>
 6    1  0.3345055E-009  0.1733441E+03  0.7818608E-02  0.1174405E+00
          1   -1    0    0  501    0  0.00000000000E+00  0.00000000000E+00  0.11142296467E+03  0.11142296478E+03  0.50400000000E-02 0. -1.
         -1   -1    0    0    0  501 -0.00000000000E+00 -0.00000000000E+00 -0.67419146430E+02  0.67419146619E+02  0.50400000000E-02 0.  1.
    9000005    2    1    2    0    0  0.84859890000E+02  0.14904075498E+02  0.24125202287E+02  0.90419875684E+02  0.13053587093E+02 0.  0.
         22    1    1    2    0    0 -0.84859890000E+02 -0.14904075498E+02  0.19878615953E+02  0.88422235719E+02  0.00000000000E+00 0.  1.
         22    1    3    3    0    0  0.77776430081E+02  0.14250460426E+02  0.25683233837E+02  0.83137700226E+02  0.00000000000E+00 0. -1.
         22    1    3    3    0    0  0.70834599193E+01  0.65361507137E+00 -0.15580315501E+01  0.72821754580E+01  0.00000000000E+00 0. -1.
<mgrwt>
<rscale>  0 0.17334406E+03</rscale>
<asrwt>0</asrwt>
<pdfrwt beam="1">  1        1 0.17141995E-01 0.17334406E+03</pdfrwt>
<pdfrwt beam="2">  1       -1 0.10372176E-01 0.17334406E+03</pdfrwt>
<totfact> 0.17101039E+04</totfact>
</mgrwt>
</event>
<event>
 7    1  0.3345055E-009  0.9071918E+02  0.7818608E-02  0.1301119E+00
         -1   -1    0    0    0  501 -0.00000000000E+00  0.00000000000E+00  0.14912905283E+02  0.14912906135E+02  0.50400000000E-02 0.  1.
          1   -1    0    0  501    0  0.00000000000E+00 -0.00000000000E+00 -0.13796725042E+03  0.13796725051E+03  0.50400000000E-02 0. -1.
         23    2    1    2    0    0  0.00000000000E+00  0.00000000000E+00 -0.12305434514E+03  0.15288015665E+03  0.90719184518E+02 0.  0.
    9000005    2    3    3    0    0 -0.26064220605E+02 -0.23046774944E+01 -0.12388622125E+03  0.12670102084E+03  0.45494759360E+01 0.  0.
         22    1    3    3    0    0  0.26064220605E+02  0.23046774944E+01  0.83187610985E+00  0.26179135814E+02  0.00000000000E+00 0.  1.
         22    1    4    4    0    0 -0.45917822241E+01  0.21191844190E+00 -0.30535401203E+02  0.30879444620E+02  0.00000000000E+00 0.  1.
         22    1    4    4    0    0 -0.21472438381E+02 -0.25165959363E+01 -0.93350820046E+02  0.95821576215E+02  0.00000000000E+00 0.  1.
<mgrwt>
<rscale>  0 0.90719185E+02</rscale>
<asrwt>0</asrwt>
<pdfrwt beam="2">  1        1 0.21225730E-01 0.90719185E+02</pdfrwt>
<pdfrwt beam="1">  1       -1 0.22942933E-02 0.90719185E+02</pdfrwt>
<totfact> 0.11194910E+05</totfact>
</mgrwt>
</event>
<event>
 6    1  0.3345055E-009  0.1879072E+03  0.7818608E-02  0.1160363E+00
         -1   -1    0    0    0  501 -0.00000000000E+00  0.00000000000E+00  0.10444501656E+03  0.10444501668E+03  0.50400000000E-02 0.  1.
          1   -1    0    0  501    0  0.00000000000E+00 -0.00000000000E+00 -0.84516038276E+02  0.84516038426E+02  0.50400000000E-02 0. -1.
    9000005    2    1    2    0    0 -0.63563043022E+02 -0.49329783465E+02 -0.38150357465E+02  0.89729521734E+02  0.11056641491E+02 0.  0.
         22    1    1    2    0    0  0.63563043022E+02  0.49329783465E+02  0.58079335753E+02  0.99231533377E+02  0.00000000000E+00 0.  1.
         22    1    3    3    0    0 -0.10350929958E+02 -0.69575616431E+01 -0.17901364687E+01  0.12599762045E+02  0.00000000000E+00 0.  1.
         22    1    3    3    0    0 -0.53212113064E+02 -0.42372221822E+02 -0.36360220997E+02  0.77129759690E+02  0.00000000000E+00 0.  1.
<mgrwt>
<rscale>  0 0.18790720E+03</rscale>
<asrwt>0</asrwt>
<pdfrwt beam="2">  1        1 0.13002467E-01 0.18790720E+03</pdfrwt>
<pdfrwt beam="1">  1       -1 0.16068464E-01 0.18790720E+03</pdfrwt>
<totfact> 0.12464292E+04</totfact>
</mgrwt>
</event>
<event>
 7    1  0.3345055E-009  0.9102164E+02  0.7818608E-02  0.1300396E+00
          1   -1    0    0  501    0  0.00000000000E+00  0.00000000000E+00  0.24531550659E+02  0.24531551177E+02  0.50400000000E-02 0. -1.
         -1   -1    0    0    0  501 -0.00000000000E+00 -0.00000000000E+00 -0.84431469587E+02  0.84431469737E+02  0.50400000000E-02 0.  1.
         23    2    1    2    0    0  0.00000000000E+00  0.00000000000E+00 -0.59899918928E+02  0.10896302091E+03  0.91021643796E+02 0.  0.
    9000005    2    3    3    0    0 -0.26941961721E+01  0.29934839391E+02  0.82592172021E+01  0.34471268751E+02  0.14720747202E+02 0.  0.
         22    1    3    3    0    0  0.26941961721E+01 -0.29934839391E+02 -0.68159136130E+02  0.74491752163E+02  0.00000000000E+00 0.  1.
         22    1    4    4    0    0  0.54602966623E+00  0.13713068265E+02 -0.35146870180E+01  0.14166842078E+02  0.00000000000E+00 0. -1.
         22    1    4    4    0    0 -0.32402258383E+01  0.16221771126E+02  0.11773904220E+02  0.20304426673E+02  0.00000000000E+00 0. -1.
<mgrwt>
<rscale>  0 0.91021644E+02</rscale>
<asrwt>0</asrwt>
<pdfrwt beam="1">  1        1 0.37740848E-02 0.91021644E+02</pdfrwt>
<pdfrwt beam="2">  1       -1 0.12989457E-01 0.91021644E+02</pdfrwt>
<totfact> 0.84242094E+04</totfact>
</mgrwt>
</event>
<event>
 7    1  0.3418432E-009  0.9029640E+02  0.7818608E-02  0.1302136E+00
         -1   -1    0    0    0  501 -0.00000000000E+00  0.00000000000E+00  0.21246986368E+02  0.21246986965E+02  0.50400000000E-02 0.  1.
          1   -1    0    0  501    0  0.00000000000E+00 -0.00000000000E+00 -0.95936427732E+02  0.95936427865E+02  0.50400000000E-02 0. -1.
         23    2    1    2    0    0  0.00000000000E+00  0.88817841970E-15 -0.74689441364E+02  0.11718341483E+03  0.90296401146E+02 0.  0.
    9000005    2    3    3    0    0  0.21302948737E+02 -0.52065840017E+01  0.10824121888E+02  0.28902648851E+02  0.15403809727E+02 0.  0.
         22    1    3    3    0    0 -0.21302948737E+02  0.52065840017E+01 -0.85513563252E+02  0.88280765979E+02  0.00000000000E+00 0. -1.
         22    1    4    4    0    0  0.49512407635E+01 -0.83321220688E+01  0.66042925168E+01  0.11728415192E+02  0.00000000000E+00 0.  1.
         22    1    4    4    0    0  0.16351707973E+02  0.31255380672E+01  0.42198293707E+01  0.17174233659E+02  0.00000000000E+00 0.  1.
<mgrwt>
<rscale>  0 0.90296401E+02</rscale>
<asrwt>0</asrwt>
<pdfrwt beam="2">  1        1 0.14759450E-01 0.90296401E+02</pdfrwt>
<pdfrwt beam="1">  1       -1 0.32687672E-02 0.90296401E+02</pdfrwt>
<totfact> 0.10651777E+05</totfact>
</mgrwt>
</event>
<event>
 7    1  0.3345055E-009  0.8986830E+02  0.7818608E-02  0.1303171E+00
         -1   -1    0    0    0  501 -0.00000000000E+00  0.00000000000E+00  0.12633148433E+03  0.12633148443E+03  0.50400000000E-02 0.  1.
          1   -1    0    0  501    0  0.00000000000E+00 -0.00000000000E+00 -0.15982380254E+02  0.15982381049E+02  0.50400000000E-02 0. -1.
         23    2    1    2    0    0  0.17763568394E-14  0.00000000000E+00  0.11034910407E+03  0.14231386548E+03  0.89868301070E+02 0.  0.
    9000005    2    3    3    0    0  0.14041867708E+02 -0.25905799653E+01  0.12227450687E+03  0.12371009207E+03  0.12216656447E+02 0.  0.
         22    1    3    3    0    0 -0.14041867708E+02  0.25905799653E+01 -0.11925402798E+02  0.18603773412E+02  0.00000000000E+00 0. -1.
         22    1    4    4    0    0  0.95086811275E+01  0.10175547054E+01  0.10608361431E+03  0.10651377216E+03  0.00000000000E+00 0.  1.
         22    1    4    4    0    0  0.45331865808E+01 -0.36081346707E+01  0.16190892558E+02  0.17196319903E+02  0.00000000000E+00 0.  1.
<mgrwt>
<rscale>  0 0.89868301E+02</rscale>
<asrwt>0</asrwt>
<pdfrwt beam="2">  1        1 0.24588279E-02 0.89868301E+02</pdfrwt>
<pdfrwt beam="1">  1       -1 0.19435612E-01 0.89868301E+02</pdfrwt>
<totfact> 0.80654589E+04</totfact>
</mgrwt>
</event>
<event>
 7    1  0.3345055E-009  0.8880446E+02  0.7818608E-02  0.1305773E+00
         -1   -1    0    0    0  501 -0.00000000000E+00  0.00000000000E+00  0.11626271773E+02  0.11626272865E+02  0.50400000000E-02 0.  1.
          1   -1    0    0  501    0  0.00000000000E+00 -0.00000000000E+00 -0.16957784595E+03  0.16957784603E+03  0.50400000000E-02 0. -1.
         23    2    1    2    0    0  0.00000000000E+00 -0.17763568394E-14 -0.15795157418E+03  0.18120411889E+03  0.88804464514E+02 0.  0.
    9000005    2    3    3    0    0  0.24937996635E+02  0.14950276865E+02 -0.14612584691E+03  0.14981523105E+03  0.15697957330E+02 0.  0.
         22    1    3    3    0    0 -0.24937996635E+02 -0.14950276865E+02 -0.11825727267E+02  0.31388887841E+02  0.00000000000E+00 0.  1.
         22    1    4    4    0    0  0.16387064786E+02  0.12287338591E+01 -0.85853563178E+02  0.87412127246E+02  0.00000000000E+00 0. -1.
         22    1    4    4    0    0  0.85509318489E+01  0.13721543006E+02 -0.60272283734E+02  0.62403103804E+02  0.00000000000E+00 0. -1.
<mgrwt>
<rscale>  0 0.88804465E+02</rscale>
<asrwt>0</asrwt>
<pdfrwt beam="2">  1        1 0.26088898E-01 0.88804465E+02</pdfrwt>
<pdfrwt beam="1">  1       -1 0.17886574E-02 0.88804465E+02</pdfrwt>
<totfact> 0.12313520E+05</totfact>
</mgrwt>
</event>
<event>
 7    1  0.3345055E-009  0.8705114E+02  0.7818608E-02  0.1310154E+00
          1   -1    0    0  501    0  0.00000000000E+00  0.00000000000E+00  0.19552417016E+03  0.19552417023E+03  0.50400000000E-02 0. -1.
         -1   -1    0    0    0  501 -0.00000000000E+00 -0.00000000000E+00 -0.96892108675E+01  0.96892121783E+01  0.50400000000E-02 0.  1.
         23    2    1    2    0    0  0.00000000000E+00  0.00000000000E+00  0.18583495929E+03  0.20521338240E+03  0.87051135674E+02 0.  0.
    9000005    2    3    3    0    0  0.29284291642E+02 -0.16197171130E+02  0.15709202176E+03  0.16109904746E+03  0.12453180394E+02 0.  0.
         22    1    3    3    0    0 -0.29284291642E+02  0.16197171130E+02  0.28742937532E+02  0.44114334944E+02  0.00000000000E+00 0.  1.
         22    1    4    4    0    0  0.21993515390E+02 -0.56390909117E+01  0.92585836382E+02  0.95329172681E+02  0.00000000000E+00 0.  1.
         22    1    4    4    0    0  0.72907762515E+01 -0.10558080218E+02  0.64506185379E+02  0.65769874779E+02  0.00000000000E+00 0.  1.
<mgrwt>
<rscale>  0 0.87051136E+02</rscale>
<asrwt>0</asrwt>
<pdfrwt beam="1">  1        1 0.30080640E-01 0.87051136E+02</pdfrwt>
<pdfrwt beam="2">  1       -1 0.14906480E-02 0.87051136E+02</pdfrwt>
<totfact> 0.13342948E+05</totfact>
</mgrwt>
</event>
<event>
 7    1  0.3345055E-009  0.9976237E+02  0.7818608E-02  0.1280796E+00
         -1   -1    0    0    0  501 -0.00000000000E+00  0.00000000000E+00  0.13102089994E+02  0.13102090963E+02  0.50400000000E-02 0.  1.
          1   -1    0    0  501    0  0.00000000000E+00 -0.00000000000E+00 -0.18990346816E+03  0.18990346823E+03  0.50400000000E-02 0. -1.
         23    2    1    2    0    0 -0.88817841970E-15  0.00000000000E+00 -0.17680137817E+03  0.20300555920E+03  0.99762366356E+02 0.  0.
    9000005    2    3    3    0    0 -0.45734202932E+01 -0.28657955769E+02 -0.17010914693E+03  0.17322334032E+03  0.15066823185E+02 0.  0.
         22    1    3    3    0    0  0.45734202932E+01  0.28657955769E+02 -0.66922312404E+01  0.29782218873E+02  0.00000000000E+00 0.  1.
         22    1    4    4    0    0  0.21631962494E+01 -0.24337852465E+02 -0.11799029588E+03  0.12049365296E+03  0.00000000000E+00 0. -1.
         22    1    4    4    0    0 -0.67366165426E+01 -0.43201033041E+01 -0.52118851046E+02  0.52729687363E+02  0.00000000000E+00 0. -1.
<mgrwt>
<rscale>  0 0.99762366E+02</rscale>
<asrwt>0</asrwt>
<pdfrwt beam="2">  1        1 0.29215916E-01 0.99762366E+02</pdfrwt>
<pdfrwt beam="1">  1       -1 0.20157064E-02 0.99762366E+02</pdfrwt>
<totfact> 0.91943518E+04</totfact>
</mgrwt>
</event>
<event>
 7    1  0.3345055E-009  0.9026311E+02  0.7818608E-02  0.1302216E+00
          1   -1    0    0  501    0  0.00000000000E+00  0.00000000000E+00  0.13583517997E+04  0.13583517997E+04  0.50400000000E-02 0. -1.
         -1   -1    0    0    0  501 -0.00000000000E+00 -0.00000000000E+00 -0.14995022013E+01  0.14995106713E+01  0.50400000000E-02 0.  1.
         23    2    1    2    0    0  0.35527136788E-14 -0.88817841970E-15  0.13568522975E+04  0.13598513104E+04  0.90263110496E+02 0.  0.
    9000005    2    3    3    0    0  0.27456390619E+02 -0.78647204243E+01  0.12040329345E+04  0.12043859930E+04  0.58826408993E+01 0.  0.
         22    1    3    3    0    0 -0.27456390619E+02  0.78647204243E+01  0.15281936295E+03  0.15546531737E+03  0.00000000000E+00 0.  1.
         22    1    4    4    0    0  0.25896311070E+02 -0.84383330153E+01  0.10866102079E+04  0.10869515022E+04  0.00000000000E+00 0.  1.
         22    1    4    4    0    0  0.15600795490E+01  0.57361259103E+00  0.11742272667E+03  0.11743449075E+03  0.00000000000E+00 0.  1.
<mgrwt>
<rscale>  0 0.90263110E+02</rscale>
<asrwt>0</asrwt>
<pdfrwt beam="1">  1        1 0.20897689E+00 0.90263110E+02</pdfrwt>
<pdfrwt beam="2">  1       -1 0.23069364E-03 0.90263110E+02</pdfrwt>
<totfact> 0.12202967E+05</totfact>
</mgrwt>
</event>
<event>
 7    1  0.3345055E-009  0.9134488E+02  0.7818608E-02  0.1299627E+00
         -1   -1    0    0    0  501 -0.00000000000E+00  0.00000000000E+00  0.18868659191E+01  0.18868726502E+01  0.50400000000E-02 0.  1.
          1   -1    0    0  501    0  0.00000000000E+00 -0.00000000000E+00 -0.11055199105E+04  0.11055199105E+04  0.50400000000E-02 0. -1.
         23    2    1    2    0    0  0.17763568394E-14  0.00000000000E+00 -0.11036330446E+04  0.11074067832E+04  0.91344875618E+02 0.  0.
    9000005    2    3    3    0    0 -0.15935950536E+02 -0.20596952180E+02 -0.10051411526E+04  0.10055301826E+04  0.10199141293E+02 0.  0.
         22    1    3    3    0    0  0.15935950536E+02  0.20596952180E+02 -0.98491891938E+02  0.10187660053E+03  0.00000000000E+00 0.  1.
         22    1    4    4    0    0 -0.68585253242E+01 -0.16752761011E+02 -0.66205956805E+03  0.66230700285E+03  0.00000000000E+00 0. -1.
         22    1    4    4    0    0 -0.90774252115E+01 -0.38441911685E+01 -0.34308158458E+03  0.34322317977E+03  0.00000000000E+00 0. -1.
<mgrwt>
<rscale>  0 0.91344876E+02</rscale>
<asrwt>0</asrwt>
<pdfrwt beam="2">  1        1 0.17007947E+00 0.91344876E+02</pdfrwt>
<pdfrwt beam="1">  1       -1 0.29028847E-03 0.91344876E+02</pdfrwt>
<totfact> 0.13111814E+05</totfact>
</mgrwt>
</event>
<event>
 7    1  0.3345055E-009  0.9658088E+02  0.7818608E-02  0.1287655E+00
         -1   -1    0    0    0  501 -0.00000000000E+00  0.00000000000E+00  0.15244522336E+03  0.15244522344E+03  0.50400000000E-02 0.  1.
          1   -1    0    0  501    0  0.00000000000E+00 -0.00000000000E+00 -0.15297077937E+02  0.15297078767E+02  0.50400000000E-02 0. -1.
         23    2    1    2    0    0 -0.44408920985E-15  0.00000000000E+00  0.13714814542E+03  0.16774230221E+03  0.96580878840E+02 0.  0.
    9000005    2    3    3    0    0 -0.31486604137E+01  0.26672446739E+02  0.10289232908E+00  0.28090109699E+02  0.82286206993E+01 0.  0.
         22    1    3    3    0    0  0.31486604137E+01 -0.26672446739E+02  0.13704525309E+03  0.13965219251E+03  0.00000000000E+00 0.  1.
         22    1    4    4    0    0  0.11838610130E+01  0.19266486348E+02  0.16438056707E+01  0.19372690060E+02  0.00000000000E+00 0. -1.
         22    1    4    4    0    0 -0.43325214266E+01  0.74059603916E+01 -0.15409133417E+01  0.87174196389E+01  0.00000000000E+00 0. -1.
<mgrwt>
<rscale>  0 0.96580879E+02</rscale>
<asrwt>0</asrwt>
<pdfrwt beam="2">  1        1 0.23533967E-02 0.96580879E+02</pdfrwt>
<pdfrwt beam="1">  1       -1 0.23453111E-01 0.96580879E+02</pdfrwt>
<totfact> 0.64139021E+04</totfact>
</mgrwt>
</event>
<event>
 7    1  0.3345055E-009  0.9085960E+02  0.7818608E-02  0.1300783E+00
          1   -1    0    0  501    0  0.00000000000E+00  0.00000000000E+00  0.39205842430E+02  0.39205842754E+02  0.50400000000E-02 0. -1.
         -1   -1    0    0    0  501 -0.00000000000E+00 -0.00000000000E+00 -0.52641817903E+02  0.52641818144E+02  0.50400000000E-02 0.  1.
         23    2    1    2    0    0  0.00000000000E+00  0.00000000000E+00 -0.13435975473E+02  0.91847660898E+02  0.90859602550E+02 0.  0.
    9000005    2    3    3    0    0  0.89590036533E+01 -0.11466369905E+02 -0.50049485475E+02  0.52448542888E+02  0.58444220839E+01 0.  0.
         22    1    3    3    0    0 -0.89590036533E+01  0.11466369905E+02  0.36613510002E+02  0.39399118010E+02  0.00000000000E+00 0. -1.
         22    1    4    4    0    0  0.62579948224E+01 -0.99403826764E+01 -0.31051589049E+02  0.33199019404E+02  0.00000000000E+00 0. -1.
         22    1    4    4    0    0  0.27010088308E+01 -0.15259872288E+01 -0.18997896427E+02  0.19249523484E+02  0.00000000000E+00 0. -1.
<mgrwt>
<rscale>  0 0.90859603E+02</rscale>
<asrwt>0</asrwt>
<pdfrwt beam="1">  1        1 0.60316681E-02 0.90859603E+02</pdfrwt>
<pdfrwt beam="2">  1       -1 0.80987412E-02 0.90859603E+02</pdfrwt>
<totfact> 0.91282308E+04</totfact>
</mgrwt>
</event>
<event>
 7    1  0.3345055E-009  0.9225849E+02  0.7818608E-02  0.1297473E+00
          1   -1    0    0  501    0  0.00000000000E+00  0.00000000000E+00  0.16790824882E+02  0.16790825638E+02  0.50400000000E-02 0. -1.
         -1   -1    0    0    0  501 -0.00000000000E+00 -0.00000000000E+00 -0.12673036714E+03  0.12673036724E+03  0.50400000000E-02 0.  1.
         23    2    1    2    0    0  0.00000000000E+00  0.00000000000E+00 -0.10993954226E+03  0.14352119288E+03  0.92258494748E+02 0.  0.
    9000005    2    3    3    0    0 -0.84044343806E+01 -0.19558036763E+02 -0.11855546084E+03  0.12055632030E+03  0.50276982767E+01 0.  0.
         22    1    3    3    0    0  0.84044343806E+01  0.19558036763E+02  0.86159185860E+01  0.22964872574E+02  0.00000000000E+00 0. -1.
         22    1    4    4    0    0 -0.76008252813E+01 -0.12230931387E+02 -0.72741168543E+02  0.74152854487E+02  0.00000000000E+00 0. -1.
         22    1    4    4    0    0 -0.80360909936E+00 -0.73271053758E+01 -0.45814292299E+02  0.46403465815E+02  0.00000000000E+00 0. -1.
<mgrwt>
<rscale>  0 0.92258495E+02</rscale>
<asrwt>0</asrwt>
<pdfrwt beam="1">  1        1 0.25832040E-02 0.92258495E+02</pdfrwt>
<pdfrwt beam="2">  1       -1 0.19496979E-01 0.92258495E+02</pdfrwt>
<totfact> 0.75307928E+04</totfact>
</mgrwt>
</event>
<event>
 7    1  0.3345055E-009  0.1047567E+03  0.7818608E-02  0.1270600E+00
          1   -1    0    0  501    0  0.00000000000E+00  0.00000000000E+00  0.80578016960E+03  0.80578016962E+03  0.50400000000E-02 0. -1.
         -1   -1    0    0    0  501 -0.00000000000E+00 -0.00000000000E+00 -0.34047644683E+01  0.34047681986E+01  0.50400000000E-02 0.  1.
         23    2    1    2    0    0  0.00000000000E+00 -0.17763568394E-14  0.80237540514E+03  0.80918493782E+03  0.10475673165E+03 0.  0.
    9000005    2    3    3    0    0  0.48327441742E+02 -0.12975748323E+02  0.51471428726E+03  0.51720406446E+03  0.80830139259E+01 0.  0.
         22    1    3    3    0    0 -0.48327441742E+02  0.12975748323E+02  0.28766111788E+03  0.29198087336E+03  0.00000000000E+00 0.  1.
         22    1    4    4    0    0  0.48656664856E+02 -0.12836863245E+02  0.51181167177E+03  0.51427953824E+03  0.00000000000E+00 0. -1.
         22    1    4    4    0    0 -0.32922311391E+00 -0.13888507744E+00  0.29026154900E+01  0.29245262191E+01  0.00000000000E+00 0. -1.
<mgrwt>
<rscale>  0 0.10475673E+03</rscale>
<asrwt>0</asrwt>
<pdfrwt beam="1">  1        1 0.12396627E+00 0.10475673E+03</pdfrwt>
<pdfrwt beam="2">  1       -1 0.52380981E-03 0.10475673E+03</pdfrwt>
<totfact> 0.97584263E+04</totfact>
</mgrwt>
</event>
<event>
 7    1  0.3345055E-009  0.9612205E+02  0.7818608E-02  0.1288669E+00
         -1   -1    0    0    0  501 -0.00000000000E+00  0.00000000000E+00  0.26162105347E+02  0.26162105832E+02  0.50400000000E-02 0.  1.
          1   -1    0    0  501    0  0.00000000000E+00 -0.00000000000E+00 -0.88290368468E+02  0.88290368612E+02  0.50400000000E-02 0. -1.
         23    2    1    2    0    0 -0.17763568394E-14  0.00000000000E+00 -0.62128263121E+02  0.11445247444E+03  0.96122046524E+02 0.  0.
    9000005    2    3    3    0    0 -0.14710931324E+02 -0.35917973028E+02  0.48731087053E+00  0.40782790088E+02  0.12509444775E+02 0.  0.
         22    1    3    3    0    0  0.14710931324E+02  0.35917973028E+02 -0.62615573991E+02  0.73669684356E+02  0.00000000000E+00 0. -1.
         22    1    4    4    0    0 -0.16388897402E+02 -0.27057505779E+02 -0.96506282972E+00  0.31648632250E+02  0.00000000000E+00 0.  1.
         22    1    4    4    0    0  0.16779660783E+01 -0.88604672498E+01  0.14523737003E+01  0.91341578381E+01  0.00000000000E+00 0.  1.
<mgrwt>
<rscale>  0 0.96122047E+02</rscale>
<asrwt>0</asrwt>
<pdfrwt beam="2">  1        1 0.13583134E-01 0.96122047E+02</pdfrwt>
<pdfrwt beam="1">  1       -1 0.40249394E-02 0.96122047E+02</pdfrwt>
<totfact> 0.88515052E+04</totfact>
</mgrwt>
</event>
<event>
 7    1  0.3345055E-009  0.9169539E+02  0.7818608E-02  0.1298797E+00
          1   -1    0    0  501    0  0.00000000000E+00  0.00000000000E+00  0.27646025609E+03  0.27646025614E+03  0.50400000000E-02 0.  1.
         -1   -1    0    0    0  501 -0.00000000000E+00 -0.00000000000E+00 -0.76033015312E+01  0.76033032016E+01  0.50400000000E-02 0. -1.
         23    2    1    2    0    0  0.00000000000E+00 -0.35527136788E-14  0.26885695456E+03  0.28406355934E+03  0.91695385538E+02 0.  0.
    9000005    2    3    3    0    0  0.13705825247E+02 -0.31905597473E+02  0.22513345824E+03  0.22822843665E+03  0.14047365527E+02 0.  0.
         22    1    3    3    0    0 -0.13705825247E+02  0.31905597473E+02  0.43723496320E+02  0.55835122694E+02  0.00000000000E+00 0. -1.
         22    1    4    4    0    0 -0.12411919719E+01 -0.12628730514E+02  0.93074237356E+02  0.93935291831E+02  0.00000000000E+00 0. -1.
         22    1    4    4    0    0  0.14947017219E+02 -0.19276866960E+02  0.13205922089E+03  0.13429314481E+03  0.00000000000E+00 0. -1.
<mgrwt>
<rscale>  0 0.91695386E+02</rscale>
<asrwt>0</asrwt>
<pdfrwt beam="1">  1        1 0.42532355E-01 0.91695386E+02</pdfrwt>
<pdfrwt beam="2">  1       -1 0.11697386E-02 0.91695386E+02</pdfrwt>
<totfact> 0.12422597E+05</totfact>
</mgrwt>
</event>
<event>
 7    1  0.3345055E-009  0.9562355E+02  0.7818608E-02  0.1289778E+00
         -1   -1    0    0    0  501 -0.00000000000E+00  0.00000000000E+00  0.46210994077E+01  0.46211021562E+01  0.50400000000E-02 0.  1.
          1   -1    0    0  501    0  0.00000000000E+00 -0.00000000000E+00 -0.49467988457E+03  0.49467988460E+03  0.50400000000E-02 0. -1.
         23    2    1    2    0    0  0.00000000000E+00  0.00000000000E+00 -0.49005878516E+03  0.49930098675E+03  0.95623545514E+02 0.  0.
    9000005    2    3    3    0    0  0.19372051639E+02  0.32471505549E+02 -0.39602096642E+03  0.39794623150E+03  0.99459674120E+01 0.  0.
         22    1    3    3    0    0 -0.19372051639E+02 -0.32471505549E+02 -0.94037818744E+02  0.10135475525E+03  0.00000000000E+00 0.  1.
         22    1    4    4    0    0  0.11804574846E+02  0.17366878790E+02 -0.26688698981E+03  0.26771182603E+03  0.00000000000E+00 0.  1.
         22    1    4    4    0    0  0.75674767933E+01  0.15104626759E+02 -0.12913397661E+03  0.13023440547E+03  0.00000000000E+00 0.  1.
<mgrwt>
<rscale>  0 0.95623546E+02</rscale>
<asrwt>0</asrwt>
<pdfrwt beam="2">  1        1 0.76104556E-01 0.95623546E+02</pdfrwt>
<pdfrwt beam="1">  1       -1 0.71093897E-03 0.95623546E+02</pdfrwt>
<totfact> 0.12255562E+05</totfact>
</mgrwt>
</event>
<event>
 7    1  0.3345055E-009  0.9003699E+02  0.7818608E-02  0.1302762E+00
         -1   -1    0    0    0  501 -0.00000000000E+00  0.00000000000E+00  0.13532088696E+02  0.13532089635E+02  0.50400000000E-02 0.  1.
          1   -1    0    0  501    0  0.00000000000E+00 -0.00000000000E+00 -0.14976733564E+03  0.14976733572E+03  0.50400000000E-02 0. -1.
         23    2    1    2    0    0  0.17763568394E-14  0.00000000000E+00 -0.13623524694E+03  0.16329942536E+03  0.90036991358E+02 0.  0.
    9000005    2    3    3    0    0  0.11295799714E+02 -0.37920668065E+02 -0.29209851302E+02  0.49194178022E+02  0.11311854569E+01 0.  0.
         22    1    3    3    0    0 -0.11295799714E+02  0.37920668065E+02 -0.10702539564E+03  0.11410524733E+03  0.00000000000E+00 0. -1.
         22    1    4    4    0    0  0.36316969652E+01 -0.11603769480E+02 -0.83655936841E+01  0.14758721038E+02  0.00000000000E+00 0. -1.
         22    1    4    4    0    0  0.76641027492E+01 -0.26316898585E+02 -0.20844257618E+02  0.34435456984E+02  0.00000000000E+00 0. -1.
<mgrwt>
<rscale>  0 0.90036991E+02</rscale>
<asrwt>0</asrwt>
<pdfrwt beam="2">  1        1 0.23041128E-01 0.90036991E+02</pdfrwt>
<pdfrwt beam="1">  1       -1 0.20818600E-02 0.90036991E+02</pdfrwt>
<totfact> 0.11596527E+05</totfact>
</mgrwt>
</event>
<event>
 7    1  0.3345055E-009  0.9094198E+02  0.7818608E-02  0.1300586E+00
         -1   -1    0    0    0  501 -0.00000000000E+00  0.00000000000E+00  0.58364342921E+01  0.58364364682E+01  0.50400000000E-02 0.  1.
          1   -1    0    0  501    0  0.00000000000E+00 -0.00000000000E+00 -0.35425921592E+03  0.35425921596E+03  0.50400000000E-02 0. -1.
         23    2    1    2    0    0  0.00000000000E+00  0.00000000000E+00 -0.34842278163E+03  0.36009565243E+03  0.90941982261E+02 0.  0.
    9000005    2    3    3    0    0  0.16505739866E+02 -0.40978799806E+02 -0.15589522114E+03  0.16256448265E+03  0.13122102164E+02 0.  0.
         22    1    3    3    0    0 -0.16505739866E+02  0.40978799806E+02 -0.19252756050E+03  0.19753116977E+03  0.00000000000E+00 0.  1.
         22    1    4    4    0    0  0.46089014413E+01 -0.73151387977E+01 -0.16018789056E+02  0.18203154423E+02  0.00000000000E+00 0.  1.
         22    1    4    4    0    0  0.11896838425E+02 -0.33663661009E+02 -0.13987643208E+03  0.14436132823E+03  0.00000000000E+00 0.  1.
<mgrwt>
<rscale>  0 0.90941982E+02</rscale>
<asrwt>0</asrwt>
<pdfrwt beam="2">  1        1 0.54501401E-01 0.90941982E+02</pdfrwt>
<pdfrwt beam="1">  1       -1 0.89791341E-03 0.90941982E+02</pdfrwt>
<totfact> 0.13302567E+05</totfact>
</mgrwt>
</event>
<event>
 7    1  0.3345055E-009  0.8910546E+02  0.7818608E-02  0.1305033E+00
         -1   -1    0    0    0  501 -0.00000000000E+00  0.00000000000E+00  0.81561481034E+02  0.81561481190E+02  0.50400000000E-02 0.  1.
          1   -1    0    0  501    0  0.00000000000E+00 -0.00000000000E+00 -0.24336802045E+02  0.24336802566E+02  0.50400000000E-02 0. -1.
         23    2    1    2    0    0  0.35527136788E-14  0.00000000000E+00  0.57224678989E+02  0.10589828376E+03  0.89105457841E+02 0.  0.
    9000005    2    3    3    0    0 -0.22840544760E+02 -0.21605107909E+02  0.65950617751E+02  0.73269873130E+02  0.55244143716E+01 0.  0.
         22    1    3    3    0    0  0.22840544760E+02  0.21605107909E+02 -0.87259387614E+01  0.32628410626E+02  0.00000000000E+00 0. -1.
         22    1    4    4    0    0 -0.12736793943E+02 -0.15127675188E+02  0.44343919628E+02  0.48553637191E+02  0.00000000000E+00 0. -1.
         22    1    4    4    0    0 -0.10103750817E+02 -0.64774327208E+01  0.21606698123E+02  0.24716235939E+02  0.00000000000E+00 0. -1.
<mgrwt>
<rscale>  0 0.89105458E+02</rscale>
<asrwt>0</asrwt>
<pdfrwt beam="2">  1        1 0.37441234E-02 0.89105458E+02</pdfrwt>
<pdfrwt beam="1">  1       -1 0.12547920E-01 0.89105458E+02</pdfrwt>
<totfact> 0.89482499E+04</totfact>
</mgrwt>
</event>
<event>
 7    1  0.3345055E-009  0.9021357E+02  0.7818608E-02  0.1302335E+00
          1   -1    0    0  501    0  0.00000000000E+00  0.00000000000E+00  0.14514563173E+03  0.14514563181E+03  0.50400000000E-02 0. -1.
         -1   -1    0    0    0  501 -0.00000000000E+00 -0.00000000000E+00 -0.14017796998E+02  0.14017797904E+02  0.50400000000E-02 0.  1.
         23    2    1    2    0    0  0.00000000000E+00  0.00000000000E+00  0.13112783473E+03  0.15916342972E+03  0.90213570592E+02 0.  0.
    9000005    2    3    3    0    0  0.23932981595E+02  0.21582357728E+02  0.13902205313E+02  0.37588621616E+02  0.13455385140E+02 0.  0.
         22    1    3    3    0    0 -0.23932981595E+02 -0.21582357728E+02  0.11722562941E+03  0.12157480810E+03  0.00000000000E+00 0. -1.
         22    1    4    4    0    0  0.19486792267E+02  0.21146650170E+02  0.15711825666E+02  0.32768542110E+02  0.00000000000E+00 0.  1.
         22    1    4    4    0    0  0.44461893283E+01  0.43570755885E+00 -0.18096203534E+01  0.48200795059E+01  0.00000000000E+00 0.  1.
<mgrwt>
<rscale>  0 0.90213571E+02</rscale>
<asrwt>0</asrwt>
<pdfrwt beam="1">  1        1 0.22330097E-01 0.90213571E+02</pdfrwt>
<pdfrwt beam="2">  1       -1 0.21565842E-02 0.90213571E+02</pdfrwt>
<totfact> 0.11469716E+05</totfact>
</mgrwt>
</event>
<event>
 7    1  0.3345055E-009  0.9441593E+02  0.7818608E-02  0.1292497E+00
         -1   -1    0    0    0  501 -0.00000000000E+00  0.00000000000E+00  0.54329998297E+01  0.54330021674E+01  0.50400000000E-02 0.  1.
          1   -1    0    0  501    0  0.00000000000E+00 -0.00000000000E+00 -0.41019539551E+03  0.41019539554E+03  0.50400000000E-02 0. -1.
         23    2    1    2    0    0  0.00000000000E+00  0.22204460493E-15 -0.40476239568E+03  0.41562839771E+03  0.94415930990E+02 0.  0.
    9000005    2    3    3    0    0 -0.16509232349E+02 -0.12503838318E+01 -0.39678355988E+03  0.39724960468E+03  0.97947339538E+01 0.  0.
         22    1    3    3    0    0  0.16509232349E+02  0.12503838318E+01 -0.79788357985E+01  0.18378793029E+02  0.00000000000E+00 0.  1.
         22    1    4    4    0    0 -0.14572857073E+02  0.24794796967E+01 -0.27931084963E+03  0.27970174598E+03  0.00000000000E+00 0.  1.
         22    1    4    4    0    0 -0.19363752765E+01 -0.37298635285E+01 -0.11747271025E+03  0.11754785870E+03  0.00000000000E+00 0.  1.
<mgrwt>
<rscale>  0 0.94415931E+02</rscale>
<asrwt>0</asrwt>
<pdfrwt beam="2">  1        1 0.63106960E-01 0.94415931E+02</pdfrwt>
<pdfrwt beam="1">  1       -1 0.83584663E-03 0.94415931E+02</pdfrwt>
<totfact> 0.12342951E+05</totfact>
</mgrwt>
</event>
<event>
 7    1  0.3345055E-009  0.8929195E+02  0.7818608E-02  0.1304575E+00
         -1   -1    0    0    0  501 -0.00000000000E+00  0.00000000000E+00  0.88474616907E+01  0.88474631262E+01  0.50400000000E-02 0.  1.
          1   -1    0    0  501    0  0.00000000000E+00 -0.00000000000E+00 -0.22529205009E+03  0.22529205014E+03  0.50400000000E-02 0. -1.
         23    2    1    2    0    0  0.00000000000E+00  0.00000000000E+00 -0.21644458840E+03  0.23413951327E+03  0.89291947163E+02 0.  0.
    9000005    2    3    3    0    0 -0.37665994479E+01 -0.32984852814E+02 -0.18584211948E+03  0.18898755993E+03  0.87645107587E+01 0.  0.
         22    1    3    3    0    0  0.37665994479E+01  0.32984852814E+02 -0.30602468915E+02  0.45151953338E+02  0.00000000000E+00 0.  1.
         22    1    4    4    0    0  0.53008556341E+00 -0.26382202592E+02 -0.14804184035E+03  0.15037515785E+03  0.00000000000E+00 0. -1.
         22    1    4    4    0    0 -0.42966850113E+01 -0.66026502218E+01 -0.37800279137E+02  0.38612402087E+02  0.00000000000E+00 0. -1.
<mgrwt>
<rscale>  0 0.89291947E+02</rscale>
<asrwt>0</asrwt>
<pdfrwt beam="2">  1        1 0.34660311E-01 0.89291947E+02</pdfrwt>
<pdfrwt beam="1">  1       -1 0.13611482E-02 0.89291947E+02</pdfrwt>
<totfact> 0.12813956E+05</totfact>
</mgrwt>
</event>
<event>
 7    1  0.3345055E-009  0.9238160E+02  0.7818608E-02  0.1297185E+00
         -1   -1    0    0    0  501 -0.00000000000E+00  0.00000000000E+00  0.47493116165E+03  0.47493116168E+03  0.50400000000E-02 0.  1.
          1   -1    0    0  501    0  0.00000000000E+00 -0.00000000000E+00 -0.44924176889E+01  0.44924205161E+01  0.50400000000E-02 0. -1.
         23    2    1    2    0    0  0.00000000000E+00  0.00000000000E+00  0.47043874396E+03  0.47942358219E+03  0.92381596343E+02 0.  0.
    9000005    2    3    3    0    0  0.23054173331E+02  0.39369073588E+02  0.20587654770E+03  0.21095649938E+03  0.60060698382E+01 0.  0.
         22    1    3    3    0    0 -0.23054173331E+02 -0.39369073588E+02  0.26456219626E+03  0.26846708281E+03  0.00000000000E+00 0.  1.
         22    1    4    4    0    0  0.19214721290E+02  0.34537823925E+02  0.18560799464E+03  0.18976931910E+03  0.00000000000E+00 0. -1.
         22    1    4    4    0    0  0.38394520415E+01  0.48312496634E+01  0.20268553060E+02  0.21187180286E+02  0.00000000000E+00 0. -1.
<mgrwt>
<rscale>  0 0.92381596E+02</rscale>
<asrwt>0</asrwt>
<pdfrwt beam="2">  1        1 0.69114138E-03 0.92381596E+02</pdfrwt>
<pdfrwt beam="1">  1       -1 0.73066335E-01 0.92381596E+02</pdfrwt>
<totfact> 0.46880217E+04</totfact>
</mgrwt>
</event>
<event>
 7    1  0.3345055E-009  0.9111208E+02  0.7818608E-02  0.1300181E+00
          1   -1    0    0  501    0  0.00000000000E+00  0.00000000000E+00  0.70744592109E+03  0.70744592110E+03  0.50400000000E-02 0. -1.
         -1   -1    0    0    0  501 -0.00000000000E+00 -0.00000000000E+00 -0.29335831778E+01  0.29335875073E+01  0.50400000000E-02 0.  1.
         23    2    1    2    0    0  0.00000000000E+00  0.00000000000E+00  0.70451233791E+03  0.71037950861E+03  0.91112084763E+02 0.  0.
    9000005    2    3    3    0    0  0.18843065474E+02 -0.32332075137E+02  0.55469364107E+03  0.55595779342E+03  0.18995857306E+01 0.  0.
         22    1    3    3    0    0 -0.18843065474E+02  0.32332075137E+02  0.14981869684E+03  0.15442171519E+03  0.00000000000E+00 0. -1.
         22    1    4    4    0    0  0.46058670105E+00 -0.12034526014E+01  0.23636126032E+02  0.23671224981E+02  0.00000000000E+00 0. -1.
         22    1    4    4    0    0  0.18382478773E+02 -0.31128622536E+02  0.53105751504E+03  0.53228656844E+03  0.00000000000E+00 0. -1.
<mgrwt>
<rscale>  0 0.91112085E+02</rscale>
<asrwt>0</asrwt>
<pdfrwt beam="1">  1        1 0.10883768E+00 0.91112085E+02</pdfrwt>
<pdfrwt beam="2">  1       -1 0.45132146E-03 0.91112085E+02</pdfrwt>
<totfact> 0.14242482E+05</totfact>
</mgrwt>
</event>
<event>
 7    1  0.3345055E-009  0.9974869E+02  0.7818608E-02  0.1280825E+00
          1   -1    0    0  501    0  0.00000000000E+00  0.00000000000E+00  0.16157233935E+03  0.16157233943E+03  0.50400000000E-02 0. -1.
         -1   -1    0    0    0  501 -0.00000000000E+00 -0.00000000000E+00 -0.15395272678E+02  0.15395273503E+02  0.50400000000E-02 0.  1.
         23    2    1    2    0    0  0.00000000000E+00 -0.35527136788E-14  0.14617706668E+03  0.17696761294E+03  0.99748690248E+02 0.  0.
    9000005    2    3    3    0    0  0.39416370899E+02 -0.18739396079E+02  0.11305158628E+03  0.12217607425E+03  0.15540807519E+02 0.  0.
         22    1    3    3    0    0 -0.39416370899E+02  0.18739396079E+02  0.33125480398E+02  0.54791538689E+02  0.00000000000E+00 0.  1.
         22    1    4    4    0    0  0.34155289279E+02 -0.94324174730E+01  0.81744607188E+02  0.89093967750E+02  0.00000000000E+00 0.  1.
         22    1    4    4    0    0  0.52610816203E+01 -0.93069786057E+01  0.31306979090E+02  0.33082106498E+02  0.00000000000E+00 0.  1.
<mgrwt>
<rscale>  0 0.99748690E+02</rscale>
<asrwt>0</asrwt>
<pdfrwt beam="1">  1        1 0.24857283E-01 0.99748690E+02</pdfrwt>
<pdfrwt beam="2">  1       -1 0.23685036E-02 0.99748690E+02</pdfrwt>
<totfact> 0.89123890E+04</totfact>
</mgrwt>
</event>
<event>
 7    1  0.3345055E-009  0.8843655E+02  0.7818608E-02  0.1306683E+00
          1   -1    0    0  501    0  0.00000000000E+00  0.00000000000E+00  0.30112970903E+02  0.30112971325E+02  0.50400000000E-02 0. -1.
         -1   -1    0    0    0  501 -0.00000000000E+00 -0.00000000000E+00 -0.64930678141E+02  0.64930678336E+02  0.50400000000E-02 0.  1.
         23    2    1    2    0    0  0.17763568394E-14 -0.71054273576E-14 -0.34817707238E+02  0.95043649661E+02  0.88436545634E+02 0.  0.
    9000005    2    3    3    0    0 -0.56779200899E+01  0.40161222804E+02 -0.33593516168E+02  0.54464575775E+02  0.13881753928E+02 0.  0.
         22    1    3    3    0    0  0.56779200899E+01 -0.40161222804E+02 -0.12241910695E+01  0.40579073886E+02  0.00000000000E+00 0. -1.
         22    1    4    4    0    0  0.36022570731E+01  0.78598813011E+01 -0.10897705911E+02  0.13910930386E+02  0.00000000000E+00 0. -1.
         22    1    4    4    0    0 -0.92801771630E+01  0.32301341503E+02 -0.22695810258E+02  0.40553645389E+02  0.00000000000E+00 0. -1.
<mgrwt>
<rscale>  0 0.88436546E+02</rscale>
<asrwt>0</asrwt>
<pdfrwt beam="1">  1        1 0.46327648E-02 0.88436546E+02</pdfrwt>
<pdfrwt beam="2">  1       -1 0.99893351E-02 0.88436546E+02</pdfrwt>
<totfact> 0.94645943E+04</totfact>
</mgrwt>
</event>
<event>
 7    1  0.3345055E-009  0.9196558E+02  0.7818608E-02  0.1298160E+00
          1   -1    0    0  501    0  0.00000000000E+00  0.00000000000E+00  0.29075068432E+03  0.29075068437E+03  0.50400000000E-02 0.  1.
         -1   -1    0    0    0  501 -0.00000000000E+00 -0.00000000000E+00 -0.72722669675E+01  0.72722687140E+01  0.50400000000E-02 0. -1.
         23    2    1    2    0    0  0.00000000000E+00  0.00000000000E+00  0.28347841736E+03  0.29802295308E+03  0.91965577564E+02 0.  0.
    9000005    2    3    3    0    0 -0.41253273646E+02 -0.14063871289E+02  0.18318136373E+03  0.18866517316E+03  0.11811455683E+02 0.  0.
         22    1    3    3    0    0  0.41253273646E+02  0.14063871289E+02  0.10029705363E+03  0.10935777992E+03  0.00000000000E+00 0.  1.
         22    1    4    4    0    0 -0.19235645813E+02 -0.29001730264E+01  0.61436338081E+02  0.64442569085E+02  0.00000000000E+00 0. -1.
         22    1    4    4    0    0 -0.22017627832E+02 -0.11163698263E+02  0.12174502565E+03  0.12422260408E+03  0.00000000000E+00 0. -1.
<mgrwt>
<rscale>  0 0.91965578E+02</rscale>
<asrwt>0</asrwt>
<pdfrwt beam="1">  1        1 0.44730862E-01 0.91965578E+02</pdfrwt>
<pdfrwt beam="2">  1       -1 0.11188107E-02 0.91965578E+02</pdfrwt>
<totfact> 0.12446207E+05</totfact>
</mgrwt>
</event>
<event>
 7    1  0.3345055E-009  0.9397581E+02  0.7818608E-02  0.1293500E+00
          1   -1    0    0  501    0  0.00000000000E+00  0.00000000000E+00  0.79059598039E+02  0.79059598200E+02  0.50400000000E-02 0. -1.
         -1   -1    0    0    0  501 -0.00000000000E+00 -0.00000000000E+00 -0.27926567177E+02  0.27926567632E+02  0.50400000000E-02 0.  1.
         23    2    1    2    0    0  0.00000000000E+00  0.00000000000E+00  0.51133030862E+02  0.10698616583E+03  0.93975809836E+02 0.  0.
    9000005    2    3    3    0    0 -0.19447126177E+02 -0.42575119791E+02  0.27164352100E+02  0.54399769270E+02  0.55318468828E+01 0.  0.
         22    1    3    3    0    0  0.19447126177E+02  0.42575119791E+02  0.23968678762E+02  0.52586396562E+02  0.00000000000E+00 0.  1.
         22    1    4    4    0    0 -0.35067981802E+01 -0.91446072426E+01  0.82895303823E+01  0.12831125791E+02  0.00000000000E+00 0.  1.
         22    1    4    4    0    0 -0.15940327997E+02 -0.33430512548E+02  0.18874821718E+02  0.41568643480E+02  0.00000000000E+00 0.  1.
<mgrwt>
<rscale>  0 0.93975810E+02</rscale>
<asrwt>0</asrwt>
<pdfrwt beam="1">  1        1 0.12163015E-01 0.93975810E+02</pdfrwt>
<pdfrwt beam="2">  1       -1 0.42963950E-02 0.93975810E+02</pdfrwt>
<totfact> 0.92521660E+04</totfact>
</mgrwt>
</event>
<event>
 7    1  0.3345055E-009  0.9332700E+02  0.7818608E-02  0.1294989E+00
          1   -1    0    0  501    0  0.00000000000E+00  0.00000000000E+00  0.40959887923E+03  0.40959887926E+03  0.50400000000E-02 0. -1.
         -1   -1    0    0    0  501 -0.00000000000E+00 -0.00000000000E+00 -0.53161315554E+01  0.53161339445E+01  0.50400000000E-02 0.  1.
         23    2    1    2    0    0  0.00000000000E+00  0.00000000000E+00  0.40428274768E+03  0.41491501321E+03  0.93326995644E+02 0.  0.
    9000005    2    3    3    0    0 -0.39404448083E+02 -0.22827530827E+02  0.22750099778E+03  0.23236202422E+03  0.12712183746E+02 0.  0.
         22    1    3    3    0    0  0.39404448083E+02  0.22827530827E+02  0.17678174989E+03  0.18255298899E+03  0.00000000000E+00 0.  1.
         22    1    4    4    0    0 -0.78034008427E+01 -0.80921101809E+01  0.36060683537E+02  0.37772320673E+02  0.00000000000E+00 0.  1.
         22    1    4    4    0    0 -0.31601047240E+02 -0.14735420646E+02  0.19144031425E+03  0.19458970355E+03  0.00000000000E+00 0.  1.
<mgrwt>
<rscale>  0 0.93326996E+02</rscale>
<asrwt>0</asrwt>
<pdfrwt beam="1">  1        1 0.63015254E-01 0.93326996E+02</pdfrwt>
<pdfrwt beam="2">  1       -1 0.81786604E-03 0.93326996E+02</pdfrwt>
<totfact> 0.12727287E+05</totfact>
</mgrwt>
</event>
<event>
 7    1  0.3345055E-009  0.8964569E+02  0.7818608E-02  0.1303712E+00
         -1   -1    0    0    0  501 -0.00000000000E+00  0.00000000000E+00  0.13575419660E+02  0.13575420596E+02  0.50400000000E-02 0.  1.
          1   -1    0    0  501    0  0.00000000000E+00 -0.00000000000E+00 -0.14799450018E+03  0.14799450026E+03  0.50400000000E-02 0. -1.
         23    2    1    2    0    0  0.00000000000E+00  0.88817841970E-15 -0.13441908052E+03  0.16156992086E+03  0.89645692140E+02 0.  0.
    9000005    2    3    3    0    0 -0.39571330024E+02 -0.76557931610E+01 -0.38407926420E+02  0.57441908106E+02  0.14138693935E+02 0.  0.
         22    1    3    3    0    0  0.39571330024E+02  0.76557931610E+01 -0.96011154097E+02  0.10412801275E+03  0.00000000000E+00 0.  1.
         22    1    4    4    0    0 -0.11501472877E+02  0.39902461379E+01 -0.13211589959E+02  0.17965301328E+02  0.00000000000E+00 0. -1.
         22    1    4    4    0    0 -0.28069857148E+02 -0.11646039299E+02 -0.25196336461E+02  0.39476606778E+02  0.00000000000E+00 0. -1.
<mgrwt>
<rscale>  0 0.89645692E+02</rscale>
<asrwt>0</asrwt>
<pdfrwt beam="2">  1        1 0.22768384E-01 0.89645692E+02</pdfrwt>
<pdfrwt beam="1">  1       -1 0.20885263E-02 0.89645692E+02</pdfrwt>
<totfact> 0.11707765E+05</totfact>
</mgrwt>
</event>
<event>
 7    1  0.3345055E-009  0.9144252E+02  0.7818608E-02  0.1299396E+00
          1   -1    0    0  501    0  0.00000000000E+00  0.00000000000E+00  0.21875686358E+02  0.21875686939E+02  0.50400000000E-02 0. -1.
         -1   -1    0    0    0  501 -0.00000000000E+00 -0.00000000000E+00 -0.95559676913E+02  0.95559677046E+02  0.50400000000E-02 0.  1.
         23    2    1    2    0    0  0.00000000000E+00  0.00000000000E+00 -0.73683990555E+02  0.11743536398E+03  0.91442518831E+02 0.  0.
    9000005    2    3    3    0    0  0.53541307713E+01  0.38060882858E+02 -0.62040283434E+01  0.39776862709E+02  0.81493140224E+01 0.  0.
         22    1    3    3    0    0 -0.53541307713E+01 -0.38060882858E+02 -0.67479962212E+02  0.77658501275E+02  0.00000000000E+00 0.  1.
         22    1    4    4    0    0  0.13744837481E+01  0.31979612483E+02 -0.54555700490E+01  0.32470726273E+02  0.00000000000E+00 0.  1.
         22    1    4    4    0    0  0.39796470232E+01  0.60812703755E+01 -0.74845829443E+00  0.73061364364E+01  0.00000000000E+00 0.  1.
<mgrwt>
<rscale>  0 0.91442519E+02</rscale>
<asrwt>0</asrwt>
<pdfrwt beam="1">  1        1 0.33654903E-02 0.91442519E+02</pdfrwt>
<pdfrwt beam="2">  1       -1 0.14701489E-01 0.91442519E+02</pdfrwt>
<totfact> 0.81440997E+04</totfact>
</mgrwt>
</event>
<event>
 7    1  0.3345055E-009  0.1015597E+03  0.7818608E-02  0.1277050E+00
          1   -1    0    0  501    0  0.00000000000E+00  0.00000000000E+00  0.62723814035E+02  0.62723814237E+02  0.50400000000E-02 0. -1.
         -1   -1    0    0    0  501 -0.00000000000E+00 -0.00000000000E+00 -0.41110308722E+02  0.41110309031E+02  0.50400000000E-02 0.  1.
         23    2    1    2    0    0  0.71054273576E-14  0.00000000000E+00  0.21613505313E+02  0.10383412327E+03  0.10155974371E+03 0.  0.
    9000005    2    3    3    0    0  0.36884470293E+02  0.51165308893E+01 -0.23121206640E+02  0.45628990414E+02  0.12679571463E+02 0.  0.
         22    1    3    3    0    0 -0.36884470293E+02 -0.51165308893E+01  0.44734711953E+02  0.58205132855E+02  0.00000000000E+00 0. -1.
         22    1    4    4    0    0  0.26212445439E+01  0.43116302093E+01 -0.25056485474E+01  0.56337689573E+01  0.00000000000E+00 0.  1.
         22    1    4    4    0    0  0.34263225749E+02  0.80490068004E+00 -0.20615558093E+02  0.39995221456E+02  0.00000000000E+00 0.  1.
<mgrwt>
<rscale>  0 0.10155974E+03</rscale>
<asrwt>0</asrwt>
<pdfrwt beam="1">  1        1 0.96498176E-02 0.10155974E+03</pdfrwt>
<pdfrwt beam="2">  1       -1 0.63246629E-02 0.10155974E+03</pdfrwt>
<totfact> 0.71785612E+04</totfact>
</mgrwt>
</event>
<event>
 7    1  0.3472651E-009  0.8937088E+02  0.7818608E-02  0.1304382E+00
         -1   -1    0    0    0  501 -0.00000000000E+00  0.00000000000E+00  0.37034872962E+01  0.37034907256E+01  0.50400000000E-02 0.  1.
          1   -1    0    0  501    0  0.00000000000E+00 -0.00000000000E+00 -0.53916420346E+03  0.53916420349E+03  0.50400000000E-02 0. -1.
         23    2    1    2    0    0 -0.17763568394E-14  0.35527136788E-14 -0.53546071617E+03  0.54286769421E+03  0.89370883745E+02 0.  0.
    9000005    2    3    3    0    0  0.14451482687E+02 -0.21889139294E+02 -0.48523506863E+03  0.48620557776E+03  0.15962839370E+02 0.  0.
         22    1    3    3    0    0 -0.14451482687E+02  0.21889139294E+02 -0.50225647535E+02  0.56662116455E+02  0.00000000000E+00 0.  1.
         22    1    4    4    0    0  0.94047292507E+01 -0.18148703948E+02 -0.23374244916E+03  0.23463451777E+03  0.00000000000E+00 0.  1.
         22    1    4    4    0    0  0.50467534361E+01 -0.37404353461E+01 -0.25149261947E+03  0.25157105999E+03  0.00000000000E+00 0.  1.
<mgrwt>
<rscale>  0 0.89370884E+02</rscale>
<asrwt>0</asrwt>
<pdfrwt beam="2">  1        1 0.82948277E-01 0.89370884E+02</pdfrwt>
<pdfrwt beam="1">  1       -1 0.56976797E-03 0.89370884E+02</pdfrwt>
<totfact> 0.14802897E+05</totfact>
</mgrwt>
</event>
<event>
 7    1  0.3345055E-009  0.9295392E+02  0.7818608E-02  0.1295852E+00
         -1   -1    0    0    0  501 -0.00000000000E+00  0.00000000000E+00  0.31233059555E+02  0.31233059962E+02  0.50400000000E-02 0.  1.
          1   -1    0    0  501    0  0.00000000000E+00 -0.00000000000E+00 -0.69160939925E+02  0.69160940109E+02  0.50400000000E-02 0. -1.
         23    2    1    2    0    0  0.00000000000E+00  0.00000000000E+00 -0.37927880370E+02  0.10039400007E+03  0.92953919449E+02 0.  0.
    9000005    2    3    3    0    0  0.20927239519E+02  0.18555968848E+02  0.20571216071E+02  0.35552519379E+02  0.76507104120E+01 0.  0.
         22    1    3    3    0    0 -0.20927239519E+02 -0.18555968848E+02 -0.58499096442E+02  0.64841480691E+02  0.00000000000E+00 0. -1.
         22    1    4    4    0    0  0.17612058268E+01  0.44242282554E+01  0.59046786767E+01  0.75855699783E+01  0.00000000000E+00 0. -1.
         22    1    4    4    0    0  0.19166033692E+02  0.14131740592E+02  0.14666537395E+02  0.27966949401E+02  0.00000000000E+00 0. -1.
<mgrwt>
<rscale>  0 0.92953919E+02</rscale>
<asrwt>0</asrwt>
<pdfrwt beam="2">  1        1 0.10640145E-01 0.92953919E+02</pdfrwt>
<pdfrwt beam="1">  1       -1 0.48050861E-02 0.92953919E+02</pdfrwt>
<totfact> 0.93364208E+04</totfact>
</mgrwt>
</event>
<event>
 7    1  0.3407335E-009  0.1263236E+03  0.7818608E-02  0.1233015E+00
         -1   -1    0    0    0  501 -0.00000000000E+00  0.00000000000E+00  0.92474838801E+01  0.92474852535E+01  0.50400000000E-02 0.  1.
          1   -1    0    0  501    0  0.00000000000E+00 -0.00000000000E+00 -0.43140528255E+03  0.43140528258E+03  0.50400000000E-02 0. -1.
         23    2    1    2    0    0  0.00000000000E+00  0.17763568394E-14 -0.42215779867E+03  0.44065276784E+03  0.12632361149E+03 0.  0.
    9000005    2    3    3    0    0 -0.45534226099E+02  0.90816085517E+01 -0.35929906617E+03  0.36250507681E+03  0.12580556607E+02 0.  0.
         22    1    3    3    0    0  0.45534226099E+02 -0.90816085517E+01 -0.62858732505E+02  0.78147691024E+02  0.00000000000E+00 0. -1.
         22    1    4    4    0    0 -0.35823077157E+02  0.27760945729E+01 -0.24493434524E+03  0.24755571704E+03  0.00000000000E+00 0.  1.
         22    1    4    4    0    0 -0.97111489421E+01  0.63055139788E+01 -0.11436472092E+03  0.11494935977E+03  0.00000000000E+00 0.  1.
<mgrwt>
<rscale>  0 0.12632361E+03</rscale>
<asrwt>0</asrwt>
<pdfrwt beam="2">  1        1 0.66370028E-01 0.12632361E+03</pdfrwt>
<pdfrwt beam="1">  1       -1 0.14226903E-02 0.12632361E+03</pdfrwt>
<totfact> 0.56649312E+04</totfact>
</mgrwt>
</event>
<event>
 7    1  0.3345055E-009  0.9140374E+02  0.7818608E-02  0.1299488E+00
          1   -1    0    0  501    0  0.00000000000E+00  0.00000000000E+00  0.75012562681E+02  0.75012562850E+02  0.50400000000E-02 0. -1.
         -1   -1    0    0    0  501 -0.00000000000E+00 -0.00000000000E+00 -0.27844146746E+02  0.27844147202E+02  0.50400000000E-02 0.  1.
         23    2    1    2    0    0 -0.88817841970E-15 -0.71054273576E-14  0.47168415936E+02  0.10285671005E+03  0.91403738112E+02 0.  0.
    9000005    2    3    3    0    0 -0.78902302861E+01 -0.35048115279E+02  0.53480980019E+02  0.66381038928E+02  0.15987525976E+02 0.  0.
         22    1    3    3    0    0  0.78902302861E+01  0.35048115279E+02 -0.63125640834E+01  0.36475671124E+02  0.00000000000E+00 0.  1.
         22    1    4    4    0    0 -0.58214137695E+01 -0.52036567916E+01  0.45721666160E+01  0.90482932006E+01  0.00000000000E+00 0.  1.
         22    1    4    4    0    0 -0.20688165166E+01 -0.29844458488E+02  0.48908813403E+02  0.57332745728E+02  0.00000000000E+00 0.  1.
<mgrwt>
<rscale>  0 0.91403738E+02</rscale>
<asrwt>0</asrwt>
<pdfrwt beam="1">  1        1 0.11540394E-01 0.91403738E+02</pdfrwt>
<pdfrwt beam="2">  1       -1 0.42837150E-02 0.91403738E+02</pdfrwt>
<totfact> 0.99051463E+04</totfact>
</mgrwt>
</event>
<event>
 7    1  0.3345055E-009  0.9116423E+02  0.7818608E-02  0.1300057E+00
          1   -1    0    0  501    0  0.00000000000E+00  0.00000000000E+00  0.20373431644E+03  0.20373431650E+03  0.50400000000E-02 0. -1.
         -1   -1    0    0    0  501 -0.00000000000E+00 -0.00000000000E+00 -0.10198227660E+02  0.10198228905E+02  0.50400000000E-02 0.  1.
         23    2    1    2    0    0  0.00000000000E+00 -0.35527136788E-14  0.19353608878E+03  0.21393254541E+03  0.91164227217E+02 0.  0.
    9000005    2    3    3    0    0 -0.35424848029E+02 -0.28349422140E+02  0.94247862910E+02  0.10476862559E+03  0.59325922879E+01 0.  0.
         22    1    3    3    0    0  0.35424848029E+02  0.28349422140E+02  0.99288225871E+02  0.10916391982E+03  0.00000000000E+00 0.  1.
         22    1    4    4    0    0 -0.22452515096E+02 -0.21456876669E+02  0.62865877878E+02  0.70118696450E+02  0.00000000000E+00 0. -1.
         22    1    4    4    0    0 -0.12972332933E+02 -0.68925454706E+01  0.31381985032E+02  0.34649929139E+02  0.00000000000E+00 0. -1.
<mgrwt>
<rscale>  0 0.91164227E+02</rscale>
<asrwt>0</asrwt>
<pdfrwt beam="1">  1        1 0.31343741E-01 0.91164227E+02</pdfrwt>
<pdfrwt beam="2">  1       -1 0.15689582E-02 0.91164227E+02</pdfrwt>
<totfact> 0.11887608E+05</totfact>
</mgrwt>
</event>
<event>
 7    1  0.3345055E-009  0.8861402E+02  0.7818608E-02  0.1306243E+00
         -1   -1    0    0    0  501 -0.00000000000E+00  0.00000000000E+00  0.35504307272E+02  0.35504307630E+02  0.50400000000E-02 0.  1.
          1   -1    0    0  501    0  0.00000000000E+00 -0.00000000000E+00 -0.55292193487E+02  0.55292193717E+02  0.50400000000E-02 0. -1.
         23    2    1    2    0    0  0.00000000000E+00  0.35527136788E-14 -0.19787886215E+02  0.90796501347E+02  0.88614018168E+02 0.  0.
    9000005    2    3    3    0    0  0.33231709111E+02  0.21478090852E+02  0.93209641599E+01  0.41674408076E+02  0.91772021084E+01 0.  0.
         22    1    3    3    0    0 -0.33231709111E+02 -0.21478090852E+02 -0.29108850375E+02  0.49122093270E+02  0.00000000000E+00 0. -1.
         22    1    4    4    0    0  0.24139670226E+01  0.44127763784E+01 -0.62868205573E+00  0.50690308028E+01  0.00000000000E+00 0.  1.
         22    1    4    4    0    0  0.30817742088E+02  0.17065314474E+02  0.99496462157E+01  0.36605377273E+02  0.00000000000E+00 0.  1.
<mgrwt>
<rscale>  0 0.88614018E+02</rscale>
<asrwt>0</asrwt>
<pdfrwt beam="2">  1        1 0.85064913E-02 0.88614018E+02</pdfrwt>
<pdfrwt beam="1">  1       -1 0.54622012E-02 0.88614018E+02</pdfrwt>
<totfact> 0.10302659E+05</totfact>
</mgrwt>
</event>
<event>
 7    1  0.3345055E-009  0.9085557E+02  0.7818608E-02  0.1300793E+00
          1   -1    0    0  501    0  0.00000000000E+00  0.00000000000E+00  0.26073412015E+03  0.26073412020E+03  0.50400000000E-02 0. -1.
         -1   -1    0    0    0  501 -0.00000000000E+00 -0.00000000000E+00 -0.79148958120E+01  0.79148974167E+01  0.50400000000E-02 0.  1.
         23    2    1    2    0    0  0.00000000000E+00  0.00000000000E+00  0.25281922434E+03  0.26864901762E+03  0.90855569290E+02 0.  0.
    9000005    2    3    3    0    0  0.32706717401E+02 -0.24078404305E+02  0.18209638998E+03  0.18709401645E+03  0.13984878514E+02 0.  0.
         22    1    3    3    0    0 -0.32706717401E+02  0.24078404305E+02  0.70722834358E+02  0.81555001175E+02  0.00000000000E+00 0.  1.
         22    1    4    4    0    0  0.34044951797E+01 -0.95234061971E+01  0.49279584378E+02  0.50306692293E+02  0.00000000000E+00 0.  1.
         22    1    4    4    0    0  0.29302222221E+02 -0.14554998108E+02  0.13281680561E+03  0.13678732415E+03  0.00000000000E+00 0.  1.
<mgrwt>
<rscale>  0 0.90855569E+02</rscale>
<asrwt>0</asrwt>
<pdfrwt beam="1">  1        1 0.40112949E-01 0.90855569E+02</pdfrwt>
<pdfrwt beam="2">  1       -1 0.12176762E-02 0.90855569E+02</pdfrwt>
<totfact> 0.12586887E+05</totfact>
</mgrwt>
</event>
<event>
 7    1  0.3345055E-009  0.9137118E+02  0.7818608E-02  0.1299565E+00
         -1   -1    0    0    0  501 -0.00000000000E+00  0.00000000000E+00  0.18613263826E+02  0.18613264508E+02  0.50400000000E-02 0.  1.
          1   -1    0    0  501    0  0.00000000000E+00 -0.00000000000E+00 -0.11213364683E+03  0.11213364695E+03  0.50400000000E-02 0. -1.
         23    2    1    2    0    0  0.00000000000E+00  0.00000000000E+00 -0.93520383008E+02  0.13074691146E+03  0.91371181546E+02 0.  0.
    9000005    2    3    3    0    0 -0.27556225119E+02 -0.33972235296E+02 -0.36577557649E+02  0.58942011387E+02  0.14925972969E+02 0.  0.
         22    1    3    3    0    0  0.27556225119E+02  0.33972235296E+02 -0.56942825359E+02  0.71804900068E+02  0.00000000000E+00 0.  1.
         22    1    4    4    0    0 -0.94746857235E+01 -0.30310739700E+01 -0.48004067652E+01  0.11045405564E+02  0.00000000000E+00 0.  1.
         22    1    4    4    0    0 -0.18081539395E+02 -0.30941161326E+02 -0.31777150883E+02  0.47896605823E+02  0.00000000000E+00 0.  1.
<mgrwt>
<rscale>  0 0.91371182E+02</rscale>
<asrwt>0</asrwt>
<pdfrwt beam="2">  1        1 0.17251330E-01 0.91371182E+02</pdfrwt>
<pdfrwt beam="1">  1       -1 0.28635792E-02 0.91371182E+02</pdfrwt>
<totfact> 0.10587286E+05</totfact>
</mgrwt>
</event>
<event>
 7    1  0.3345055E-009  0.1036376E+03  0.7818608E-02  0.1272827E+00
          1   -1    0    0  501    0  0.00000000000E+00  0.00000000000E+00  0.52189276219E+03  0.52189276221E+03  0.50400000000E-02 0. -1.
         -1   -1    0    0    0  501 -0.00000000000E+00 -0.00000000000E+00 -0.51450925343E+01  0.51450950029E+01  0.50400000000E-02 0.  1.
         23    2    1    2    0    0  0.00000000000E+00 -0.35527136788E-14  0.51674766966E+03  0.52703785722E+03  0.10363758414E+03 0.  0.
    9000005    2    3    3    0    0  0.11650326824E+02 -0.28432302030E+02  0.46894623164E+03  0.47021265691E+03  0.15660416098E+02 0.  0.
         22    1    3    3    0    0 -0.11650326824E+02  0.28432302030E+02  0.47801438011E+02  0.56825200306E+02  0.00000000000E+00 0.  1.
         22    1    4    4    0    0  0.16222480917E+01  0.32460970748E+00  0.49733163912E+01  0.52412723894E+01  0.00000000000E+00 0. -1.
         22    1    4    4    0    0  0.10028078733E+02 -0.28756911738E+02  0.46397291525E+03  0.46497138452E+03  0.00000000000E+00 0. -1.
<mgrwt>
<rscale>  0 0.10363758E+03</rscale>
<asrwt>0</asrwt>
<pdfrwt beam="1">  1        1 0.80291225E-01 0.10363758E+03</pdfrwt>
<pdfrwt beam="2">  1       -1 0.79155259E-03 0.10363758E+03</pdfrwt>
<totfact> 0.99449062E+04</totfact>
</mgrwt>
</event>
<event>
 7    1  0.3345055E-009  0.9140177E+02  0.7818608E-02  0.1299492E+00
          1   -1    0    0  501    0  0.00000000000E+00  0.00000000000E+00  0.13446992346E+03  0.13446992355E+03  0.50400000000E-02 0. -1.
         -1   -1    0    0    0  501 -0.00000000000E+00 -0.00000000000E+00 -0.15531881064E+02  0.15531881882E+02  0.50400000000E-02 0.  1.
         23    2    1    2    0    0  0.17763568394E-14  0.35527136788E-14  0.11893804239E+03  0.15000180544E+03  0.91401770799E+02 0.  0.
    9000005    2    3    3    0    0  0.15521923851E+02  0.26255376942E+02  0.73677321266E+01  0.34337597179E+02  0.13946761808E+02 0.  0.
         22    1    3    3    0    0 -0.15521923851E+02 -0.26255376942E+02  0.11157031027E+03  0.11566420826E+03  0.00000000000E+00 0. -1.
         22    1    4    4    0    0  0.58759354038E+01  0.15293192378E+02 -0.26961670133E+01  0.16603543794E+02  0.00000000000E+00 0. -1.
         22    1    4    4    0    0  0.96459884472E+01  0.10962184564E+02  0.10063899140E+02  0.17734053384E+02  0.00000000000E+00 0. -1.
<mgrwt>
<rscale>  0 0.91401771E+02</rscale>
<asrwt>0</asrwt>
<pdfrwt beam="1">  1        1 0.20687681E-01 0.91401771E+02</pdfrwt>
<pdfrwt beam="2">  1       -1 0.23895202E-02 0.91401771E+02</pdfrwt>
<totfact> 0.10919797E+05</totfact>
</mgrwt>
</event>
<event>
 7    1  0.3345055E-009  0.8973710E+02  0.7818608E-02  0.1303490E+00
          1   -1    0    0  501    0  0.00000000000E+00  0.00000000000E+00  0.34049398420E+01  0.34049435721E+01  0.50400000000E-02 0. -1.
         -1   -1    0    0    0  501 -0.00000000000E+00 -0.00000000000E+00 -0.59125435037E+03  0.59125435040E+03  0.50400000000E-02 0.  1.
         23    2    1    2    0    0  0.00000000000E+00  0.17763568394E-14 -0.58784941053E+03  0.59465929397E+03  0.89737096226E+02 0.  0.
    9000005    2    3    3    0    0  0.36086856285E+02  0.11922023704E+02 -0.45079672951E+03  0.45243470671E+03  0.59225544919E+01 0.  0.
         22    1    3    3    0    0 -0.36086856285E+02 -0.11922023704E+02 -0.13705268102E+03  0.14222458726E+03  0.00000000000E+00 0. -1.
         22    1    4    4    0    0  0.33378257184E+02  0.12510859554E+02 -0.42356057079E+03  0.42505786287E+03  0.00000000000E+00 0.  1.
         22    1    4    4    0    0  0.27085991008E+01 -0.58883585037E+00 -0.27236158721E+02  0.27376843840E+02  0.00000000000E+00 0.  1.
<mgrwt>
<rscale>  0 0.89737096E+02</rscale>
<asrwt>0</asrwt>
<pdfrwt beam="1">  1        1 0.52383766E-03 0.89737096E+02</pdfrwt>
<pdfrwt beam="2">  1       -1 0.90962126E-01 0.89737096E+02</pdfrwt>
<totfact> 0.43854919E+04</totfact>
</mgrwt>
</event>
<event>
 7    1  0.3345055E-009  0.9234350E+02  0.7818608E-02  0.1297274E+00
         -1   -1    0    0    0  501 -0.00000000000E+00  0.00000000000E+00  0.18621177878E+02  0.18621178560E+02  0.50400000000E-02 0.  1.
          1   -1    0    0  501    0  0.00000000000E+00 -0.00000000000E+00 -0.11448419050E+03  0.11448419061E+03  0.50400000000E-02 0. -1.
         23    2    1    2    0    0  0.00000000000E+00  0.71054273576E-14 -0.95863012623E+02  0.13310536917E+03  0.92343500655E+02 0.  0.
    9000005    2    3    3    0    0 -0.23436881822E+02 -0.38094041127E+02 -0.62526405583E+02  0.77322103152E+02  0.82893209487E+01 0.  0.
         22    1    3    3    0    0  0.23436881822E+02  0.38094041127E+02 -0.33336607040E+02  0.55783266020E+02  0.00000000000E+00 0. -1.
         22    1    4    4    0    0 -0.12489490444E+02 -0.27587035675E+02 -0.40278862545E+02  0.50392645067E+02  0.00000000000E+00 0.  1.
         22    1    4    4    0    0 -0.10947391377E+02 -0.10507005452E+02 -0.22247543037E+02  0.26929458085E+02  0.00000000000E+00 0.  1.
<mgrwt>
<rscale>  0 0.92343501E+02</rscale>
<asrwt>0</asrwt>
<pdfrwt beam="2">  1        1 0.17612952E-01 0.92343501E+02</pdfrwt>
<pdfrwt beam="1">  1       -1 0.28647967E-02 0.92343501E+02</pdfrwt>
<totfact> 0.10323404E+05</totfact>
</mgrwt>
</event>
<event>
 7    1  0.3345055E-009  0.9699506E+02  0.7818608E-02  0.1286745E+00
          1   -1    0    0  501    0  0.00000000000E+00  0.00000000000E+00  0.79765588412E+02  0.79765588571E+02  0.50400000000E-02 0. -1.
         -1   -1    0    0    0  501 -0.00000000000E+00 -0.00000000000E+00 -0.29486532325E+02  0.29486532756E+02  0.50400000000E-02 0.  1.
         23    2    1    2    0    0  0.00000000000E+00  0.00000000000E+00  0.50279056087E+02  0.10925212133E+03  0.96995064480E+02 0.  0.
    9000005    2    3    3    0    0  0.44275391812E+02 -0.41210618259E+01  0.70276302162E+01  0.47220038414E+02  0.14249595458E+02 0.  0.
         22    1    3    3    0    0 -0.44275391812E+02  0.41210618259E+01  0.43251425871E+02  0.62032082913E+02  0.00000000000E+00 0. -1.
         22    1    4    4    0    0  0.41899301520E+02 -0.53498537740E+00  0.83355909419E+01  0.42723760995E+02  0.00000000000E+00 0. -1.
         22    1    4    4    0    0  0.23760902917E+01 -0.35860764485E+01 -0.13079607257E+01  0.44962774190E+01  0.00000000000E+00 0. -1.
<mgrwt>
<rscale>  0 0.96995064E+02</rscale>
<asrwt>0</asrwt>
<pdfrwt beam="1">  1        1 0.12271629E-01 0.96995064E+02</pdfrwt>
<pdfrwt beam="2">  1       -1 0.45363896E-02 0.96995064E+02</pdfrwt>
<totfact> 0.84896491E+04</totfact>
</mgrwt>
</event>
<event>
 7    1  0.3345055E-009  0.9317566E+02  0.7818608E-02  0.1295339E+00
          1   -1    0    0  501    0  0.00000000000E+00  0.00000000000E+00  0.17721685851E+03  0.17721685859E+03  0.50400000000E-02 0. -1.
         -1   -1    0    0    0  501 -0.00000000000E+00 -0.00000000000E+00 -0.12247286306E+02  0.12247287343E+02  0.50400000000E-02 0.  1.
         23    2    1    2    0    0  0.00000000000E+00  0.00000000000E+00  0.16496957221E+03  0.18946414593E+03  0.93175655825E+02 0.  0.
    9000005    2    3    3    0    0 -0.29347175572E+02  0.34067034903E+02  0.99425515499E+02  0.10997928604E+03  0.13718259560E+02 0.  0.
         22    1    3    3    0    0  0.29347175572E+02 -0.34067034903E+02  0.65544056709E+02  0.79484859886E+02  0.00000000000E+00 0.  1.
         22    1    4    4    0    0 -0.28798966781E+02  0.27715975146E+02  0.78279708339E+02  0.87893506607E+02  0.00000000000E+00 0. -1.
         22    1    4    4    0    0 -0.54820879115E+00  0.63510597568E+01  0.21145807159E+02  0.22085779437E+02  0.00000000000E+00 0. -1.
<mgrwt>
<rscale>  0 0.93175656E+02</rscale>
<asrwt>0</asrwt>
<pdfrwt beam="1">  1        1 0.27264132E-01 0.93175656E+02</pdfrwt>
<pdfrwt beam="2">  1       -1 0.18841980E-02 0.93175656E+02</pdfrwt>
<totfact> 0.10911820E+05</totfact>
</mgrwt>
</event>
<event>
 7    1  0.5648809E-009  0.1077201E+03  0.7818608E-02  0.1264851E+00
         -1   -1    0    0    0  501 -0.00000000000E+00  0.00000000000E+00  0.11706781077E+02  0.11706782162E+02  0.50400000000E-02 0.  1.
          1   -1    0    0  501    0  0.00000000000E+00 -0.00000000000E+00 -0.24779718481E+03  0.24779718486E+03  0.50400000000E-02 0. -1.
         23    2    1    2    0    0 -0.88817841970E-15  0.00000000000E+00 -0.23609040373E+03  0.25950396702E+03  0.10772014745E+03 0.  0.
    9000005    2    3    3    0    0  0.51457795186E+01  0.29597135687E+02 -0.22490256644E+03  0.22744718629E+03  0.15766694964E+02 0.  0.
         22    1    3    3    0    0 -0.51457795186E+01 -0.29597135687E+02 -0.11187837288E+02  0.32056780732E+02  0.00000000000E+00 0.  1.
         22    1    4    4    0    0  0.10028334172E+02  0.13596710451E+02 -0.12817489221E+03  0.12928356823E+03  0.00000000000E+00 0. -1.
         22    1    4    4    0    0 -0.48825546529E+01  0.16000425237E+02 -0.96727674231E+02  0.98163618056E+02  0.00000000000E+00 0. -1.
<mgrwt>
<rscale>  0 0.10772015E+03</rscale>
<asrwt>0</asrwt>
<pdfrwt beam="2">  1        1 0.38122640E-01 0.10772015E+03</pdfrwt>
<pdfrwt beam="1">  1       -1 0.18010435E-02 0.10772015E+03</pdfrwt>
<totfact> 0.78746709E+04</totfact>
</mgrwt>
</event>
<event>
 7    1  0.3345055E-009  0.9853904E+02  0.7818608E-02  0.1283398E+00
          1   -1    0    0  501    0  0.00000000000E+00  0.00000000000E+00  0.54270964709E+03  0.54270964711E+03  0.50400000000E-02 0. -1.
         -1   -1    0    0    0  501 -0.00000000000E+00 -0.00000000000E+00 -0.44728982596E+01  0.44729010991E+01  0.50400000000E-02 0.  1.
         23    2    1    2    0    0  0.00000000000E+00  0.00000000000E+00  0.53823674883E+03  0.54718254821E+03  0.98539044428E+02 0.  0.
    9000005    2    3    3    0    0  0.32768669060E+02 -0.16893541453E+02  0.45026648401E+03  0.45179940029E+03  0.48594306342E+01 0.  0.
         22    1    3    3    0    0 -0.32768669060E+02  0.16893541453E+02  0.87970264821E+02  0.95383147921E+02  0.00000000000E+00 0.  1.
         22    1    4    4    0    0  0.30176454127E+01 -0.22607608848E+01  0.32120809014E+02  0.32341360444E+02  0.00000000000E+00 0.  1.
         22    1    4    4    0    0  0.29751023647E+02 -0.14632780568E+02  0.41814567500E+03  0.41945803985E+03  0.00000000000E+00 0.  1.
<mgrwt>
<rscale>  0 0.98539044E+02</rscale>
<asrwt>0</asrwt>
<pdfrwt beam="1">  1        1 0.83493826E-01 0.98539044E+02</pdfrwt>
<pdfrwt beam="2">  1       -1 0.68813814E-03 0.98539044E+02</pdfrwt>
<totfact> 0.11427816E+05</totfact>
</mgrwt>
</event>
<event>
 7    1  0.3345055E-009  0.1019793E+03  0.7818608E-02  0.1276188E+00
          1   -1    0    0  501    0  0.00000000000E+00  0.00000000000E+00  0.14001643773E+02  0.14001644680E+02  0.50400000000E-02 0. -1.
         -1   -1    0    0    0  501 -0.00000000000E+00 -0.00000000000E+00 -0.18568833839E+03  0.18568833846E+03  0.50400000000E-02 0.  1.
         23    2    1    2    0    0  0.00000000000E+00  0.00000000000E+00 -0.17168669462E+03  0.19968998314E+03  0.10197925406E+03 0.  0.
    9000005    2    3    3    0    0  0.38242340213E+02 -0.27693051800E+01 -0.23693111242E+02  0.46810140268E+02  0.12636458183E+02 0.  0.
         22    1    3    3    0    0 -0.38242340213E+02  0.27693051800E+01 -0.14799358338E+03  0.15287984287E+03  0.00000000000E+00 0.  1.
         22    1    4    4    0    0  0.36280421927E+02  0.70561363619E+00 -0.20347651467E+02  0.41602810314E+02  0.00000000000E+00 0.  1.
         22    1    4    4    0    0  0.19619182859E+01 -0.34749188162E+01 -0.33454597754E+01  0.52073299539E+01  0.00000000000E+00 0.  1.
<mgrwt>
<rscale>  0 0.10197925E+03</rscale>
<asrwt>0</asrwt>
<pdfrwt beam="1">  1        1 0.21540992E-02 0.10197925E+03</pdfrwt>
<pdfrwt beam="2">  1       -1 0.28567435E-01 0.10197925E+03</pdfrwt>
<totfact> 0.52901762E+04</totfact>
</mgrwt>
</event>
<event>
 7    1  0.3345055E-009  0.9035356E+02  0.7818608E-02  0.1301998E+00
          1   -1    0    0  501    0  0.00000000000E+00  0.00000000000E+00  0.39952232667E+03  0.39952232670E+03  0.50400000000E-02 0. -1.
         -1   -1    0    0    0  501 -0.00000000000E+00 -0.00000000000E+00 -0.51084522928E+01  0.51084547790E+01  0.50400000000E-02 0.  1.
         23    2    1    2    0    0  0.00000000000E+00  0.00000000000E+00  0.39441387438E+03  0.40463078148E+03  0.90353555661E+02 0.  0.
    9000005    2    3    3    0    0 -0.11793676540E+02  0.30680926013E+02  0.33596471761E+03  0.33757323937E+03  0.17292863417E+01 0.  0.
         22    1    3    3    0    0  0.11793676540E+02 -0.30680926013E+02  0.58449156764E+02  0.67057542109E+02  0.00000000000E+00 0.  1.
         22    1    4    4    0    0 -0.44405091248E+01  0.12975672186E+02  0.14715858347E+03  0.14779626138E+03  0.00000000000E+00 0.  1.
         22    1    4    4    0    0 -0.73531674149E+01  0.17705253828E+02  0.18880613415E+03  0.18977697799E+03  0.00000000000E+00 0.  1.
<mgrwt>
<rscale>  0 0.90353556E+02</rscale>
<asrwt>0</asrwt>
<pdfrwt beam="1">  1        1 0.61464976E-01 0.90353556E+02</pdfrwt>
<pdfrwt beam="2">  1       -1 0.78591590E-03 0.90353556E+02</pdfrwt>
<totfact> 0.13815023E+05</totfact>
</mgrwt>
</event>
<event>
 7    1  0.3345055E-009  0.8649554E+02  0.7818608E-02  0.1311567E+00
          1   -1    0    0  501    0  0.00000000000E+00  0.00000000000E+00  0.15705206510E+03  0.15705206518E+03  0.50400000000E-02 0. -1.
         -1   -1    0    0    0  501 -0.00000000000E+00 -0.00000000000E+00 -0.11909233529E+02  0.11909234596E+02  0.50400000000E-02 0.  1.
         23    2    1    2    0    0  0.00000000000E+00  0.00000000000E+00  0.14514283157E+03  0.16896129978E+03  0.86495544775E+02 0.  0.
    9000005    2    3    3    0    0 -0.86628128073E+01 -0.41022416526E+02  0.75826952715E+02  0.87951584033E+02  0.15095409652E+02 0.  0.
         22    1    3    3    0    0  0.86628128073E+01  0.41022416526E+02  0.69315878860E+02  0.81009715748E+02  0.00000000000E+00 0.  1.
         22    1    4    4    0    0 -0.40422915716E+01 -0.10656102823E+01  0.51790028703E+01  0.66556530223E+01  0.00000000000E+00 0.  1.
         22    1    4    4    0    0 -0.46205212357E+01 -0.39956806243E+02  0.70647949844E+02  0.81295931010E+02  0.00000000000E+00 0.  1.
<mgrwt>
<rscale>  0 0.86495545E+02</rscale>
<asrwt>0</asrwt>
<pdfrwt beam="1">  1        1 0.24161855E-01 0.86495545E+02</pdfrwt>
<pdfrwt beam="2">  1       -1 0.18321899E-02 0.86495545E+02</pdfrwt>
<totfact> 0.13027858E+05</totfact>
</mgrwt>
</event>
