<event>
 7    1  0.3960685E-009  0.8817339E+02  0.7818608E-02  0.1307336E+00
         -2   -1    0    0    0  501 -0.00000000000E+00  0.00000000000E+00  0.25833310816E+01  0.25833323402E+01  0.25500000000E-02 0.  1.
          2   -1    0    0  501    0  0.00000000000E+00 -0.00000000000E+00 -0.75237592752E+03  0.75237592752E+03  0.25500000000E-02 0. -1.
         23    2    1    2    0    0  0.00000000000E+00  0.17763568394E-14 -0.74979259644E+03  0.75495925986E+03  0.88173388169E+02 0.  0.
    9000005    2    3    3    0    0  0.99645931941E+01  0.13462249822E+02 -0.72332810407E+03  0.72364002226E+03  0.13069444902E+02 0.  0.
         22    1    3    3    0    0 -0.99645931941E+01 -0.13462249822E+02 -0.26464492361E+02  0.31319237598E+02  0.00000000000E+00 0.  1.
         22    1    4    4    0    0  0.11707038242E+02  0.13857196038E+02 -0.70286853496E+03  0.70310259142E+03  0.00000000000E+00 0.  1.
         22    1    4    4    0    0 -0.17424450479E+01 -0.39494621651E+00 -0.20459569112E+02  0.20537430840E+02  0.00000000000E+00 0.  1.
<mgrwt>
<rscale>  0 0.88173388E+02</rscale>
<asrwt>0</asrwt>
<pdfrwt beam="2">  1        2 0.11574997E+00 0.88173388E+02</pdfrwt>
<pdfrwt beam="1">  1       -2 0.39743625E-03 0.88173388E+02</pdfrwt>
<totfact> 0.26311249E+05</totfact>
</mgrwt>
</event>
<event>
 7    1  0.3960685E-009  0.8963461E+02  0.7818608E-02  0.1303739E+00
         -2   -1    0    0    0  501 -0.00000000000E+00  0.00000000000E+00  0.29874896269E+01  0.29874907152E+01  0.25500000000E-02 0.  1.
          2   -1    0    0  501    0  0.00000000000E+00 -0.00000000000E+00 -0.67233391875E+03  0.67233391875E+03  0.25500000000E-02 0. -1.
         23    2    1    2    0    0  0.17763568394E-14 -0.22204460493E-15 -0.66934642912E+03  0.67532140947E+03  0.89634613341E+02 0.  0.
    9000005    2    3    3    0    0 -0.10283729383E+02 -0.16238489554E+01 -0.66299220424E+03  0.66312435453E+03  0.81764726158E+01 0.  0.
         22    1    3    3    0    0  0.10283729383E+02  0.16238489554E+01 -0.63542248789E+01  0.12197054942E+02  0.00000000000E+00 0.  1.
         22    1    4    4    0    0 -0.51532523968E+01 -0.49026040155E+01 -0.38164181118E+03  0.38170808686E+03  0.00000000000E+00 0.  1.
         22    1    4    4    0    0 -0.51304769857E+01  0.32787550601E+01 -0.28135039306E+03  0.28141626766E+03  0.00000000000E+00 0.  1.
<mgrwt>
<rscale>  0 0.89634613E+02</rscale>
<asrwt>0</asrwt>
<pdfrwt beam="2">  1        2 0.10343587E+00 0.89634613E+02</pdfrwt>
<pdfrwt beam="1">  1       -2 0.45961441E-03 0.89634613E+02</pdfrwt>
<totfact> 0.24565711E+05</totfact>
</mgrwt>
</event>
<event>
 7    1  0.3960685E-009  0.8998070E+02  0.7818608E-02  0.1302898E+00
         -2   -1    0    0    0  501 -0.00000000000E+00  0.00000000000E+00  0.38110348670E+02  0.38110348755E+02  0.25500000000E-02 0. -1.
          2   -1    0    0  501    0  0.00000000000E+00 -0.00000000000E+00 -0.53112383617E+02  0.53112383679E+02  0.25500000000E-02 0.  1.
         23    2    1    2    0    0  0.35527136788E-14  0.00000000000E+00 -0.15002034948E+02  0.91222732434E+02  0.89980697153E+02 0.  0.
    9000005    2    3    3    0    0  0.26704829409E+02  0.24492222461E+02  0.18600587321E+02  0.41804586999E+02  0.94140730101E+01 0.  0.
         22    1    3    3    0    0 -0.26704829409E+02 -0.24492222461E+02 -0.33602622268E+02  0.49418145434E+02  0.00000000000E+00 0.  1.
         22    1    4    4    0    0  0.24544215661E+02  0.25164527252E+02  0.17819755558E+02  0.39410856910E+02  0.00000000000E+00 0. -1.
         22    1    4    4    0    0  0.21606137483E+01 -0.67230479029E+00  0.78083176239E+00  0.23937300895E+01  0.00000000000E+00 0. -1.
<mgrwt>
<rscale>  0 0.89980697E+02</rscale>
<asrwt>0</asrwt>
<pdfrwt beam="2">  1        2 0.81711359E-02 0.89980697E+02</pdfrwt>
<pdfrwt beam="1">  1       -2 0.58631306E-02 0.89980697E+02</pdfrwt>
<totfact> 0.10660843E+05</totfact>
</mgrwt>
</event>
<event>
 7    1  0.3960685E-009  0.9012311E+02  0.7818608E-02  0.1302554E+00
          2   -1    0    0  501    0  0.00000000000E+00  0.00000000000E+00  0.42660350414E+02  0.42660350490E+02  0.25500000000E-02 0. -1.
         -2   -1    0    0    0  501 -0.00000000000E+00 -0.00000000000E+00 -0.47597914445E+02  0.47597914514E+02  0.25500000000E-02 0.  1.
         23    2    1    2    0    0  0.00000000000E+00 -0.13877787808E-15 -0.49375640312E+01  0.90258265004E+02  0.90123109483E+02 0.  0.
    9000005    2    3    3    0    0 -0.16614838256E+02  0.18202094280E+00 -0.44170639085E+02  0.47651690862E+02  0.65994168616E+01 0.  0.
         22    1    3    3    0    0  0.16614838256E+02 -0.18202094280E+00  0.39233075054E+02  0.42606574142E+02  0.00000000000E+00 0. -1.
         22    1    4    4    0    0 -0.30077090261E+01 -0.20965422884E+01 -0.56541301478E+01  0.67387677569E+01  0.00000000000E+00 0.  1.
         22    1    4    4    0    0 -0.13607129230E+02  0.22785632312E+01 -0.38516508937E+02  0.40912923105E+02  0.00000000000E+00 0.  1.
<mgrwt>
<rscale>  0 0.90123109E+02</rscale>
<asrwt>0</asrwt>
<pdfrwt beam="1">  1        2 0.65631308E-02 0.90123109E+02</pdfrwt>
<pdfrwt beam="2">  1       -2 0.73227561E-02 0.90123109E+02</pdfrwt>
<totfact> 0.10029054E+05</totfact>
</mgrwt>
</event>
<event>
 7    1  0.3960685E-009  0.9290002E+02  0.7818608E-02  0.1295977E+00
         -2   -1    0    0    0  501 -0.00000000000E+00  0.00000000000E+00  0.49215159087E+01  0.49215165693E+01  0.25500000000E-02 0. -1.
          2   -1    0    0  501    0  0.00000000000E+00 -0.00000000000E+00 -0.43840214201E+03  0.43840214202E+03  0.25500000000E-02 0.  1.
         23    2    1    2    0    0  0.71054273576E-14 -0.35527136788E-14 -0.43348062610E+03  0.44332365858E+03  0.92900016456E+02 0.  0.
    9000005    2    3    3    0    0 -0.36258181678E+02  0.25779236108E+02 -0.17542085952E+03  0.18145715083E+03  0.13228563123E+02 0.  0.
         22    1    3    3    0    0  0.36258181678E+02 -0.25779236108E+02 -0.25805976658E+03  0.26186650775E+03  0.00000000000E+00 0. -1.
         22    1    4    4    0    0 -0.78751413071E+01  0.84799918717E+01 -0.69072810386E+02  0.70035571301E+02  0.00000000000E+00 0.  1.
         22    1    4    4    0    0 -0.28383040371E+02  0.17299244236E+02 -0.10634804913E+03  0.11142157953E+03  0.00000000000E+00 0.  1.
<mgrwt>
<rscale>  0 0.92900016E+02</rscale>
<asrwt>0</asrwt>
<pdfrwt beam="2">  1        2 0.67446453E-01 0.92900016E+02</pdfrwt>
<pdfrwt beam="1">  1       -2 0.75715669E-03 0.92900016E+02</pdfrwt>
<totfact> 0.19617726E+05</totfact>
</mgrwt>
</event>
<event>
 7    1  0.3960685E-009  0.8612718E+02  0.7818608E-02  0.1312511E+00
          2   -1    0    0  501    0  0.00000000000E+00  0.00000000000E+00  0.22601131381E+03  0.22601131382E+03  0.25500000000E-02 0. -1.
         -2   -1    0    0    0  501 -0.00000000000E+00 -0.00000000000E+00 -0.82052213158E+01  0.82052217120E+01  0.25500000000E-02 0.  1.
         23    2    1    2    0    0  0.00000000000E+00  0.44408920985E-15  0.21780609249E+03  0.23421653553E+03  0.86127182648E+02 0.  0.
    9000005    2    3    3    0    0  0.30397538938E+02  0.24053369834E+01  0.18958722195E+03  0.19267016777E+03  0.15769679884E+02 0.  0.
         22    1    3    3    0    0 -0.30397538938E+02 -0.24053369834E+01  0.28218870545E+02  0.41546367763E+02  0.00000000000E+00 0.  1.
         22    1    4    4    0    0  0.12783143134E+02  0.65112704881E+01  0.53646980364E+02  0.55532007832E+02  0.00000000000E+00 0. -1.
         22    1    4    4    0    0  0.17614395804E+02 -0.41059335048E+01  0.13594024158E+03  0.13713815994E+03  0.00000000000E+00 0. -1.
<mgrwt>
<rscale>  0 0.86127183E+02</rscale>
<asrwt>0</asrwt>
<pdfrwt beam="1">  1        2 0.34770966E-01 0.86127183E+02</pdfrwt>
<pdfrwt beam="2">  1       -2 0.12623420E-02 0.86127183E+02</pdfrwt>
<totfact> 0.18834441E+05</totfact>
</mgrwt>
</event>
<event>
 7    1  0.3960685E-009  0.9260943E+02  0.7818608E-02  0.1296653E+00
         -2   -1    0    0    0  501 -0.00000000000E+00  0.00000000000E+00  0.13880686089E+03  0.13880686092E+03  0.25500000000E-02 0.  1.
          2   -1    0    0  501    0  0.00000000000E+00 -0.00000000000E+00 -0.15446834232E+02  0.15446834443E+02  0.25500000000E-02 0. -1.
         23    2    1    2    0    0  0.00000000000E+00 -0.35527136788E-14  0.12336002666E+03  0.15425369536E+03  0.92609429079E+02 0.  0.
    9000005    2    3    3    0    0 -0.24401629582E+02 -0.28105908361E+02  0.19294605201E+02  0.43732233395E+02  0.12443666534E+02 0.  0.
         22    1    3    3    0    0  0.24401629582E+02  0.28105908361E+02  0.10406542146E+03  0.11052146196E+03  0.00000000000E+00 0.  1.
         22    1    4    4    0    0 -0.50516340229E+01  0.66040811873E-01  0.29151551749E+01  0.58327949890E+01  0.00000000000E+00 0.  1.
         22    1    4    4    0    0 -0.19349995559E+02 -0.28171949173E+02  0.16379450026E+02  0.37899438406E+02  0.00000000000E+00 0.  1.
<mgrwt>
<rscale>  0 0.92609429E+02</rscale>
<asrwt>0</asrwt>
<pdfrwt beam="2">  1        2 0.23764359E-02 0.92609429E+02</pdfrwt>
<pdfrwt beam="1">  1       -2 0.21354903E-01 0.92609429E+02</pdfrwt>
<totfact> 0.69040289E+04</totfact>
</mgrwt>
</event>
<event>
 7    1  0.3960685E-009  0.9119138E+02  0.7818608E-02  0.1299992E+00
         -2   -1    0    0    0  501 -0.00000000000E+00  0.00000000000E+00  0.10390149351E+02  0.10390149664E+02  0.25500000000E-02 0.  1.
          2   -1    0    0  501    0  0.00000000000E+00 -0.00000000000E+00 -0.20009017187E+03  0.20009017189E+03  0.25500000000E-02 0. -1.
         23    2    1    2    0    0  0.00000000000E+00  0.00000000000E+00 -0.18970002252E+03  0.21048032155E+03  0.91191376874E+02 0.  0.
    9000005    2    3    3    0    0  0.10979675806E+02  0.11526125008E+02 -0.19311560559E+03  0.19419931894E+03  0.12897035190E+02 0.  0.
         22    1    3    3    0    0 -0.10979675806E+02 -0.11526125008E+02  0.34155830633E+01  0.16281002616E+02  0.00000000000E+00 0.  1.
         22    1    4    4    0    0 -0.86357434923E+00  0.57672616580E+01 -0.98391286287E+02  0.98563950230E+02  0.00000000000E+00 0.  1.
         22    1    4    4    0    0  0.11843250155E+02  0.57588633501E+01 -0.94724319299E+02  0.95635368708E+02  0.00000000000E+00 0.  1.
<mgrwt>
<rscale>  0 0.91191377E+02</rscale>
<asrwt>0</asrwt>
<pdfrwt beam="2">  1        2 0.30783101E-01 0.91191377E+02</pdfrwt>
<pdfrwt beam="1">  1       -2 0.15984847E-02 0.91191377E+02</pdfrwt>
<totfact> 0.15463840E+05</totfact>
</mgrwt>
</event>
<event>
 7    1  0.3960685E-009  0.9073125E+02  0.7818608E-02  0.1301090E+00
         -2   -1    0    0    0  501 -0.00000000000E+00  0.00000000000E+00  0.95117851706E+01  0.95117855124E+01  0.25500000000E-02 0.  1.
          2   -1    0    0  501    0  0.00000000000E+00 -0.00000000000E+00 -0.21636735366E+03  0.21636735368E+03  0.25500000000E-02 0. -1.
         23    2    1    2    0    0  0.00000000000E+00  0.00000000000E+00 -0.20685556849E+03  0.22587913919E+03  0.90731247677E+02 0.  0.
    9000005    2    3    3    0    0 -0.42549777601E+02 -0.14353528712E+02 -0.94646129778E+02  0.10501779096E+03  0.73715110404E+01 0.  0.
         22    1    3    3    0    0  0.42549777601E+02  0.14353528712E+02 -0.11220943871E+03  0.12086134823E+03  0.00000000000E+00 0. -1.
         22    1    4    4    0    0 -0.72590537639E+01 -0.49414643037E+01 -0.14692902075E+02  0.17117047128E+02  0.00000000000E+00 0.  1.
         22    1    4    4    0    0 -0.35290723837E+02 -0.94120644083E+01 -0.79953227703E+02  0.87900743828E+02  0.00000000000E+00 0.  1.
<mgrwt>
<rscale>  0 0.90731248E+02</rscale>
<asrwt>0</asrwt>
<pdfrwt beam="2">  1        2 0.33287282E-01 0.90731248E+02</pdfrwt>
<pdfrwt beam="1">  1       -2 0.14633518E-02 0.90731248E+02</pdfrwt>
<totfact> 0.16127582E+05</totfact>
</mgrwt>
</event>
<event>
 7    1  0.3960685E-009  0.8941900E+02  0.7818608E-02  0.1304265E+00
          2   -1    0    0  501    0  0.00000000000E+00  0.00000000000E+00  0.10841880640E+03  0.10841880643E+03  0.25500000000E-02 0. -1.
         -2   -1    0    0    0  501 -0.00000000000E+00 -0.00000000000E+00 -0.18437203330E+02  0.18437203507E+02  0.25500000000E-02 0.  1.
         23    2    1    2    0    0  0.00000000000E+00  0.35527136788E-14  0.89981603072E+02  0.12685600994E+03  0.89419004503E+02 0.  0.
    9000005    2    3    3    0    0  0.21910404996E+02  0.31982120509E+02  0.74032834066E+02  0.84936025300E+02  0.15177153708E+02 0.  0.
         22    1    3    3    0    0 -0.21910404996E+02 -0.31982120509E+02  0.15948769006E+02  0.41919984639E+02  0.00000000000E+00 0.  1.
         22    1    4    4    0    0 -0.54351997326E+00 -0.13417310271E+01  0.27338343839E+01  0.30934619036E+01  0.00000000000E+00 0.  1.
         22    1    4    4    0    0  0.22453924969E+02  0.33323851536E+02  0.71298999682E+02  0.81842563397E+02  0.00000000000E+00 0.  1.
<mgrwt>
<rscale>  0 0.89419005E+02</rscale>
<asrwt>0</asrwt>
<pdfrwt beam="1">  1        2 0.16679816E-01 0.89419005E+02</pdfrwt>
<pdfrwt beam="2">  1       -2 0.28364929E-02 0.89419005E+02</pdfrwt>
<totfact> 0.13265477E+05</totfact>
</mgrwt>
</event>
<event>
 7    1  0.3960685E-009  0.9417811E+02  0.7818608E-02  0.1293038E+00
          2   -1    0    0  501    0  0.00000000000E+00  0.00000000000E+00  0.17082739528E+03  0.17082739530E+03  0.25500000000E-02 0. -1.
         -2   -1    0    0    0  501 -0.00000000000E+00 -0.00000000000E+00 -0.12980230851E+02  0.12980231101E+02  0.25500000000E-02 0.  1.
         23    2    1    2    0    0  0.00000000000E+00  0.00000000000E+00  0.15784716443E+03  0.18380762640E+03  0.94178108944E+02 0.  0.
    9000005    2    3    3    0    0 -0.37633018297E+02  0.98188375572E+01  0.32012006845E+02  0.52099082557E+02  0.13300082100E+02 0.  0.
         22    1    3    3    0    0  0.37633018297E+02 -0.98188375572E+01  0.12583515758E+03  0.13170854384E+03  0.00000000000E+00 0. -1.
         22    1    4    4    0    0 -0.14630792631E+02  0.95487517727E+01  0.18383621573E+02  0.25361314942E+02  0.00000000000E+00 0.  1.
         22    1    4    4    0    0 -0.23002225666E+02  0.27008578449E+00  0.13628385273E+02  0.26737767615E+02  0.00000000000E+00 0.  1.
<mgrwt>
<rscale>  0 0.94178109E+02</rscale>
<asrwt>0</asrwt>
<pdfrwt beam="1">  1        2 0.26281137E-01 0.94178109E+02</pdfrwt>
<pdfrwt beam="2">  1       -2 0.19969587E-02 0.94178109E+02</pdfrwt>
<totfact> 0.13393485E+05</totfact>
</mgrwt>
</event>
<event>
 7    1  0.3960685E-009  0.9629347E+02  0.7818608E-02  0.1288289E+00
          2   -1    0    0  501    0  0.00000000000E+00  0.00000000000E+00  0.29634961334E+02  0.29634961443E+02  0.25500000000E-02 0. -1.
         -2   -1    0    0    0  501 -0.00000000000E+00 -0.00000000000E+00 -0.78222067836E+02  0.78222067877E+02  0.25500000000E-02 0.  1.
         23    2    1    2    0    0  0.00000000000E+00 -0.35527136788E-14 -0.48587106502E+02  0.10785702932E+03  0.96293467357E+02 0.  0.
    9000005    2    3    3    0    0  0.27065114005E+02  0.27456346931E+02  0.71681512739E+01  0.40070451353E+02  0.82393747347E+01 0.  0.
         22    1    3    3    0    0 -0.27065114005E+02 -0.27456346931E+02 -0.55755257776E+02  0.67786577968E+02  0.00000000000E+00 0.  1.
         22    1    4    4    0    0  0.92888442412E+01  0.43711417817E+01  0.12835974288E+01  0.10345875032E+02  0.00000000000E+00 0. -1.
         22    1    4    4    0    0  0.17776269764E+02  0.23085205149E+02  0.58845538451E+01  0.29724576321E+02  0.00000000000E+00 0. -1.
<mgrwt>
<rscale>  0 0.96293467E+02</rscale>
<asrwt>0</asrwt>
<pdfrwt beam="1">  1        2 0.45592249E-02 0.96293467E+02</pdfrwt>
<pdfrwt beam="2">  1       -2 0.12034164E-01 0.96293467E+02</pdfrwt>
<totfact> 0.74878266E+04</totfact>
</mgrwt>
</event>
<event>
 7    1  0.3960685E-009  0.9292523E+02  0.7818608E-02  0.1295919E+00
         -2   -1    0    0    0  501 -0.00000000000E+00  0.00000000000E+00  0.17087243442E+04  0.17087243442E+04  0.25500000000E-02 0. -1.
          2   -1    0    0  501    0  0.00000000000E+00 -0.00000000000E+00 -0.12633824683E+01  0.12633850417E+01  0.25500000000E-02 0.  1.
         23    2    1    2    0    0  0.00000000000E+00  0.00000000000E+00  0.17074609618E+04  0.17099877293E+04  0.92925229762E+02 0.  0.
    9000005    2    3    3    0    0  0.46293201919E+01 -0.16996104469E+02  0.16443376134E+04  0.16444525839E+04  0.82350247107E+01 0.  0.
         22    1    3    3    0    0 -0.46293201919E+01  0.16996104469E+02  0.63123348334E+02  0.65535145361E+02  0.00000000000E+00 0.  1.
         22    1    4    4    0    0  0.14796534400E+01  0.57096390052E+00  0.15085713566E+03  0.15086547237E+03  0.00000000000E+00 0.  1.
         22    1    4    4    0    0  0.31496667518E+01 -0.17567068370E+02  0.14934804778E+04  0.14935871115E+04  0.00000000000E+00 0.  1.
<mgrwt>
<rscale>  0 0.92925230E+02</rscale>
<asrwt>0</asrwt>
<pdfrwt beam="2">  1        2 0.19436740E-03 0.92925230E+02</pdfrwt>
<pdfrwt beam="1">  1       -2 0.26287977E+00 0.92925230E+02</pdfrwt>
<totfact> 0.79156525E+03</totfact>
</mgrwt>
</event>
<event>
 7    1  0.4129514E-009  0.9327103E+02  0.7818608E-02  0.1295118E+00
          2   -1    0    0  501    0  0.00000000000E+00  0.00000000000E+00  0.11909603832E+04  0.11909603832E+04  0.25500000000E-02 0. -1.
         -2   -1    0    0    0  501 -0.00000000000E+00 -0.00000000000E+00 -0.18261480811E+01  0.18261498615E+01  0.25500000000E-02 0.  1.
         23    2    1    2    0    0  0.00000000000E+00  0.00000000000E+00  0.11891342351E+04  0.11927865330E+04  0.93271026195E+02 0.  0.
    9000005    2    3    3    0    0  0.11852475537E+02 -0.24382073842E+02  0.10764828343E+04  0.10769189154E+04  0.14286050810E+02 0.  0.
         22    1    3    3    0    0 -0.11852475537E+02  0.24382073842E+02  0.11265140083E+03  0.11586761761E+03  0.00000000000E+00 0.  1.
         22    1    4    4    0    0 -0.21342913871E+01 -0.55551764259E+01  0.11883182092E+03  0.11898074150E+03  0.00000000000E+00 0. -1.
         22    1    4    4    0    0  0.13986766924E+02 -0.18826897416E+02  0.95765101334E+03  0.95793817392E+03  0.00000000000E+00 0. -1.
<mgrwt>
<rscale>  0 0.93271026E+02</rscale>
<asrwt>0</asrwt>
<pdfrwt beam="1">  1        2 0.18322504E+00 0.93271026E+02</pdfrwt>
<pdfrwt beam="2">  1       -2 0.28094544E-03 0.93271026E+02</pdfrwt>
<totfact> 0.23442656E+05</totfact>
</mgrwt>
</event>
<event>
 7    1  0.3960685E-009  0.9124003E+02  0.7818608E-02  0.1299876E+00
         -2   -1    0    0    0  501 -0.00000000000E+00  0.00000000000E+00  0.63163784830E+01  0.63163789977E+01  0.25500000000E-02 0.  1.
          2   -1    0    0  501    0  0.00000000000E+00 -0.00000000000E+00 -0.32949030499E+03  0.32949030500E+03  0.25500000000E-02 0. -1.
         23    2    1    2    0    0  0.00000000000E+00 -0.13877787808E-16 -0.32317392651E+03  0.33580668400E+03  0.91240025447E+02 0.  0.
    9000005    2    3    3    0    0 -0.43544820663E+02  0.19893117780E-01 -0.12557873613E+03  0.13347030303E+03  0.12171730405E+02 0.  0.
         22    1    3    3    0    0  0.43544820663E+02 -0.19893117780E-01 -0.19759519038E+03  0.20233638097E+03  0.00000000000E+00 0.  1.
         22    1    4    4    0    0 -0.26169879545E+02 -0.45640486459E+00 -0.92119435821E+02  0.95765658546E+02  0.00000000000E+00 0.  1.
         22    1    4    4    0    0 -0.17374941118E+02  0.47629798237E+00 -0.33459300310E+02  0.37704644486E+02  0.00000000000E+00 0.  1.
<mgrwt>
<rscale>  0 0.91240025E+02</rscale>
<asrwt>0</asrwt>
<pdfrwt beam="2">  1        2 0.50690803E-01 0.91240025E+02</pdfrwt>
<pdfrwt beam="1">  1       -2 0.97175083E-03 0.91240025E+02</pdfrwt>
<totfact> 0.18567713E+05</totfact>
</mgrwt>
</event>
<event>
 7    1  0.3960685E-009  0.9296854E+02  0.7818608E-02  0.1295818E+00
         -2   -1    0    0    0  501 -0.00000000000E+00  0.00000000000E+00  0.87043453852E+01  0.87043457587E+01  0.25500000000E-02 0.  1.
          2   -1    0    0  501    0  0.00000000000E+00 -0.00000000000E+00 -0.24824237402E+03  0.24824237403E+03  0.25500000000E-02 0. -1.
         23    2    1    2    0    0  0.00000000000E+00 -0.88817841970E-15 -0.23953802863E+03  0.25694671979E+03  0.92968541182E+02 0.  0.
    9000005    2    3    3    0    0  0.45438885282E+02 -0.73391802117E+01 -0.10511177831E+03  0.11485881518E+03  0.50503091132E+01 0.  0.
         22    1    3    3    0    0 -0.45438885282E+02  0.73391802117E+01 -0.13442625032E+03  0.14208790461E+03  0.00000000000E+00 0.  1.
         22    1    4    4    0    0  0.19619269628E+02 -0.10507710390E+01 -0.41324369778E+02  0.45757222360E+02  0.00000000000E+00 0. -1.
         22    1    4    4    0    0  0.25819615654E+02 -0.62884091727E+01 -0.63787408534E+02  0.69101592818E+02  0.00000000000E+00 0. -1.
<mgrwt>
<rscale>  0 0.92968541E+02</rscale>
<asrwt>0</asrwt>
<pdfrwt beam="2">  1        2 0.38191129E-01 0.92968541E+02</pdfrwt>
<pdfrwt beam="1">  1       -2 0.13391303E-02 0.92968541E+02</pdfrwt>
<totfact> 0.15890473E+05</totfact>
</mgrwt>
</event>
<event>
 7    1  0.3960685E-009  0.9471837E+02  0.7818608E-02  0.1291812E+00
          2   -1    0    0  501    0  0.00000000000E+00  0.00000000000E+00  0.99463284517E+03  0.99463284518E+03  0.25500000000E-02 0. -1.
         -2   -1    0    0    0  501 -0.00000000000E+00 -0.00000000000E+00 -0.22549945099E+01  0.22549959517E+01  0.25500000000E-02 0.  1.
         23    2    1    2    0    0  0.00000000000E+00  0.00000000000E+00  0.99237785066E+03  0.99688784113E+03  0.94718368345E+02 0.  0.
    9000005    2    3    3    0    0 -0.31283262718E+02  0.15841822807E+02  0.83062712603E+03  0.83137982684E+03  0.46247263608E+01 0.  0.
         22    1    3    3    0    0  0.31283262718E+02 -0.15841822807E+02  0.16175072463E+03  0.16550801429E+03  0.00000000000E+00 0.  1.
         22    1    4    4    0    0 -0.16056685787E+02  0.62139522708E+01  0.36942140829E+03  0.36982239962E+03  0.00000000000E+00 0. -1.
         22    1    4    4    0    0 -0.15226576930E+02  0.96278705358E+01  0.46120571774E+03  0.46155742721E+03  0.00000000000E+00 0. -1.
<mgrwt>
<rscale>  0 0.94718368E+02</rscale>
<asrwt>0</asrwt>
<pdfrwt beam="1">  1        2 0.15302065E+00 0.94718368E+02</pdfrwt>
<pdfrwt beam="2">  1       -2 0.34692187E-03 0.94718368E+02</pdfrwt>
<totfact> 0.22604674E+05</totfact>
</mgrwt>
</event>
<event>
 7    1  0.3960685E-009  0.8998523E+02  0.7818608E-02  0.1302887E+00
          2   -1    0    0  501    0  0.00000000000E+00  0.00000000000E+00  0.55425280792E+03  0.55425280793E+03  0.25500000000E-02 0. -1.
         -2   -1    0    0    0  501 -0.00000000000E+00 -0.00000000000E+00 -0.36523679198E+01  0.36523688100E+01  0.25500000000E-02 0.  1.
         23    2    1    2    0    0  0.00000000000E+00  0.00000000000E+00  0.55060044000E+03  0.55790517674E+03  0.89985230456E+02 0.  0.
    9000005    2    3    3    0    0 -0.30927582816E+02  0.30909591220E+02  0.33287287366E+03  0.33583038899E+03  0.81106067550E+01 0.  0.
         22    1    3    3    0    0  0.30927582816E+02 -0.30909591220E+02  0.21772756635E+03  0.22207478775E+03  0.00000000000E+00 0.  1.
         22    1    4    4    0    0 -0.51221541643E+00  0.37851944060E+00  0.11065273292E+01  0.12767318943E+01  0.00000000000E+00 0.  1.
         22    1    4    4    0    0 -0.30415367399E+02  0.30531071779E+02  0.33176634633E+03  0.33455365709E+03  0.00000000000E+00 0.  1.
<mgrwt>
<rscale>  0 0.89985230E+02</rscale>
<asrwt>0</asrwt>
<pdfrwt beam="1">  1        2 0.85269687E-01 0.89985230E+02</pdfrwt>
<pdfrwt beam="2">  1       -2 0.56190267E-03 0.89985230E+02</pdfrwt>
<totfact> 0.23046710E+05</totfact>
</mgrwt>
</event>
<event>
 7    1  0.3960685E-009  0.1060463E+03  0.7818608E-02  0.1268072E+00
          2   -1    0    0  501    0  0.00000000000E+00  0.00000000000E+00  0.11748043740E+04  0.11748043740E+04  0.25500000000E-02 0. -1.
         -2   -1    0    0    0  501 -0.00000000000E+00 -0.00000000000E+00 -0.23931238013E+01  0.23931251599E+01  0.25500000000E-02 0.  1.
         23    2    1    2    0    0  0.00000000000E+00  0.00000000000E+00  0.11724112502E+04  0.11771974992E+04  0.10604627501E+03 0.  0.
    9000005    2    3    3    0    0 -0.98619215971E+01 -0.28813234031E+02  0.10673684525E+04  0.10678290882E+04  0.74892198415E+01 0.  0.
         22    1    3    3    0    0  0.98619215971E+01  0.28813234031E+02  0.10504279775E+03  0.10936841095E+03  0.00000000000E+00 0.  1.
         22    1    4    4    0    0 -0.13571730134E+01 -0.15498330527E+02  0.52037953607E+03  0.52061204531E+03  0.00000000000E+00 0.  1.
         22    1    4    4    0    0 -0.85047485838E+01 -0.13314903505E+02  0.54698891640E+03  0.54721704292E+03  0.00000000000E+00 0.  1.
<mgrwt>
<rscale>  0 0.10604628E+03</rscale>
<asrwt>0</asrwt>
<pdfrwt beam="1">  1        2 0.18073915E+00 0.10604628E+03</pdfrwt>
<pdfrwt beam="2">  1       -2 0.36817296E-03 0.10604628E+03</pdfrwt>
<totfact> 0.16693809E+05</totfact>
</mgrwt>
</event>
<event>
 7    1  0.3960685E-009  0.9239383E+02  0.7818608E-02  0.1297156E+00
          2   -1    0    0  501    0  0.00000000000E+00  0.00000000000E+00  0.27621435758E+01  0.27621447529E+01  0.25500000000E-02 0. -1.
         -2   -1    0    0    0  501 -0.00000000000E+00 -0.00000000000E+00 -0.77264429181E+03  0.77264429181E+03  0.25500000000E-02 0.  1.
         23    2    1    2    0    0 -0.35527136788E-14  0.00000000000E+00 -0.76988214823E+03  0.77540643657E+03  0.92393829340E+02 0.  0.
    9000005    2    3    3    0    0  0.16029757549E+02  0.26497600468E+02 -0.67249150020E+03  0.67321047637E+03  0.29071781623E+01 0.  0.
         22    1    3    3    0    0 -0.16029757549E+02 -0.26497600468E+02 -0.97390648029E+02  0.10219596020E+03  0.00000000000E+00 0. -1.
         22    1    4    4    0    0  0.87883431176E+01  0.12630635967E+02 -0.31027958274E+03  0.31066088812E+03  0.00000000000E+00 0. -1.
         22    1    4    4    0    0  0.72414144316E+01  0.13866964501E+02 -0.36221191746E+03  0.36254958825E+03  0.00000000000E+00 0. -1.
<mgrwt>
<rscale>  0 0.92393829E+02</rscale>
<asrwt>0</asrwt>
<pdfrwt beam="1">  1        2 0.42494587E-03 0.92393829E+02</pdfrwt>
<pdfrwt beam="2">  1       -2 0.11886818E+00 0.92393829E+02</pdfrwt>
<totfact> 0.23865511E+04</totfact>
</mgrwt>
</event>
<event>
 7    1  0.3960685E-009  0.9104072E+02  0.7818608E-02  0.1300351E+00
          2   -1    0    0  501    0  0.00000000000E+00  0.00000000000E+00  0.66314784678E+03  0.66314784679E+03  0.25500000000E-02 0. -1.
         -2   -1    0    0    0  501 -0.00000000000E+00 -0.00000000000E+00 -0.31246469949E+01  0.31246480354E+01  0.25500000000E-02 0.  1.
         23    2    1    2    0    0  0.00000000000E+00  0.00000000000E+00  0.66002319979E+03  0.66627249482E+03  0.91040722204E+02 0.  0.
    9000005    2    3    3    0    0 -0.33741656385E+01 -0.27325879929E+02  0.59261846288E+03  0.59346118206E+03  0.15538448012E+02 0.  0.
         22    1    3    3    0    0  0.33741656385E+01  0.27325879929E+02  0.67404736914E+02  0.72811312762E+02  0.00000000000E+00 0.  1.
         22    1    4    4    0    0  0.21289751849E+01  0.45861796253E+00  0.10376482449E+03  0.10378767589E+03  0.00000000000E+00 0.  1.
         22    1    4    4    0    0 -0.55031408234E+01 -0.27784497892E+02  0.48885363839E+03  0.48967350617E+03  0.00000000000E+00 0.  1.
<mgrwt>
<rscale>  0 0.91040722E+02</rscale>
<asrwt>0</asrwt>
<pdfrwt beam="1">  1        2 0.10202274E+00 0.91040722E+02</pdfrwt>
<pdfrwt beam="2">  1       -2 0.48071501E-03 0.91040722E+02</pdfrwt>
<totfact> 0.23497489E+05</totfact>
</mgrwt>
</event>
<event>
 7    1  0.3960685E-009  0.9234536E+02  0.7818608E-02  0.1297269E+00
          2   -1    0    0  501    0  0.00000000000E+00  0.00000000000E+00  0.21630725308E+03  0.21630725309E+03  0.25500000000E-02 0. -1.
         -2   -1    0    0    0  501 -0.00000000000E+00 -0.00000000000E+00 -0.98559638988E+01  0.98559642287E+01  0.25500000000E-02 0.  1.
         23    2    1    2    0    0  0.00000000000E+00  0.00000000000E+00  0.20645128918E+03  0.22616321732E+03  0.92345362989E+02 0.  0.
    9000005    2    3    3    0    0  0.32523438476E+01  0.41958207451E+02  0.57898322598E+02  0.71764212166E+02  0.51785591764E+01 0.  0.
         22    1    3    3    0    0 -0.32523438476E+01 -0.41958207451E+02  0.14855296658E+03  0.15439900515E+03  0.00000000000E+00 0. -1.
         22    1    4    4    0    0  0.20865338633E+01  0.26846002780E+02  0.32714641227E+02  0.42371089665E+02  0.00000000000E+00 0. -1.
         22    1    4    4    0    0  0.11658099843E+01  0.15112204671E+02  0.25183681372E+02  0.29393122501E+02  0.00000000000E+00 0. -1.
<mgrwt>
<rscale>  0 0.92345363E+02</rscale>
<asrwt>0</asrwt>
<pdfrwt beam="1">  1        2 0.33278038E-01 0.92345363E+02</pdfrwt>
<pdfrwt beam="2">  1       -2 0.15163022E-02 0.92345363E+02</pdfrwt>
<totfact> 0.15378962E+05</totfact>
</mgrwt>
</event>
<event>
 7    1  0.3960685E-009  0.9419156E+02  0.7818608E-02  0.1293007E+00
         -2   -1    0    0    0  501 -0.00000000000E+00  0.00000000000E+00  0.18976597617E+02  0.18976597788E+02  0.25500000000E-02 0. -1.
          2   -1    0    0  501    0  0.00000000000E+00 -0.00000000000E+00 -0.11688146345E+03  0.11688146348E+03  0.25500000000E-02 0.  1.
         23    2    1    2    0    0  0.00000000000E+00  0.00000000000E+00 -0.97904865833E+02  0.13585806127E+03  0.94191560434E+02 0.  0.
    9000005    2    3    3    0    0 -0.88805331984E+01 -0.35136511305E+02 -0.92828463426E+01  0.40112039755E+02  0.14469492060E+02 0.  0.
         22    1    3    3    0    0  0.88805331984E+01  0.35136511305E+02 -0.88622019491E+02  0.95746021511E+02  0.00000000000E+00 0.  1.
         22    1    4    4    0    0 -0.47516642671E+01 -0.27332885243E+02 -0.12869764134E+02  0.30582605479E+02  0.00000000000E+00 0.  1.
         22    1    4    4    0    0 -0.41288689313E+01 -0.78036260619E+01  0.35869177918E+01  0.95294342755E+01  0.00000000000E+00 0.  1.
<mgrwt>
<rscale>  0 0.94191560E+02</rscale>
<asrwt>0</asrwt>
<pdfrwt beam="2">  1        2 0.17981763E-01 0.94191560E+02</pdfrwt>
<pdfrwt beam="1">  1       -2 0.29194766E-02 0.94191560E+02</pdfrwt>
<totfact> 0.11777704E+05</totfact>
</mgrwt>
</event>
<event>
 7    1  0.3960685E-009  0.9337845E+02  0.7818608E-02  0.1294871E+00
          2   -1    0    0  501    0  0.00000000000E+00  0.00000000000E+00  0.36259374910E+03  0.36259374911E+03  0.25500000000E-02 0. -1.
         -2   -1    0    0    0  501 -0.00000000000E+00 -0.00000000000E+00 -0.60119177211E+01  0.60119182619E+01  0.25500000000E-02 0.  1.
         23    2    1    2    0    0  0.00000000000E+00  0.00000000000E+00  0.35658183138E+03  0.36860566737E+03  0.93378453341E+02 0.  0.
    9000005    2    3    3    0    0  0.19936757953E+02  0.31674122124E+02  0.28489855697E+03  0.28774024732E+03  0.15051173855E+02 0.  0.
         22    1    3    3    0    0 -0.19936757953E+02 -0.31674122124E+02  0.71683274410E+02  0.80865420051E+02  0.00000000000E+00 0.  1.
         22    1    4    4    0    0 -0.20394710890E+01  0.37527705333E+01  0.18753467792E+02  0.19233701756E+02  0.00000000000E+00 0. -1.
         22    1    4    4    0    0  0.21976229042E+02  0.27921351590E+02  0.26614508918E+03  0.26850654556E+03  0.00000000000E+00 0. -1.
<mgrwt>
<rscale>  0 0.93378453E+02</rscale>
<asrwt>0</asrwt>
<pdfrwt beam="1">  1        2 0.55783664E-01 0.93378453E+02</pdfrwt>
<pdfrwt beam="2">  1       -2 0.92491028E-03 0.93378453E+02</pdfrwt>
<totfact> 0.18080148E+05</totfact>
</mgrwt>
</event>
<event>
 7    1  0.3960685E-009  0.9054052E+02  0.7818608E-02  0.1301548E+00
          2   -1    0    0  501    0  0.00000000000E+00  0.00000000000E+00  0.36622116444E+02  0.36622116533E+02  0.25500000000E-02 0. -1.
         -2   -1    0    0    0  501 -0.00000000000E+00 -0.00000000000E+00 -0.55960620001E+02  0.55960620059E+02  0.25500000000E-02 0.  1.
         23    2    1    2    0    0  0.00000000000E+00  0.00000000000E+00 -0.19338503557E+02  0.92582736592E+02  0.90540517974E+02 0.  0.
    9000005    2    3    3    0    0 -0.29073233424E+02  0.32559824590E+02 -0.19606357948E+02  0.48931083415E+02  0.10219910625E+02 0.  0.
         22    1    3    3    0    0  0.29073233424E+02 -0.32559824590E+02  0.26785439143E+00  0.43651653176E+02  0.00000000000E+00 0.  1.
         22    1    4    4    0    0 -0.35339250449E+01  0.23176358166E+01  0.94514773963E+00  0.43305157027E+01  0.00000000000E+00 0.  1.
         22    1    4    4    0    0 -0.25539308379E+02  0.30242188774E+02 -0.20551505688E+02  0.44600567713E+02  0.00000000000E+00 0.  1.
<mgrwt>
<rscale>  0 0.90540518E+02</rscale>
<asrwt>0</asrwt>
<pdfrwt beam="1">  1        2 0.56341718E-02 0.90540518E+02</pdfrwt>
<pdfrwt beam="2">  1       -2 0.86093262E-02 0.90540518E+02</pdfrwt>
<totfact> 0.95152897E+04</totfact>
</mgrwt>
</event>
<event>
 7    1  0.3960685E-009  0.8851838E+02  0.7818608E-02  0.1306480E+00
          2   -1    0    0  501    0  0.00000000000E+00  0.00000000000E+00  0.62204662990E+02  0.62204663042E+02  0.25500000000E-02 0.  1.
         -2   -1    0    0    0  501 -0.00000000000E+00 -0.00000000000E+00 -0.31490818053E+02  0.31490818157E+02  0.25500000000E-02 0. -1.
         23    2    1    2    0    0  0.00000000000E+00  0.71054273576E-14  0.30713844937E+02  0.93695481199E+02  0.88518376207E+02 0.  0.
    9000005    2    3    3    0    0  0.22010184427E+02 -0.35642189977E+02  0.25412330555E+02  0.51470844083E+02  0.15768554833E+02 0.  0.
         22    1    3    3    0    0 -0.22010184427E+02  0.35642189977E+02  0.53015143817E+01  0.42224637116E+02  0.00000000000E+00 0. -1.
         22    1    4    4    0    0  0.17814358197E+02 -0.21620157977E+02  0.88736691844E+01  0.29385788976E+02  0.00000000000E+00 0. -1.
         22    1    4    4    0    0  0.41958262295E+01 -0.14022032000E+02  0.16538661370E+02  0.22085055107E+02  0.00000000000E+00 0. -1.
<mgrwt>
<rscale>  0 0.88518376E+02</rscale>
<asrwt>0</asrwt>
<pdfrwt beam="1">  1        2 0.95699482E-02 0.88518376E+02</pdfrwt>
<pdfrwt beam="2">  1       -2 0.48447412E-02 0.88518376E+02</pdfrwt>
<totfact> 0.11637539E+05</totfact>
</mgrwt>
</event>
<event>
 6    1  0.3960685E-009  0.1530172E+03  0.7818608E-02  0.1196814E+00
          2   -1    0    0  501    0  0.00000000000E+00  0.00000000000E+00  0.16672966945E+04  0.16672966945E+04  0.25500000000E-02 0. -1.
         -2   -1    0    0    0  501 -0.00000000000E+00 -0.00000000000E+00 -0.35108119019E+01  0.35108128280E+01  0.25500000000E-02 0.  1.
    9000005    2    1    2    0    0  0.19443737134E+02  0.27346324579E+01  0.16392593877E+04  0.16393895812E+04  0.64282009188E+01 0.  0.
         22    1    1    2    0    0 -0.19443737134E+02 -0.27346324579E+01  0.24526494914E+02  0.31417926112E+02  0.00000000000E+00 0.  1.
         22    1    3    3    0    0  0.15317146753E+02 -0.64327595754E-01  0.10909986332E+04  0.10911061528E+04  0.00000000000E+00 0. -1.
         22    1    3    3    0    0  0.41265903810E+01  0.27989600536E+01  0.54826075450E+03  0.54828342839E+03  0.00000000000E+00 0. -1.
<mgrwt>
<rscale>  0 0.15301720E+03</rscale>
<asrwt>0</asrwt>
<pdfrwt beam="1">  1        2 0.25650669E+00 0.15301720E+03</pdfrwt>
<pdfrwt beam="2">  1       -2 0.54012601E-03 0.15301720E+03</pdfrwt>
<totfact> 0.55488931E+04</totfact>
</mgrwt>
</event>
<event>
 7    1  0.3960685E-009  0.9472359E+02  0.7818608E-02  0.1291800E+00
         -2   -1    0    0    0  501 -0.00000000000E+00  0.00000000000E+00  0.62002203562E+01  0.62002208806E+01  0.25500000000E-02 0.  1.
          2   -1    0    0  501    0  0.00000000000E+00 -0.00000000000E+00 -0.36178382461E+03  0.36178382462E+03  0.25500000000E-02 0. -1.
         23    2    1    2    0    0  0.35527136788E-14  0.35527136788E-14 -0.35558360426E+03  0.36798404550E+03  0.94723588025E+02 0.  0.
    9000005    2    3    3    0    0  0.17346701745E+02  0.23890453527E+02 -0.32164612891E+03  0.32300167047E+03  0.14781909967E+01 0.  0.
         22    1    3    3    0    0 -0.17346701745E+02 -0.23890453527E+02 -0.33937475344E+02  0.44982375036E+02  0.00000000000E+00 0.  1.
         22    1    4    4    0    0  0.17213370054E+02  0.23757076089E+02 -0.31791964745E+03  0.31927041988E+03  0.00000000000E+00 0. -1.
         22    1    4    4    0    0  0.13333169118E+00  0.13337743785E+00 -0.37264814622E+01  0.37312505905E+01  0.00000000000E+00 0. -1.
<mgrwt>
<rscale>  0 0.94723588E+02</rscale>
<asrwt>0</asrwt>
<pdfrwt beam="2">  1        2 0.55659033E-01 0.94723588E+02</pdfrwt>
<pdfrwt beam="1">  1       -2 0.95388038E-03 0.94723588E+02</pdfrwt>
<totfact> 0.17388739E+05</totfact>
</mgrwt>
</event>
<event>
 7    1  0.3960685E-009  0.9613644E+02  0.7818608E-02  0.1288637E+00
         -2   -1    0    0    0  501 -0.00000000000E+00  0.00000000000E+00  0.20658860037E+02  0.20658860194E+02  0.25500000000E-02 0.  1.
          2   -1    0    0  501    0  0.00000000000E+00 -0.00000000000E+00 -0.11184322559E+03  0.11184322562E+03  0.25500000000E-02 0. -1.
         23    2    1    2    0    0  0.00000000000E+00  0.00000000000E+00 -0.91184365555E+02  0.13250208582E+03  0.96136435464E+02 0.  0.
    9000005    2    3    3    0    0  0.25649244069E+02  0.29322347240E+02 -0.96685614690E+01  0.42155475006E+02  0.12880963593E+02 0.  0.
         22    1    3    3    0    0 -0.25649244069E+02 -0.29322347240E+02 -0.81515804086E+02  0.90346610809E+02  0.00000000000E+00 0. -1.
         22    1    4    4    0    0  0.69227641264E+01  0.10206123577E+01 -0.57044678296E+00  0.70208063829E+01  0.00000000000E+00 0. -1.
         22    1    4    4    0    0  0.18726479943E+02  0.28301734882E+02 -0.90981146861E+01  0.35134668623E+02  0.00000000000E+00 0. -1.
<mgrwt>
<rscale>  0 0.96136435E+02</rscale>
<asrwt>0</asrwt>
<pdfrwt beam="2">  1        2 0.17206650E-01 0.96136435E+02</pdfrwt>
<pdfrwt beam="1">  1       -2 0.31782862E-02 0.96136435E+02</pdfrwt>
<totfact> 0.10976153E+05</totfact>
</mgrwt>
</event>
<event>
 7    1  0.3960685E-009  0.9141231E+02  0.7818608E-02  0.1299467E+00
          2   -1    0    0  501    0  0.00000000000E+00  0.00000000000E+00  0.18238658693E+02  0.18238658871E+02  0.25500000000E-02 0. -1.
         -2   -1    0    0    0  501 -0.00000000000E+00 -0.00000000000E+00 -0.11453981616E+03  0.11453981619E+03  0.25500000000E-02 0.  1.
         23    2    1    2    0    0  0.00000000000E+00  0.00000000000E+00 -0.96301157468E+02  0.13277847506E+03  0.91412310493E+02 0.  0.
    9000005    2    3    3    0    0 -0.23102849076E+02  0.10850916113E+02  0.59053316133E+01  0.27433088706E+02  0.81374073608E+01 0.  0.
         22    1    3    3    0    0  0.23102849076E+02 -0.10850916113E+02 -0.10220648908E+03  0.10534538635E+03  0.00000000000E+00 0.  1.
         22    1    4    4    0    0 -0.88652233305E+01  0.87322666706E-01  0.99332648046E+00  0.89211270278E+01  0.00000000000E+00 0. -1.
         22    1    4    4    0    0 -0.14237625745E+02  0.10763593446E+02  0.49120051328E+01  0.18511961678E+02  0.00000000000E+00 0. -1.
<mgrwt>
<rscale>  0 0.91412310E+02</rscale>
<asrwt>0</asrwt>
<pdfrwt beam="1">  1        2 0.28059476E-02 0.91412310E+02</pdfrwt>
<pdfrwt beam="2">  1       -2 0.17621510E-01 0.91412310E+02</pdfrwt>
<totfact> 0.76054987E+04</totfact>
</mgrwt>
</event>
<event>
 7    1  0.3960685E-009  0.9081274E+02  0.7818608E-02  0.1300895E+00
          2   -1    0    0  501    0  0.00000000000E+00  0.00000000000E+00  0.97746061026E+02  0.97746061059E+02  0.25500000000E-02 0. -1.
         -2   -1    0    0    0  501 -0.00000000000E+00 -0.00000000000E+00 -0.21092803170E+02  0.21092803324E+02  0.25500000000E-02 0.  1.
         23    2    1    2    0    0  0.00000000000E+00  0.00000000000E+00  0.76653257856E+02  0.11883886438E+03  0.90812740009E+02 0.  0.
    9000005    2    3    3    0    0  0.18291821554E+02  0.36080773341E+02  0.16244442066E+02  0.46136471260E+02  0.15108909348E+02 0.  0.
         22    1    3    3    0    0 -0.18291821554E+02 -0.36080773341E+02  0.60408815790E+02  0.72702393123E+02  0.00000000000E+00 0. -1.
         22    1    4    4    0    0  0.12171717779E+02  0.22026939661E+02  0.20573731989E+01  0.25250139980E+02  0.00000000000E+00 0. -1.
         22    1    4    4    0    0  0.61201037746E+01  0.14053833680E+02  0.14187068867E+02  0.20886331280E+02  0.00000000000E+00 0. -1.
<mgrwt>
<rscale>  0 0.90812740E+02</rscale>
<asrwt>0</asrwt>
<pdfrwt beam="1">  1        2 0.15037856E-01 0.90812740E+02</pdfrwt>
<pdfrwt beam="2">  1       -2 0.32450467E-02 0.90812740E+02</pdfrwt>
<totfact> 0.12318023E+05</totfact>
</mgrwt>
</event>
<event>
 7    1  0.5092559E-009  0.9420155E+02  0.7818608E-02  0.1292985E+00
          2   -1    0    0  501    0  0.00000000000E+00  0.00000000000E+00  0.30700075117E+03  0.30700075118E+03  0.25500000000E-02 0. -1.
         -2   -1    0    0    0  501 -0.00000000000E+00 -0.00000000000E+00 -0.72263113145E+01  0.72263117644E+01  0.25500000000E-02 0.  1.
         23    2    1    2    0    0  0.00000000000E+00  0.00000000000E+00  0.29977443986E+03  0.31422706295E+03  0.94201551454E+02 0.  0.
    9000005    2    3    3    0    0 -0.23184850383E+02 -0.26255968729E+02  0.25234964472E+03  0.25526924434E+03  0.15972812334E+02 0.  0.
         22    1    3    3    0    0  0.23184850383E+02  0.26255968729E+02  0.47424795138E+02  0.58957818608E+02  0.00000000000E+00 0.  1.
         22    1    4    4    0    0 -0.64747313121E+01 -0.54304566721E+01  0.11738440300E+03  0.11768819003E+03  0.00000000000E+00 0.  1.
         22    1    4    4    0    0 -0.16710119071E+02 -0.20825512057E+02  0.13496524172E+03  0.13758105431E+03  0.00000000000E+00 0.  1.
<mgrwt>
<rscale>  0 0.94201551E+02</rscale>
<asrwt>0</asrwt>
<pdfrwt beam="1">  1        2 0.47230877E-01 0.94201551E+02</pdfrwt>
<pdfrwt beam="2">  1       -2 0.11117404E-02 0.94201551E+02</pdfrwt>
<totfact> 0.16606890E+05</totfact>
</mgrwt>
</event>
<event>
 7    1  0.3960685E-009  0.9129738E+02  0.7818608E-02  0.1299740E+00
         -2   -1    0    0    0  501 -0.00000000000E+00  0.00000000000E+00  0.17697822094E+02  0.17697822278E+02  0.25500000000E-02 0.  1.
          2   -1    0    0  501    0  0.00000000000E+00 -0.00000000000E+00 -0.11774345704E+03  0.11774345707E+03  0.25500000000E-02 0. -1.
         23    2    1    2    0    0  0.71054273576E-14  0.00000000000E+00 -0.10004563495E+03  0.13544127935E+03  0.91297377177E+02 0.  0.
    9000005    2    3    3    0    0 -0.45213143323E+02 -0.19588081014E+01 -0.57907389884E+02  0.73605230353E+02  0.40495523027E+01 0.  0.
         22    1    3    3    0    0  0.45213143323E+02  0.19588081014E+01 -0.42138245066E+02  0.61836048997E+02  0.00000000000E+00 0.  1.
         22    1    4    4    0    0 -0.41300509952E+02 -0.17077238407E+01 -0.50845315863E+02  0.65527815377E+02  0.00000000000E+00 0.  1.
         22    1    4    4    0    0 -0.39126333709E+01 -0.25108426066E+00 -0.70620740220E+01  0.80774149759E+01  0.00000000000E+00 0.  1.
<mgrwt>
<rscale>  0 0.91297377E+02</rscale>
<asrwt>0</asrwt>
<pdfrwt beam="2">  1        2 0.18114378E-01 0.91297377E+02</pdfrwt>
<pdfrwt beam="1">  1       -2 0.27227419E-02 0.91297377E+02</pdfrwt>
<totfact> 0.12861299E+05</totfact>
</mgrwt>
</event>
<event>
 7    1  0.3960685E-009  0.9076476E+02  0.7818608E-02  0.1301010E+00
          2   -1    0    0  501    0  0.00000000000E+00  0.00000000000E+00  0.27611521110E+02  0.27611521228E+02  0.25500000000E-02 0. -1.
         -2   -1    0    0    0  501 -0.00000000000E+00 -0.00000000000E+00 -0.74590611563E+02  0.74590611607E+02  0.25500000000E-02 0.  1.
         23    2    1    2    0    0  0.00000000000E+00  0.00000000000E+00 -0.46979090453E+02  0.10220213283E+03  0.90764756464E+02 0.  0.
    9000005    2    3    3    0    0 -0.47476342876E+01  0.43399141358E+02 -0.30525342648E+02  0.55546465239E+02  0.15734921507E+02 0.  0.
         22    1    3    3    0    0  0.47476342876E+01 -0.43399141358E+02 -0.16453747805E+02  0.46655667595E+02  0.00000000000E+00 0. -1.
         22    1    4    4    0    0 -0.39249023330E+01  0.11448741088E+01 -0.19453948326E+01  0.45277098077E+01  0.00000000000E+00 0.  1.
         22    1    4    4    0    0 -0.82273195467E+00  0.42254267249E+02 -0.28579947816E+02  0.51018755431E+02  0.00000000000E+00 0.  1.
<mgrwt>
<rscale>  0 0.90764756E+02</rscale>
<asrwt>0</asrwt>
<pdfrwt beam="1">  1        2 0.42479264E-02 0.90764756E+02</pdfrwt>
<pdfrwt beam="2">  1       -2 0.11475479E-01 0.90764756E+02</pdfrwt>
<totfact> 0.87690564E+04</totfact>
</mgrwt>
</event>
<event>
 7    1  0.3960685E-009  0.8744286E+02  0.7818608E-02  0.1309165E+00
          2   -1    0    0  501    0  0.00000000000E+00  0.00000000000E+00  0.22633224597E+02  0.22633224741E+02  0.25500000000E-02 0. -1.
         -2   -1    0    0    0  501 -0.00000000000E+00 -0.00000000000E+00 -0.84458290607E+02  0.84458290646E+02  0.25500000000E-02 0.  1.
         23    2    1    2    0    0  0.00000000000E+00  0.00000000000E+00 -0.61825066010E+02  0.10709151539E+03  0.87442860662E+02 0.  0.
    9000005    2    3    3    0    0 -0.15717324623E+02 -0.28581503718E+02  0.39555333237E+01  0.33667923151E+02  0.73448047851E+01 0.  0.
         22    1    3    3    0    0  0.15717324623E+02  0.28581503718E+02 -0.65780599333E+02  0.73423592236E+02  0.00000000000E+00 0.  1.
         22    1    4    4    0    0 -0.13593234724E+02 -0.24792038679E+02  0.59411146908E+01  0.28891487603E+02  0.00000000000E+00 0.  1.
         22    1    4    4    0    0 -0.21240898992E+01 -0.37894650390E+01 -0.19855813672E+01  0.47764355483E+01  0.00000000000E+00 0.  1.
<mgrwt>
<rscale>  0 0.87442861E+02</rscale>
<asrwt>0</asrwt>
<pdfrwt beam="1">  1        2 0.34820346E-02 0.87442861E+02</pdfrwt>
<pdfrwt beam="2">  1       -2 0.12993583E-01 0.87442861E+02</pdfrwt>
<totfact> 0.92901033E+04</totfact>
</mgrwt>
</event>
<event>
 7    1  0.3960685E-009  0.9315498E+02  0.7818608E-02  0.1295386E+00
          2   -1    0    0  501    0  0.00000000000E+00  0.00000000000E+00  0.70645040988E+03  0.70645040988E+03  0.25500000000E-02 0. -1.
         -2   -1    0    0    0  501 -0.00000000000E+00 -0.00000000000E+00 -0.30709337330E+01  0.30709347917E+01  0.25500000000E-02 0.  1.
         23    2    1    2    0    0  0.00000000000E+00  0.00000000000E+00  0.70337947615E+03  0.70952134467E+03  0.93154984228E+02 0.  0.
    9000005    2    3    3    0    0 -0.17849929695E+02 -0.34908932704E+02  0.54285139679E+03  0.54427450557E+03  0.31376493631E+01 0.  0.
         22    1    3    3    0    0  0.17849929695E+02  0.34908932704E+02  0.16052807935E+03  0.16524683910E+03  0.00000000000E+00 0. -1.
         22    1    4    4    0    0 -0.14297356870E+01 -0.46847039683E+01  0.76031888318E+02  0.76189491642E+02  0.00000000000E+00 0. -1.
         22    1    4    4    0    0 -0.16420194008E+02 -0.30224228736E+02  0.46681950847E+03  0.46808501393E+03  0.00000000000E+00 0. -1.
<mgrwt>
<rscale>  0 0.93154984E+02</rscale>
<asrwt>0</asrwt>
<pdfrwt beam="1">  1        2 0.10868467E+00 0.93154984E+02</pdfrwt>
<pdfrwt beam="2">  1       -2 0.47245148E-03 0.93154984E+02</pdfrwt>
<totfact> 0.22454990E+05</totfact>
</mgrwt>
</event>
<event>
 7    1  0.3960685E-009  0.9256125E+02  0.7818608E-02  0.1296765E+00
          2   -1    0    0  501    0  0.00000000000E+00  0.00000000000E+00  0.14954274563E+03  0.14954274565E+03  0.25500000000E-02 0.  1.
         -2   -1    0    0    0  501 -0.00000000000E+00 -0.00000000000E+00 -0.14322968594E+02  0.14322968821E+02  0.25500000000E-02 0. -1.
         23    2    1    2    0    0  0.00000000000E+00  0.00000000000E+00  0.13521977704E+03  0.16386571448E+03  0.92561246091E+02 0.  0.
    9000005    2    3    3    0    0  0.86737620026E+01 -0.30030728615E+02  0.10582533442E+02  0.35368549915E+02  0.12722637330E+02 0.  0.
         22    1    3    3    0    0 -0.86737620026E+01  0.30030728615E+02  0.12463724360E+03  0.12849716456E+03  0.00000000000E+00 0.  1.
         22    1    4    4    0    0  0.91788887316E+01 -0.28491855840E+02  0.12855440116E+02  0.32577602553E+02  0.00000000000E+00 0. -1.
         22    1    4    4    0    0 -0.50512672899E+00 -0.15388727751E+01 -0.22729066736E+01  0.27909473620E+01  0.00000000000E+00 0. -1.
<mgrwt>
<rscale>  0 0.92561246E+02</rscale>
<asrwt>0</asrwt>
<pdfrwt beam="1">  1        2 0.23006576E-01 0.92561246E+02</pdfrwt>
<pdfrwt beam="2">  1       -2 0.22035337E-02 0.92561246E+02</pdfrwt>
<totfact> 0.13405688E+05</totfact>
</mgrwt>
</event>
<event>
 7    1  0.3960685E-009  0.9206877E+02  0.7818608E-02  0.1297918E+00
          2   -1    0    0  501    0  0.00000000000E+00  0.00000000000E+00  0.12481843825E+03  0.12481843828E+03  0.25500000000E-02 0. -1.
         -2   -1    0    0    0  501 -0.00000000000E+00 -0.00000000000E+00 -0.16977977910E+02  0.16977978102E+02  0.25500000000E-02 0.  1.
         23    2    1    2    0    0  0.00000000000E+00  0.00000000000E+00  0.10784046034E+03  0.14179641638E+03  0.92068772185E+02 0.  0.
    9000005    2    3    3    0    0  0.10855665056E+02 -0.19149072195E+02  0.11575119619E+03  0.11840598733E+03  0.11709226523E+02 0.  0.
         22    1    3    3    0    0 -0.10855665056E+02  0.19149072195E+02 -0.79107358460E+01  0.23390429055E+02  0.00000000000E+00 0.  1.
         22    1    4    4    0    0  0.12322059453E+02 -0.10604708418E+02  0.74216403503E+02  0.75976098470E+02  0.00000000000E+00 0.  1.
         22    1    4    4    0    0 -0.14663943969E+01 -0.85443637778E+01  0.41534792685E+02  0.42429888856E+02  0.00000000000E+00 0.  1.
<mgrwt>
<rscale>  0 0.92068772E+02</rscale>
<asrwt>0</asrwt>
<pdfrwt beam="1">  1        2 0.19202837E-01 0.92068772E+02</pdfrwt>
<pdfrwt beam="2">  1       -2 0.26119966E-02 0.92068772E+02</pdfrwt>
<totfact> 0.12806836E+05</totfact>
</mgrwt>
</event>
<event>
 7    1  0.3960685E-009  0.9603946E+02  0.7818608E-02  0.1288852E+00
          2   -1    0    0  501    0  0.00000000000E+00  0.00000000000E+00  0.18485575020E+03  0.18485575022E+03  0.25500000000E-02 0. -1.
         -2   -1    0    0    0  501 -0.00000000000E+00 -0.00000000000E+00 -0.12474021886E+02  0.12474022147E+02  0.25500000000E-02 0.  1.
         23    2    1    2    0    0  0.00000000000E+00  0.35527136788E-14  0.17238172831E+03  0.19732977236E+03  0.96039464829E+02 0.  0.
    9000005    2    3    3    0    0 -0.35667473205E+02 -0.23704210640E+02  0.12885251912E+03  0.13626545955E+03  0.11456244339E+02 0.  0.
         22    1    3    3    0    0  0.35667473205E+02  0.23704210640E+02  0.43529209188E+02  0.61064312814E+02  0.00000000000E+00 0.  1.
         22    1    4    4    0    0 -0.22198618975E+02 -0.17327346915E+02  0.67698186456E+02  0.73321620856E+02  0.00000000000E+00 0. -1.
         22    1    4    4    0    0 -0.13468854230E+02 -0.63768637247E+01  0.61154332667E+02  0.62943838692E+02  0.00000000000E+00 0. -1.
<mgrwt>
<rscale>  0 0.96039465E+02</rscale>
<asrwt>0</asrwt>
<pdfrwt beam="1">  1        2 0.28439344E-01 0.96039465E+02</pdfrwt>
<pdfrwt beam="2">  1       -2 0.19190805E-02 0.96039465E+02</pdfrwt>
<totfact> 0.13062702E+05</totfact>
</mgrwt>
</event>
<event>
 7    1  0.3960685E-009  0.9207577E+02  0.7818608E-02  0.1297901E+00
         -2   -1    0    0    0  501 -0.00000000000E+00  0.00000000000E+00  0.13490146244E+03  0.13490146247E+03  0.25500000000E-02 0.  1.
          2   -1    0    0  501    0  0.00000000000E+00 -0.00000000000E+00 -0.15711371602E+02  0.15711371809E+02  0.25500000000E-02 0. -1.
         23    2    1    2    0    0  0.17763568394E-14  0.00000000000E+00  0.11919009084E+03  0.15061283428E+03  0.92075773654E+02 0.  0.
    9000005    2    3    3    0    0 -0.13570402355E+02  0.43425190026E+02  0.52100161744E+02  0.69551366641E+02  0.72844216682E+01 0.  0.
         22    1    3    3    0    0  0.13570402355E+02 -0.43425190026E+02  0.67089929098E+02  0.81061467636E+02  0.00000000000E+00 0.  1.
         22    1    4    4    0    0 -0.24544257043E+01  0.18176136910E+02  0.18120911950E+02  0.25783010072E+02  0.00000000000E+00 0. -1.
         22    1    4    4    0    0 -0.11115976651E+02  0.25249053116E+02  0.33979249794E+02  0.43768356569E+02  0.00000000000E+00 0. -1.
<mgrwt>
<rscale>  0 0.92075774E+02</rscale>
<asrwt>0</asrwt>
<pdfrwt beam="2">  1        2 0.24171342E-02 0.92075774E+02</pdfrwt>
<pdfrwt beam="1">  1       -2 0.20754070E-01 0.92075774E+02</pdfrwt>
<totfact> 0.70753872E+04</totfact>
</mgrwt>
</event>
<event>
 7    1  0.3960685E-009  0.8649041E+02  0.7818608E-02  0.1311580E+00
         -2   -1    0    0    0  501 -0.00000000000E+00  0.00000000000E+00  0.37490378779E+03  0.37490378779E+03  0.25500000000E-02 0.  1.
          2   -1    0    0  501    0  0.00000000000E+00 -0.00000000000E+00 -0.49883401056E+01  0.49883407574E+01  0.25500000000E-02 0. -1.
         23    2    1    2    0    0  0.00000000000E+00  0.00000000000E+00  0.36991544768E+03  0.37989212855E+03  0.86490409314E+02 0.  0.
    9000005    2    3    3    0    0  0.38701687940E+02  0.11377075203E+02  0.24710212599E+03  0.25062353038E+03  0.11199768748E+02 0.  0.
         22    1    3    3    0    0 -0.38701687940E+02 -0.11377075203E+02  0.12281332169E+03  0.12926859817E+03  0.00000000000E+00 0. -1.
         22    1    4    4    0    0  0.13758147258E+02 -0.13666238994E+01  0.77336615220E+02  0.78562754092E+02  0.00000000000E+00 0. -1.
         22    1    4    4    0    0  0.24943540682E+02  0.12743699103E+02  0.16976551077E+03  0.17206077629E+03  0.00000000000E+00 0. -1.
<mgrwt>
<rscale>  0 0.86490409E+02</rscale>
<asrwt>0</asrwt>
<pdfrwt beam="2">  1        2 0.76743692E-03 0.86490409E+02</pdfrwt>
<pdfrwt beam="1">  1       -2 0.57677511E-01 0.86490409E+02</pdfrwt>
<totfact> 0.51058940E+04</totfact>
</mgrwt>
</event>
<event>
 7    1  0.3960685E-009  0.8832516E+02  0.7818608E-02  0.1306959E+00
         -2   -1    0    0    0  501 -0.00000000000E+00  0.00000000000E+00  0.14062283767E+01  0.14062306887E+01  0.25500000000E-02 0.  1.
          2   -1    0    0  501    0  0.00000000000E+00 -0.00000000000E+00 -0.13869240614E+04  0.13869240614E+04  0.25500000000E-02 0. -1.
         23    2    1    2    0    0  0.00000000000E+00  0.00000000000E+00 -0.13855178330E+04  0.13883302921E+04  0.88325162394E+02 0.  0.
    9000005    2    3    3    0    0  0.16336015613E+02  0.78449620211E+01 -0.13243095826E+04  0.13244956717E+04  0.12825952808E+02 0.  0.
         22    1    3    3    0    0 -0.16336015613E+02 -0.78449620211E+01 -0.61208250458E+02  0.63834620382E+02  0.00000000000E+00 0.  1.
         22    1    4    4    0    0  0.10973345616E+01  0.51038744198E+01 -0.58877223992E+03  0.58879538396E+03  0.00000000000E+00 0. -1.
         22    1    4    4    0    0  0.15238681052E+02  0.27410876013E+01 -0.73553734265E+03  0.73570028775E+03  0.00000000000E+00 0. -1.
<mgrwt>
<rscale>  0 0.88325162E+02</rscale>
<asrwt>0</asrwt>
<pdfrwt beam="2">  1        2 0.21337184E+00 0.88325162E+02</pdfrwt>
<pdfrwt beam="1">  1       -2 0.21634411E-03 0.88325162E+02</pdfrwt>
<totfact> 0.26312934E+05</totfact>
</mgrwt>
</event>
<event>
 7    1  0.3960685E-009  0.9072927E+02  0.7818608E-02  0.1301095E+00
         -2   -1    0    0    0  501 -0.00000000000E+00  0.00000000000E+00  0.17893010633E+02  0.17893010815E+02  0.25500000000E-02 0.  1.
          2   -1    0    0  501    0  0.00000000000E+00 -0.00000000000E+00 -0.11501417748E+03  0.11501417751E+03  0.25500000000E-02 0. -1.
         23    2    1    2    0    0  0.00000000000E+00  0.00000000000E+00 -0.97121166845E+02  0.13290718832E+03  0.90729265721E+02 0.  0.
    9000005    2    3    3    0    0 -0.21183135045E+02  0.35351474901E+02 -0.24065511887E+02  0.49028819779E+02  0.11234959661E+02 0.  0.
         22    1    3    3    0    0  0.21183135045E+02 -0.35351474901E+02 -0.73055654958E+02  0.83878368543E+02  0.00000000000E+00 0. -1.
         22    1    4    4    0    0 -0.13313861877E+02  0.12062013838E+02 -0.12321385705E+02  0.21784573477E+02  0.00000000000E+00 0. -1.
         22    1    4    4    0    0 -0.78692731687E+01  0.23289461062E+02 -0.11744126182E+02  0.27244246302E+02  0.00000000000E+00 0. -1.
<mgrwt>
<rscale>  0 0.90729266E+02</rscale>
<asrwt>0</asrwt>
<pdfrwt beam="2">  1        2 0.17694488E-01 0.90729266E+02</pdfrwt>
<pdfrwt beam="1">  1       -2 0.27527710E-02 0.90729266E+02</pdfrwt>
<totfact> 0.12985838E+05</totfact>
</mgrwt>
</event>
<event>
 7    1  0.7017580E-009  0.9084771E+02  0.7818608E-02  0.1300812E+00
         -2   -1    0    0    0  501 -0.00000000000E+00  0.00000000000E+00  0.73046548723E+01  0.73046553174E+01  0.25500000000E-02 0.  1.
          2   -1    0    0  501    0  0.00000000000E+00 -0.00000000000E+00 -0.28246734134E+03  0.28246734135E+03  0.25500000000E-02 0. -1.
         23    2    1    2    0    0  0.00000000000E+00  0.00000000000E+00 -0.27516268647E+03  0.28977199667E+03  0.90847707893E+02 0.  0.
    9000005    2    3    3    0    0 -0.91005804240E+01 -0.42633492596E+02 -0.11930232531E+03  0.12792982839E+03  0.15249947901E+02 0.  0.
         22    1    3    3    0    0  0.91005804240E+01  0.42633492596E+02 -0.15586036115E+03  0.16184216828E+03  0.00000000000E+00 0. -1.
         22    1    4    4    0    0 -0.13337479589E+02 -0.34978691833E+02 -0.96701143025E+02  0.10369430219E+03  0.00000000000E+00 0. -1.
         22    1    4    4    0    0  0.42368991654E+01 -0.76548007636E+01 -0.22601182289E+02  0.24235526199E+02  0.00000000000E+00 0. -1.
<mgrwt>
<rscale>  0 0.90847708E+02</rscale>
<asrwt>0</asrwt>
<pdfrwt beam="2">  1        2 0.43456506E-01 0.90847708E+02</pdfrwt>
<pdfrwt beam="1">  1       -2 0.11237933E-02 0.90847708E+02</pdfrwt>
<totfact> 0.17737604E+05</totfact>
</mgrwt>
</event>
<event>
 7    1  0.3960685E-009  0.1009944E+03  0.7818608E-02  0.1278219E+00
          2   -1    0    0  501    0  0.00000000000E+00  0.00000000000E+00  0.81284690924E+03  0.81284690924E+03  0.25500000000E-02 0.  1.
         -2   -1    0    0    0  501 -0.00000000000E+00 -0.00000000000E+00 -0.31370797612E+01  0.31370807976E+01  0.25500000000E-02 0. -1.
         23    2    1    2    0    0  0.00000000000E+00 -0.44408920985E-15  0.80970982948E+03  0.81598399004E+03  0.10099437633E+03 0.  0.
    9000005    2    3    3    0    0 -0.38412184653E+02 -0.15463511366E+01  0.66684429428E+03  0.66803653897E+03  0.10659148657E+02 0.  0.
         22    1    3    3    0    0  0.38412184653E+02  0.15463511366E+01  0.14286553520E+03  0.14794745107E+03  0.00000000000E+00 0. -1.
         22    1    4    4    0    0 -0.20175023826E+02  0.29412174766E+01  0.28330612050E+03  0.28403880063E+03  0.00000000000E+00 0. -1.
         22    1    4    4    0    0 -0.18237160828E+02 -0.44875686132E+01  0.38353817378E+03  0.38399773834E+03  0.00000000000E+00 0. -1.
<mgrwt>
<rscale>  0 0.10099438E+03</rscale>
<asrwt>0</asrwt>
<pdfrwt beam="1">  1        2 0.12505351E+00 0.10099438E+03</pdfrwt>
<pdfrwt beam="2">  1       -2 0.48262721E-03 0.10099438E+03</pdfrwt>
<totfact> 0.18641185E+05</totfact>
</mgrwt>
</event>
<event>
 7    1  0.3960685E-009  0.9242385E+02  0.7818608E-02  0.1297086E+00
          2   -1    0    0  501    0  0.00000000000E+00  0.00000000000E+00  0.47192006259E+02  0.47192006327E+02  0.25500000000E-02 0. -1.
         -2   -1    0    0    0  501 -0.00000000000E+00 -0.00000000000E+00 -0.45252202531E+02  0.45252202603E+02  0.25500000000E-02 0.  1.
         23    2    1    2    0    0  0.35527136788E-14  0.00000000000E+00  0.19398037273E+01  0.92444208931E+02  0.92423854747E+02 0.  0.
    9000005    2    3    3    0    0  0.30568067333E+02 -0.21360157565E+02  0.26953359737E+02  0.47540522490E+02  0.11956362569E+02 0.  0.
         22    1    3    3    0    0 -0.30568067333E+02  0.21360157565E+02 -0.25013556010E+02  0.44903686440E+02  0.00000000000E+00 0.  1.
         22    1    4    4    0    0  0.29536953084E+02 -0.22721268373E+02  0.24677402064E+02  0.44695210108E+02  0.00000000000E+00 0.  1.
         22    1    4    4    0    0  0.10311142492E+01  0.13611108079E+01  0.22759576731E+01  0.28453123828E+01  0.00000000000E+00 0.  1.
<mgrwt>
<rscale>  0 0.92423855E+02</rscale>
<asrwt>0</asrwt>
<pdfrwt beam="1">  1        2 0.72603087E-02 0.92423855E+02</pdfrwt>
<pdfrwt beam="2">  1       -2 0.69618773E-02 0.92423855E+02</pdfrwt>
<totfact> 0.95758369E+04</totfact>
</mgrwt>
</event>
<event>
 7    1  0.3960685E-009  0.9121640E+02  0.7818608E-02  0.1299932E+00
         -2   -1    0    0    0  501 -0.00000000000E+00  0.00000000000E+00  0.23943013522E+02  0.23943013658E+02  0.25500000000E-02 0.  1.
          2   -1    0    0  501    0  0.00000000000E+00 -0.00000000000E+00 -0.86877454056E+02  0.86877454093E+02  0.25500000000E-02 0. -1.
         23    2    1    2    0    0  0.71054273576E-14  0.00000000000E+00 -0.62934440534E+02  0.11082046775E+03  0.91216403499E+02 0.  0.
    9000005    2    3    3    0    0  0.35406966521E+02  0.23266332870E+02 -0.13978639399E+02  0.46077545449E+02  0.11522252894E+02 0.  0.
         22    1    3    3    0    0 -0.35406966521E+02 -0.23266332870E+02 -0.48955801135E+02  0.64742922302E+02  0.00000000000E+00 0. -1.
         22    1    4    4    0    0  0.24513367176E+02  0.98574825898E+01 -0.10632507167E+02  0.28480262323E+02  0.00000000000E+00 0. -1.
         22    1    4    4    0    0  0.10893599345E+02  0.13408850281E+02 -0.33461322324E+01  0.17597283127E+02  0.00000000000E+00 0. -1.
<mgrwt>
<rscale>  0 0.91216403E+02</rscale>
<asrwt>0</asrwt>
<pdfrwt beam="2">  1        2 0.13365762E-01 0.91216403E+02</pdfrwt>
<pdfrwt beam="1">  1       -2 0.36835406E-02 0.91216403E+02</pdfrwt>
<totfact> 0.11748833E+05</totfact>
</mgrwt>
</event>
<event>
 7    1  0.3960685E-009  0.9255719E+02  0.7818608E-02  0.1296775E+00
         -2   -1    0    0    0  501 -0.00000000000E+00  0.00000000000E+00  0.12964845972E+02  0.12964846223E+02  0.25500000000E-02 0.  1.
          2   -1    0    0  501    0  0.00000000000E+00 -0.00000000000E+00 -0.16519351868E+03  0.16519351870E+03  0.25500000000E-02 0. -1.
         23    2    1    2    0    0  0.00000000000E+00  0.00000000000E+00 -0.15222867271E+03  0.17815836492E+03  0.92557194197E+02 0.  0.
    9000005    2    3    3    0    0  0.33056734669E+02  0.27049260984E+02 -0.10943005614E+03  0.11769240916E+03  0.72218944307E+01 0.  0.
         22    1    3    3    0    0 -0.33056734669E+02 -0.27049260984E+02 -0.42798616567E+02  0.60465955767E+02  0.00000000000E+00 0. -1.
         22    1    4    4    0    0  0.21792539020E+02  0.16815124126E+02 -0.79212158489E+02  0.83858387826E+02  0.00000000000E+00 0. -1.
         22    1    4    4    0    0  0.11264195649E+02  0.10234136858E+02 -0.30217897652E+02  0.33834021330E+02  0.00000000000E+00 0. -1.
<mgrwt>
<rscale>  0 0.92557194E+02</rscale>
<asrwt>0</asrwt>
<pdfrwt beam="2">  1        2 0.25414386E-01 0.92557194E+02</pdfrwt>
<pdfrwt beam="1">  1       -2 0.19945918E-02 0.92557194E+02</pdfrwt>
<totfact> 0.13875754E+05</totfact>
</mgrwt>
</event>
<event>
 7    1  0.3960685E-009  0.9370589E+02  0.7818608E-02  0.1294118E+00
         -2   -1    0    0    0  501 -0.00000000000E+00  0.00000000000E+00  0.21083964451E+02  0.21083964605E+02  0.25500000000E-02 0. -1.
          2   -1    0    0  501    0  0.00000000000E+00 -0.00000000000E+00 -0.10411696615E+03  0.10411696618E+03  0.25500000000E-02 0.  1.
         23    2    1    2    0    0  0.00000000000E+00  0.00000000000E+00 -0.83033001699E+02  0.12520093079E+03  0.93705889349E+02 0.  0.
    9000005    2    3    3    0    0  0.37317864719E+02 -0.26487215813E+02 -0.37010765155E+02  0.60299144330E+02  0.13114665109E+02 0.  0.
         22    1    3    3    0    0 -0.37317864719E+02  0.26487215813E+02 -0.46022236544E+02  0.64901786456E+02  0.00000000000E+00 0.  1.
         22    1    4    4    0    0  0.16531689305E+02 -0.18519858222E+02 -0.23923348641E+02  0.34476202083E+02  0.00000000000E+00 0. -1.
         22    1    4    4    0    0  0.20786175414E+02 -0.79673575909E+01 -0.13087416514E+02  0.25822942248E+02  0.00000000000E+00 0. -1.
<mgrwt>
<rscale>  0 0.93705889E+02</rscale>
<asrwt>0</asrwt>
<pdfrwt beam="2">  1        2 0.16017994E-01 0.93705889E+02</pdfrwt>
<pdfrwt beam="1">  1       -2 0.32436869E-02 0.93705889E+02</pdfrwt>
<totfact> 0.11517868E+05</totfact>
</mgrwt>
</event>
<event>
 7    1  0.3960685E-009  0.9278660E+02  0.7818608E-02  0.1296240E+00
         -2   -1    0    0    0  501 -0.00000000000E+00  0.00000000000E+00  0.15160374331E+02  0.15160374545E+02  0.25500000000E-02 0. -1.
          2   -1    0    0  501    0  0.00000000000E+00 -0.00000000000E+00 -0.14197130211E+03  0.14197130213E+03  0.25500000000E-02 0.  1.
         23    2    1    2    0    0  0.00000000000E+00  0.00000000000E+00 -0.12681092778E+03  0.15713167668E+03  0.92786596076E+02 0.  0.
    9000005    2    3    3    0    0 -0.91706278708E+01  0.81571511902E+01 -0.13895322488E+03  0.13986683060E+03  0.10202552067E+02 0.  0.
         22    1    3    3    0    0  0.91706278708E+01 -0.81571511902E+01  0.12142297098E+02  0.17264846073E+02  0.00000000000E+00 0. -1.
         22    1    4    4    0    0 -0.10950205919E+02  0.69590755190E+01 -0.13058627610E+03  0.13122923168E+03  0.00000000000E+00 0.  1.
         22    1    4    4    0    0  0.17795780483E+01  0.11980756712E+01 -0.83669487721E+01  0.86375989197E+01  0.00000000000E+00 0.  1.
<mgrwt>
<rscale>  0 0.92786596E+02</rscale>
<asrwt>0</asrwt>
<pdfrwt beam="2">  1        2 0.21841738E-01 0.92786596E+02</pdfrwt>
<pdfrwt beam="1">  1       -2 0.23323654E-02 0.92786596E+02</pdfrwt>
<totfact> 0.13084542E+05</totfact>
</mgrwt>
</event>
<event>
 7    1  0.3960685E-009  0.8317748E+02  0.7818608E-02  0.1320269E+00
         -2   -1    0    0    0  501 -0.00000000000E+00  0.00000000000E+00  0.39498622051E+02  0.39498622133E+02  0.25500000000E-02 0.  1.
          2   -1    0    0  501    0  0.00000000000E+00 -0.00000000000E+00 -0.43789457785E+02  0.43789457859E+02  0.25500000000E-02 0. -1.
         23    2    1    2    0    0  0.35527136788E-14  0.17763568394E-14 -0.42908357344E+01  0.83288079992E+02  0.83177478908E+02 0.  0.
    9000005    2    3    3    0    0 -0.22939119419E+02 -0.12739662393E+02  0.29896712709E+02  0.40191784719E+02  0.57501243884E+01 0.  0.
         22    1    3    3    0    0  0.22939119419E+02  0.12739662393E+02 -0.34187548444E+02  0.43096295273E+02  0.00000000000E+00 0. -1.
         22    1    4    4    0    0 -0.10735095745E+02 -0.80547146345E+01  0.18457527327E+02  0.22821065346E+02  0.00000000000E+00 0. -1.
         22    1    4    4    0    0 -0.12204023674E+02 -0.46849477588E+01  0.11439185383E+02  0.17370719373E+02  0.00000000000E+00 0. -1.
<mgrwt>
<rscale>  0 0.83177479E+02</rscale>
<asrwt>0</asrwt>
<pdfrwt beam="2">  1        2 0.67368397E-02 0.83177479E+02</pdfrwt>
<pdfrwt beam="1">  1       -2 0.60767111E-02 0.83177479E+02</pdfrwt>
<totfact> 0.12684875E+05</totfact>
</mgrwt>
</event>
<event>
 7    1  0.3960685E-009  0.9032187E+02  0.7818608E-02  0.1302074E+00
         -2   -1    0    0    0  501 -0.00000000000E+00  0.00000000000E+00  0.69785932399E+01  0.69785937058E+01  0.25500000000E-02 0.  1.
          2   -1    0    0  501    0  0.00000000000E+00 -0.00000000000E+00 -0.29225232187E+03  0.29225232188E+03  0.25500000000E-02 0. -1.
         23    2    1    2    0    0  0.35527136788E-14  0.00000000000E+00 -0.28527372863E+03  0.29923091558E+03  0.90321872193E+02 0.  0.
    9000005    2    3    3    0    0 -0.30234331731E+02  0.31396849048E+02 -0.11353503015E+03  0.12204723265E+03  0.10268737982E+02 0.  0.
         22    1    3    3    0    0  0.30234331731E+02 -0.31396849048E+02 -0.17173869848E+03  0.17718368294E+03  0.00000000000E+00 0. -1.
         22    1    4    4    0    0 -0.23048629574E+02  0.22683630616E+02 -0.70641604860E+02  0.77691844876E+02  0.00000000000E+00 0. -1.
         22    1    4    4    0    0 -0.71857021567E+01  0.87132184315E+01 -0.42893425293E+02  0.44355387770E+02  0.00000000000E+00 0. -1.
<mgrwt>
<rscale>  0 0.90321872E+02</rscale>
<asrwt>0</asrwt>
<pdfrwt beam="2">  1        2 0.44961886E-01 0.90321872E+02</pdfrwt>
<pdfrwt beam="1">  1       -2 0.10736300E-02 0.90321872E+02</pdfrwt>
<totfact> 0.18244400E+05</totfact>
</mgrwt>
</event>
<event>
 7    1  0.3960685E-009  0.8986903E+02  0.7818608E-02  0.1303169E+00
         -2   -1    0    0    0  501 -0.00000000000E+00  0.00000000000E+00  0.46450442708E+02  0.46450442778E+02  0.25500000000E-02 0.  1.
          2   -1    0    0  501    0  0.00000000000E+00 -0.00000000000E+00 -0.43468058843E+02  0.43468058918E+02  0.25500000000E-02 0. -1.
         23    2    1    2    0    0 -0.17763568394E-14  0.35527136788E-14  0.29823838650E+01  0.89918501695E+02  0.89869028779E+02 0.  0.
    9000005    2    3    3    0    0  0.15307934572E+02 -0.20617739932E+02  0.37052671477E+02  0.47254599404E+02  0.14165897093E+02 0.  0.
         22    1    3    3    0    0 -0.15307934572E+02  0.20617739932E+02 -0.34070287612E+02  0.42663902292E+02  0.00000000000E+00 0. -1.
         22    1    4    4    0    0  0.16971192795E+02 -0.20684733149E+02  0.30868257791E+02  0.40850078450E+02  0.00000000000E+00 0. -1.
         22    1    4    4    0    0 -0.16632582224E+01  0.66993217001E-01  0.61844136867E+01  0.64045209542E+01  0.00000000000E+00 0. -1.
<mgrwt>
<rscale>  0 0.89869029E+02</rscale>
<asrwt>0</asrwt>
<pdfrwt beam="2">  1        2 0.66873937E-02 0.89869029E+02</pdfrwt>
<pdfrwt beam="1">  1       -2 0.71462220E-02 0.89869029E+02</pdfrwt>
<totfact> 0.10159389E+05</totfact>
</mgrwt>
</event>
<event>
 7    1  0.3960685E-009  0.9050687E+02  0.7818608E-02  0.1301629E+00
          2   -1    0    0  501    0  0.00000000000E+00  0.00000000000E+00  0.92853699301E+02  0.92853699336E+02  0.25500000000E-02 0.  1.
         -2   -1    0    0    0  501 -0.00000000000E+00 -0.00000000000E+00 -0.22054837780E+02  0.22054837927E+02  0.25500000000E-02 0. -1.
         23    2    1    2    0    0 -0.71054273576E-14  0.35527136788E-14  0.70798861521E+02  0.11490853726E+03  0.90506867935E+02 0.  0.
    9000005    2    3    3    0    0  0.37782133960E+02 -0.21182943793E+02  0.22882867438E+02  0.50316360932E+02  0.11484938000E+02 0.  0.
         22    1    3    3    0    0 -0.37782133960E+02  0.21182943793E+02  0.47915994083E+02  0.64592176332E+02  0.00000000000E+00 0. -1.
         22    1    4    4    0    0  0.36216239613E+02 -0.18730530029E+02  0.17863587582E+02  0.44514677672E+02  0.00000000000E+00 0. -1.
         22    1    4    4    0    0  0.15658943468E+01 -0.24524137645E+01  0.50192798560E+01  0.58016832601E+01  0.00000000000E+00 0. -1.
<mgrwt>
<rscale>  0 0.90506868E+02</rscale>
<asrwt>0</asrwt>
<pdfrwt beam="1">  1        2 0.14285184E-01 0.90506868E+02</pdfrwt>
<pdfrwt beam="2">  1       -2 0.33930520E-02 0.90506868E+02</pdfrwt>
<totfact> 0.12243071E+05</totfact>
</mgrwt>
</event>
<event>
 7    1  0.3960685E-009  0.1039329E+03  0.7818608E-02  0.1272237E+00
          2   -1    0    0  501    0  0.00000000000E+00  0.00000000000E+00  0.86069156199E+02  0.86069156237E+02  0.25500000000E-02 0.  1.
         -2   -1    0    0    0  501 -0.00000000000E+00 -0.00000000000E+00 -0.31376047252E+02  0.31376047356E+02  0.25500000000E-02 0. -1.
         23    2    1    2    0    0  0.00000000000E+00  0.35527136788E-14  0.54693108946E+02  0.11744520359E+03  0.10393286141E+03 0.  0.
    9000005    2    3    3    0    0  0.33637303235E+02 -0.17321771402E+02  0.66536181194E+02  0.77799645283E+02  0.13935905601E+02 0.  0.
         22    1    3    3    0    0 -0.33637303235E+02  0.17321771402E+02 -0.11843072247E+02  0.39645558309E+02  0.00000000000E+00 0. -1.
         22    1    4    4    0    0  0.30214595038E+02 -0.19763742656E+02  0.60144440840E+02  0.70148991732E+02  0.00000000000E+00 0. -1.
         22    1    4    4    0    0  0.34227081969E+01  0.24419712542E+01  0.63917403534E+01  0.76506535507E+01  0.00000000000E+00 0. -1.
<mgrwt>
<rscale>  0 0.10393286E+03</rscale>
<asrwt>0</asrwt>
<pdfrwt beam="1">  1        2 0.13241409E-01 0.10393286E+03</pdfrwt>
<pdfrwt beam="2">  1       -2 0.48270842E-02 0.10393286E+03</pdfrwt>
<totfact> 0.81289678E+04</totfact>
</mgrwt>
</event>
<event>
 7    1  0.3960685E-009  0.9200899E+02  0.7818608E-02  0.1298058E+00
          2   -1    0    0  501    0  0.00000000000E+00  0.00000000000E+00  0.33468286901E+03  0.33468286902E+03  0.25500000000E-02 0. -1.
         -2   -1    0    0    0  501 -0.00000000000E+00 -0.00000000000E+00 -0.63236391560E+01  0.63236396701E+01  0.25500000000E-02 0.  1.
         23    2    1    2    0    0  0.71054273576E-14  0.00000000000E+00  0.32835922986E+03  0.34100650869E+03  0.92008994879E+02 0.  0.
    9000005    2    3    3    0    0  0.42301068591E+02  0.17703086345E+02  0.17595759880E+03  0.18185552121E+03  0.27521530778E+01 0.  0.
         22    1    3    3    0    0 -0.42301068591E+02 -0.17703086345E+02  0.15240163105E+03  0.15915098749E+03  0.00000000000E+00 0.  1.
         22    1    4    4    0    0  0.34183255415E+02  0.14924709270E+02  0.13930989791E+03  0.14421681439E+03  0.00000000000E+00 0.  1.
         22    1    4    4    0    0  0.81178131752E+01  0.27783770759E+01  0.36647700892E+02  0.37638706813E+02  0.00000000000E+00 0.  1.
<mgrwt>
<rscale>  0 0.92008995E+02</rscale>
<asrwt>0</asrwt>
<pdfrwt beam="1">  1        2 0.51489690E-01 0.92008995E+02</pdfrwt>
<pdfrwt beam="2">  1       -2 0.97286726E-03 0.92008995E+02</pdfrwt>
<totfact> 0.18261957E+05</totfact>
</mgrwt>
</event>
<event>
 7    1  0.3960685E-009  0.9448400E+02  0.7818608E-02  0.1292342E+00
         -2   -1    0    0    0  501 -0.00000000000E+00  0.00000000000E+00  0.49335051982E+02  0.49335052048E+02  0.25500000000E-02 0. -1.
          2   -1    0    0  501    0  0.00000000000E+00 -0.00000000000E+00 -0.45237745037E+02  0.45237745109E+02  0.25500000000E-02 0.  1.
         23    2    1    2    0    0  0.00000000000E+00  0.00000000000E+00  0.40973069446E+01  0.94572797157E+02  0.94483998846E+02 0.  0.
    9000005    2    3    3    0    0  0.34794899515E+02 -0.30511711378E+02 -0.33708272566E+01  0.47696122873E+02  0.11041199990E+02 0.  0.
         22    1    3    3    0    0 -0.34794899515E+02  0.30511711378E+02  0.74681342012E+01  0.46876674284E+02  0.00000000000E+00 0.  1.
         22    1    4    4    0    0  0.14490755494E+02 -0.11221469194E+02  0.39499719516E+01  0.18748483781E+02  0.00000000000E+00 0. -1.
         22    1    4    4    0    0  0.20304144021E+02 -0.19290242184E+02 -0.73207992082E+01  0.28947639092E+02  0.00000000000E+00 0. -1.
<mgrwt>
<rscale>  0 0.94483999E+02</rscale>
<asrwt>0</asrwt>
<pdfrwt beam="2">  1        2 0.69596531E-02 0.94483999E+02</pdfrwt>
<pdfrwt beam="1">  1       -2 0.75900080E-02 0.94483999E+02</pdfrwt>
<totfact> 0.88859363E+04</totfact>
</mgrwt>
</event>
<event>
 7    1  0.3960685E-009  0.9106009E+02  0.7818608E-02  0.1300305E+00
         -2   -1    0    0    0  501 -0.00000000000E+00  0.00000000000E+00  0.15377992053E+03  0.15377992055E+03  0.25500000000E-02 0.  1.
          2   -1    0    0  501    0  0.00000000000E+00 -0.00000000000E+00 -0.13480206968E+02  0.13480207210E+02  0.25500000000E-02 0. -1.
         23    2    1    2    0    0 -0.88817841970E-15  0.00000000000E+00  0.14029971356E+03  0.16726012776E+03  0.91060093965E+02 0.  0.
    9000005    2    3    3    0    0 -0.51554025373E+01  0.36502528403E+02  0.11721001101E+03  0.12376131032E+03  0.14821015296E+02 0.  0.
         22    1    3    3    0    0  0.51554025373E+01 -0.36502528403E+02  0.23089702544E+02  0.43498817440E+02  0.00000000000E+00 0. -1.
         22    1    4    4    0    0  0.45174860171E+01  0.15869684919E+02  0.40318597925E+02  0.43564250458E+02  0.00000000000E+00 0.  1.
         22    1    4    4    0    0 -0.96728885544E+01  0.20632843483E+02  0.76891413089E+02  0.80197059859E+02  0.00000000000E+00 0.  1.
<mgrwt>
<rscale>  0 0.91060094E+02</rscale>
<asrwt>0</asrwt>
<pdfrwt beam="2">  1        2 0.20738781E-02 0.91060094E+02</pdfrwt>
<pdfrwt beam="1">  1       -2 0.23658448E-01 0.91060094E+02</pdfrwt>
<totfact> 0.69447467E+04</totfact>
</mgrwt>
</event>
<event>
 7    1  0.3960685E-009  0.9210526E+02  0.7818608E-02  0.1297832E+00
          2   -1    0    0  501    0  0.00000000000E+00  0.00000000000E+00  0.11171372820E+02  0.11171373111E+02  0.25500000000E-02 0. -1.
         -2   -1    0    0    0  501 -0.00000000000E+00 -0.00000000000E+00 -0.18984636421E+03  0.18984636423E+03  0.25500000000E-02 0.  1.
         23    2    1    2    0    0  0.00000000000E+00  0.00000000000E+00 -0.17867499139E+03  0.20101773734E+03  0.92105255965E+02 0.  0.
    9000005    2    3    3    0    0 -0.29042381201E+02 -0.11363305947E+02 -0.16289383603E+03  0.16606592062E+03  0.84204242403E+01 0.  0.
         22    1    3    3    0    0  0.29042381201E+02  0.11363305947E+02 -0.15781155359E+02  0.34951816724E+02  0.00000000000E+00 0. -1.
         22    1    4    4    0    0 -0.19917740387E+02 -0.11823654542E+02 -0.11798874834E+03  0.12024084133E+03  0.00000000000E+00 0.  1.
         22    1    4    4    0    0 -0.91246408137E+01  0.46034859434E+00 -0.44905087693E+02  0.45825079286E+02  0.00000000000E+00 0.  1.
<mgrwt>
<rscale>  0 0.92105256E+02</rscale>
<asrwt>0</asrwt>
<pdfrwt beam="1">  1        2 0.17186729E-02 0.92105256E+02</pdfrwt>
<pdfrwt beam="2">  1       -2 0.29207131E-01 0.92105256E+02</pdfrwt>
<totfact> 0.62091482E+04</totfact>
</mgrwt>
</event>
<event>
 7    1  0.3960685E-009  0.8794768E+02  0.7818608E-02  0.1307899E+00
         -2   -1    0    0    0  501 -0.00000000000E+00  0.00000000000E+00  0.18255300382E+02  0.18255300561E+02  0.25500000000E-02 0.  1.
          2   -1    0    0  501    0  0.00000000000E+00 -0.00000000000E+00 -0.10592533036E+03  0.10592533039E+03  0.25500000000E-02 0. -1.
         23    2    1    2    0    0  0.00000000000E+00  0.00000000000E+00 -0.87670029976E+02  0.12418063095E+03  0.87947683011E+02 0.  0.
    9000005    2    3    3    0    0  0.15293871841E+02  0.82495538782E+01  0.11999417143E+02  0.23007727739E+02  0.91330098453E+01 0.  0.
         22    1    3    3    0    0 -0.15293871841E+02 -0.82495538782E+01 -0.99669447119E+02  0.10117290321E+03  0.00000000000E+00 0. -1.
         22    1    4    4    0    0  0.45739807514E+01  0.42183555582E+00  0.78597263825E+01  0.91035456805E+01  0.00000000000E+00 0. -1.
         22    1    4    4    0    0  0.10719891090E+02  0.78277183224E+01  0.41396907609E+01  0.13904182058E+02  0.00000000000E+00 0. -1.
<mgrwt>
<rscale>  0 0.87947683E+02</rscale>
<asrwt>0</asrwt>
<pdfrwt beam="2">  1        2 0.16296204E-01 0.87947683E+02</pdfrwt>
<pdfrwt beam="1">  1       -2 0.28085078E-02 0.87947683E+02</pdfrwt>
<totfact> 0.13781689E+05</totfact>
</mgrwt>
</event>
<event>
 7    1  0.3960685E-009  0.9071042E+02  0.7818608E-02  0.1301140E+00
         -2   -1    0    0    0  501 -0.00000000000E+00  0.00000000000E+00  0.30982875708E+02  0.30982875813E+02  0.25500000000E-02 0.  1.
          2   -1    0    0  501    0  0.00000000000E+00 -0.00000000000E+00 -0.66394584854E+02  0.66394584903E+02  0.25500000000E-02 0. -1.
         23    2    1    2    0    0  0.00000000000E+00 -0.35527136788E-14 -0.35411709147E+02  0.97377460716E+02  0.90710422283E+02 0.  0.
    9000005    2    3    3    0    0 -0.14343612534E+01  0.20448169492E+02  0.24146497022E+02  0.34390438641E+02  0.13396414584E+02 0.  0.
         22    1    3    3    0    0  0.14343612534E+01 -0.20448169492E+02 -0.59558206169E+02  0.62987022075E+02  0.00000000000E+00 0. -1.
         22    1    4    4    0    0 -0.19736263181E+01  0.10862104086E+02  0.34354211378E+01  0.11562120239E+02  0.00000000000E+00 0.  1.
         22    1    4    4    0    0  0.53926506468E+00  0.95860654054E+01  0.20711075885E+02  0.22828318402E+02  0.00000000000E+00 0.  1.
<mgrwt>
<rscale>  0 0.90710422E+02</rscale>
<asrwt>0</asrwt>
<pdfrwt beam="2">  1        2 0.10214551E-01 0.90710422E+02</pdfrwt>
<pdfrwt beam="1">  1       -2 0.47665963E-02 0.90710422E+02</pdfrwt>
<totfact> 0.11059879E+05</totfact>
</mgrwt>
</event>
<event>
 7    1  0.3960685E-009  0.8740547E+02  0.7818608E-02  0.1309259E+00
          2   -1    0    0  501    0  0.00000000000E+00  0.00000000000E+00  0.22286038518E+03  0.22286038519E+03  0.25500000000E-02 0. -1.
         -2   -1    0    0    0  501 -0.00000000000E+00 -0.00000000000E+00 -0.85700698147E+01  0.85700701941E+01  0.25500000000E-02 0.  1.
         23    2    1    2    0    0  0.00000000000E+00  0.00000000000E+00  0.21429031536E+03  0.23143045539E+03  0.87405471350E+02 0.  0.
    9000005    2    3    3    0    0  0.27104001379E+02 -0.32764527350E+02  0.94012092855E+02  0.10385697870E+03  0.11826126975E+02 0.  0.
         22    1    3    3    0    0 -0.27104001379E+02  0.32764527350E+02  0.12027822251E+03  0.12757347668E+03  0.00000000000E+00 0. -1.
         22    1    4    4    0    0  0.49381497958E+01 -0.60469435090E+01  0.30424395817E+02  0.31410105221E+02  0.00000000000E+00 0. -1.
         22    1    4    4    0    0  0.22165851583E+02 -0.26717583841E+02  0.63587697038E+02  0.72446873482E+02  0.00000000000E+00 0. -1.
<mgrwt>
<rscale>  0 0.87405471E+02</rscale>
<asrwt>0</asrwt>
<pdfrwt beam="1">  1        2 0.34286212E-01 0.87405471E+02</pdfrwt>
<pdfrwt beam="2">  1       -2 0.13184724E-02 0.87405471E+02</pdfrwt>
<totfact> 0.18016285E+05</totfact>
</mgrwt>
</event>
<event>
 7    1  0.3960685E-009  0.9064004E+02  0.7818608E-02  0.1301309E+00
          2   -1    0    0  501    0  0.00000000000E+00  0.00000000000E+00  0.65546804654E+03  0.65546804654E+03  0.25500000000E-02 0. -1.
         -2   -1    0    0    0  501 -0.00000000000E+00 -0.00000000000E+00 -0.31334916622E+01  0.31334926998E+01  0.25500000000E-02 0.  1.
         23    2    1    2    0    0  0.00000000000E+00  0.00000000000E+00  0.65233455488E+03  0.65860153924E+03  0.90640035348E+02 0.  0.
    9000005    2    3    3    0    0 -0.16437364351E+02  0.18721880913E+02  0.59915237187E+03  0.59987300818E+03  0.15600174717E+02 0.  0.
         22    1    3    3    0    0  0.16437364351E+02 -0.18721880913E+02  0.53182183001E+02  0.58728531060E+02  0.00000000000E+00 0.  1.
         22    1    4    4    0    0 -0.33916310263E+01  0.12871512913E+02  0.39304589855E+03  0.39327122622E+03  0.00000000000E+00 0.  1.
         22    1    4    4    0    0 -0.13045733325E+02  0.58503680000E+01  0.20610647332E+03  0.20660178196E+03  0.00000000000E+00 0.  1.
<mgrwt>
<rscale>  0 0.90640035E+02</rscale>
<asrwt>0</asrwt>
<pdfrwt beam="1">  1        2 0.10084123E+00 0.90640035E+02</pdfrwt>
<pdfrwt beam="2">  1       -2 0.48207578E-03 0.90640035E+02</pdfrwt>
<totfact> 0.23702146E+05</totfact>
</mgrwt>
</event>
<event>
 7    1  0.5359781E-009  0.9233584E+02  0.7818608E-02  0.1297292E+00
         -2   -1    0    0    0  501 -0.00000000000E+00  0.00000000000E+00  0.25245687793E+02  0.25245687922E+02  0.25500000000E-02 0. -1.
          2   -1    0    0  501    0  0.00000000000E+00 -0.00000000000E+00 -0.84429345005E+02  0.84429345043E+02  0.25500000000E-02 0.  1.
         23    2    1    2    0    0 -0.35527136788E-14 -0.35527136788E-14 -0.59183657212E+02  0.10967503297E+03  0.92335841226E+02 0.  0.
    9000005    2    3    3    0    0  0.28489717051E+02  0.25190072242E+02 -0.58602275421E+02  0.71641603959E+02  0.15877311359E+02 0.  0.
         22    1    3    3    0    0 -0.28489717051E+02 -0.25190072242E+02 -0.58138179043E+00  0.38033429006E+02  0.00000000000E+00 0.  1.
         22    1    4    4    0    0 -0.81022919560E+00 -0.18789886870E+00 -0.72727636178E+01  0.73201685755E+01  0.00000000000E+00 0.  1.
         22    1    4    4    0    0  0.29299946247E+02  0.25377971110E+02 -0.51329511804E+02  0.64321435383E+02  0.00000000000E+00 0.  1.
<mgrwt>
<rscale>  0 0.92335841E+02</rscale>
<asrwt>0</asrwt>
<pdfrwt beam="2">  1        2 0.12989130E-01 0.92335841E+02</pdfrwt>
<pdfrwt beam="1">  1       -2 0.38839520E-02 0.92335841E+02</pdfrwt>
<totfact> 0.11263082E+05</totfact>
</mgrwt>
</event>
<event>
 7    1  0.3960685E-009  0.9143860E+02  0.7818608E-02  0.1299405E+00
          2   -1    0    0  501    0  0.00000000000E+00  0.00000000000E+00  0.51149116497E+02  0.51149116561E+02  0.25500000000E-02 0. -1.
         -2   -1    0    0    0  501 -0.00000000000E+00 -0.00000000000E+00 -0.40865895709E+02  0.40865895789E+02  0.25500000000E-02 0.  1.
         23    2    1    2    0    0  0.00000000000E+00  0.00000000000E+00  0.10283220788E+02  0.92015012349E+02  0.91438601629E+02 0.  0.
    9000005    2    3    3    0    0 -0.41807544836E+02 -0.96580362328E+01  0.19510254640E+02  0.48125530434E+02  0.97091799003E+01 0.  0.
         22    1    3    3    0    0  0.41807544836E+02  0.96580362328E+01 -0.92270338521E+01  0.43889481915E+02  0.00000000000E+00 0. -1.
         22    1    4    4    0    0 -0.14110369715E+02 -0.71526828191E+01  0.10087903455E+02  0.18762441236E+02  0.00000000000E+00 0.  1.
         22    1    4    4    0    0 -0.27697175121E+02 -0.25053534137E+01  0.94223511847E+01  0.29363089198E+02  0.00000000000E+00 0.  1.
<mgrwt>
<rscale>  0 0.91438602E+02</rscale>
<asrwt>0</asrwt>
<pdfrwt beam="1">  1        2 0.78690948E-02 0.91438602E+02</pdfrwt>
<pdfrwt beam="2">  1       -2 0.62870609E-02 0.91438602E+02</pdfrwt>
<totfact> 0.10085231E+05</totfact>
</mgrwt>
</event>
<event>
 7    1  0.3960685E-009  0.9206935E+02  0.7818608E-02  0.1297916E+00
          2   -1    0    0  501    0  0.00000000000E+00  0.00000000000E+00  0.11994542838E+03  0.11994542840E+03  0.25500000000E-02 0.  1.
         -2   -1    0    0    0  501 -0.00000000000E+00 -0.00000000000E+00 -0.17667962374E+02  0.17667962558E+02  0.25500000000E-02 0. -1.
         23    2    1    2    0    0  0.00000000000E+00  0.00000000000E+00  0.10227746600E+03  0.13761339096E+03  0.92069350601E+02 0.  0.
    9000005    2    3    3    0    0 -0.22261558587E+02 -0.29841115460E+02  0.90874545933E+02  0.98676316743E+02  0.96313667158E+01 0.  0.
         22    1    3    3    0    0  0.22261558587E+02  0.29841115460E+02  0.11402920069E+02  0.38937074218E+02  0.00000000000E+00 0. -1.
         22    1    4    4    0    0 -0.18121824083E+02 -0.21998970157E+02  0.77991555741E+02  0.83036365304E+02  0.00000000000E+00 0. -1.
         22    1    4    4    0    0 -0.41397345042E+01 -0.78421453027E+01  0.12882990192E+02  0.15639951439E+02  0.00000000000E+00 0. -1.
<mgrwt>
<rscale>  0 0.92069351E+02</rscale>
<asrwt>0</asrwt>
<pdfrwt beam="1">  1        2 0.18453143E-01 0.92069351E+02</pdfrwt>
<pdfrwt beam="2">  1       -2 0.27181481E-02 0.92069351E+02</pdfrwt>
<totfact> 0.12642751E+05</totfact>
</mgrwt>
</event>
<event>
 7    1  0.3960685E-009  0.9469268E+02  0.7818608E-02  0.1291870E+00
          2   -1    0    0  501    0  0.00000000000E+00  0.00000000000E+00  0.68659746372E+02  0.68659746419E+02  0.25500000000E-02 0.  1.
         -2   -1    0    0    0  501 -0.00000000000E+00 -0.00000000000E+00 -0.32649055450E+02  0.32649055550E+02  0.25500000000E-02 0. -1.
         23    2    1    2    0    0 -0.71054273576E-14  0.00000000000E+00  0.36010690921E+02  0.10130880197E+03  0.94692679209E+02 0.  0.
    9000005    2    3    3    0    0 -0.35699772042E+02  0.80200551237E+01 -0.12309922306E+02  0.40697939323E+02  0.12883829786E+02 0.  0.
         22    1    3    3    0    0  0.35699772042E+02 -0.80200551237E+01  0.48320613227E+02  0.60610862646E+02  0.00000000000E+00 0.  1.
         22    1    4    4    0    0 -0.71490885420E+01 -0.29380111975E+01 -0.51553302919E+01  0.92907915269E+01  0.00000000000E+00 0. -1.
         22    1    4    4    0    0 -0.28550683500E+02  0.10958066321E+02 -0.71545920141E+01  0.31407147796E+02  0.00000000000E+00 0. -1.
<mgrwt>
<rscale>  0 0.94692679E+02</rscale>
<asrwt>0</asrwt>
<pdfrwt beam="1">  1        2 0.10563038E-01 0.94692679E+02</pdfrwt>
<pdfrwt beam="2">  1       -2 0.50229317E-02 0.94692679E+02</pdfrwt>
<totfact> 0.98924884E+04</totfact>
</mgrwt>
</event>
<event>
 7    1  0.3960685E-009  0.9114778E+02  0.7818608E-02  0.1300096E+00
          2   -1    0    0  501    0  0.00000000000E+00  0.00000000000E+00  0.29647418122E+03  0.29647418123E+03  0.25500000000E-02 0. -1.
         -2   -1    0    0    0  501 -0.00000000000E+00 -0.00000000000E+00 -0.70055990028E+01  0.70055994669E+01  0.25500000000E-02 0.  1.
         23    2    1    2    0    0 -0.17763568394E-14  0.35527136788E-14  0.28946858221E+03  0.30347978069E+03  0.91147776723E+02 0.  0.
    9000005    2    3    3    0    0  0.11100132608E+02 -0.21852447774E+02  0.27248589622E+03  0.27366109459E+03  0.64100416182E+01 0.  0.
         22    1    3    3    0    0 -0.11100132608E+02  0.21852447774E+02  0.16982685992E+02  0.29818686107E+02  0.00000000000E+00 0.  1.
         22    1    4    4    0    0  0.17376821396E+01 -0.95964604069E+01  0.12085822754E+03  0.12125107322E+03  0.00000000000E+00 0.  1.
         22    1    4    4    0    0  0.93624504688E+01 -0.12255987367E+02  0.15162766868E+03  0.15241002137E+03  0.00000000000E+00 0.  1.
<mgrwt>
<rscale>  0 0.91147777E+02</rscale>
<asrwt>0</asrwt>
<pdfrwt beam="1">  1        2 0.45611413E-01 0.91147777E+02</pdfrwt>
<pdfrwt beam="2">  1       -2 0.10777845E-02 0.91147777E+02</pdfrwt>
<totfact> 0.17902309E+05</totfact>
</mgrwt>
</event>
<event>
 7    1  0.3960685E-009  0.9347832E+02  0.7818608E-02  0.1294641E+00
         -2   -1    0    0    0  501 -0.00000000000E+00  0.00000000000E+00  0.12980548596E+03  0.12980548598E+03  0.25500000000E-02 0.  1.
          2   -1    0    0  501    0  0.00000000000E+00 -0.00000000000E+00 -0.16829405176E+02  0.16829405369E+02  0.25500000000E-02 0. -1.
         23    2    1    2    0    0 -0.35527136788E-14  0.00000000000E+00  0.11297608078E+03  0.14663489135E+03  0.93478321192E+02 0.  0.
    9000005    2    3    3    0    0 -0.29451331592E+02  0.34358907129E+02  0.51932209914E+02  0.70646276401E+02  0.15685232263E+02 0.  0.
         22    1    3    3    0    0  0.29451331592E+02 -0.34358907129E+02  0.61043870865E+02  0.75988614949E+02  0.00000000000E+00 0.  1.
         22    1    4    4    0    0 -0.27994165811E+01  0.14183157999E+02  0.14988249348E+02  0.20824176395E+02  0.00000000000E+00 0.  1.
         22    1    4    4    0    0 -0.26651915011E+02  0.20175749130E+02  0.36943960566E+02  0.49822100006E+02  0.00000000000E+00 0.  1.
<mgrwt>
<rscale>  0 0.93478321E+02</rscale>
<asrwt>0</asrwt>
<pdfrwt beam="2">  1        2 0.25891394E-02 0.93478321E+02</pdfrwt>
<pdfrwt beam="1">  1       -2 0.19970074E-01 0.93478321E+02</pdfrwt>
<totfact> 0.69010380E+04</totfact>
</mgrwt>
</event>
<event>
 7    1  0.3960685E-009  0.9010412E+02  0.7818608E-02  0.1302600E+00
          2   -1    0    0  501    0  0.00000000000E+00  0.00000000000E+00  0.59287235196E+01  0.59287240680E+01  0.25500000000E-02 0. -1.
         -2   -1    0    0    0  501 -0.00000000000E+00 -0.00000000000E+00 -0.34234826626E+03  0.34234826627E+03  0.25500000000E-02 0.  1.
         23    2    1    2    0    0  0.00000000000E+00  0.00000000000E+00 -0.33641954274E+03  0.34827699034E+03  0.90104124550E+02 0.  0.
    9000005    2    3    3    0    0 -0.26531926361E+01  0.16554966900E+02 -0.32939657338E+03  0.33009929909E+03  0.13503271812E+02 0.  0.
         22    1    3    3    0    0  0.26531926361E+01 -0.16554966900E+02 -0.70229693617E+01  0.18177691242E+02  0.00000000000E+00 0. -1.
         22    1    4    4    0    0 -0.36914260063E+01  0.18248925881E+02 -0.31683438456E+03  0.31738096535E+03  0.00000000000E+00 0. -1.
         22    1    4    4    0    0  0.10382333702E+01 -0.16939589805E+01 -0.12562188812E+02  0.12718333748E+02  0.00000000000E+00 0. -1.
<mgrwt>
<rscale>  0 0.90104125E+02</rscale>
<asrwt>0</asrwt>
<pdfrwt beam="1">  1        2 0.91211162E-03 0.90104125E+02</pdfrwt>
<pdfrwt beam="2">  1       -2 0.52668949E-01 0.90104125E+02</pdfrwt>
<totfact> 0.48657817E+04</totfact>
</mgrwt>
</event>
<event>
 7    1  0.3960685E-009  0.9099653E+02  0.7818608E-02  0.1300456E+00
         -2   -1    0    0    0  501 -0.00000000000E+00  0.00000000000E+00  0.14683057769E+02  0.14683057991E+02  0.25500000000E-02 0.  1.
          2   -1    0    0  501    0  0.00000000000E+00 -0.00000000000E+00 -0.14098509547E+03  0.14098509550E+03  0.25500000000E-02 0. -1.
         23    2    1    2    0    0  0.00000000000E+00  0.00000000000E+00 -0.12630203771E+03  0.15566815349E+03  0.90996534450E+02 0.  0.
    9000005    2    3    3    0    0  0.10259028119E+02 -0.39482704497E+02 -0.97549124789E+02  0.10575962102E+03  0.22658503784E+01 0.  0.
         22    1    3    3    0    0 -0.10259028119E+02  0.39482704497E+02 -0.28752912916E+02  0.49908532472E+02  0.00000000000E+00 0.  1.
         22    1    4    4    0    0  0.13930283053E+01 -0.47234568200E+01 -0.13752512177E+02  0.14607640581E+02  0.00000000000E+00 0.  1.
         22    1    4    4    0    0  0.88659998142E+01 -0.34759247677E+02 -0.83796612613E+02  0.91151980435E+02  0.00000000000E+00 0.  1.
<mgrwt>
<rscale>  0 0.90996534E+02</rscale>
<asrwt>0</asrwt>
<pdfrwt beam="2">  1        2 0.21690014E-01 0.90996534E+02</pdfrwt>
<pdfrwt beam="1">  1       -2 0.22589321E-02 0.90996534E+02</pdfrwt>
<totfact> 0.13765373E+05</totfact>
</mgrwt>
</event>
<event>
 7    1  0.3960685E-009  0.1010047E+03  0.7818608E-02  0.1278197E+00
         -2   -1    0    0    0  501 -0.00000000000E+00  0.00000000000E+00  0.43866682645E+01  0.43866690057E+01  0.25500000000E-02 0.  1.
          2   -1    0    0  501    0  0.00000000000E+00 -0.00000000000E+00 -0.58141821260E+03  0.58141821261E+03  0.25500000000E-02 0. -1.
         23    2    1    2    0    0  0.00000000000E+00  0.00000000000E+00 -0.57703154434E+03  0.58580488161E+03  0.10100473336E+03 0.  0.
    9000005    2    3    3    0    0  0.25785473199E+02  0.32234802615E+02 -0.45549025830E+03  0.45744500727E+03  0.89769788960E+01 0.  0.
         22    1    3    3    0    0 -0.25785473199E+02 -0.32234802615E+02 -0.12154128604E+03  0.12835987434E+03  0.00000000000E+00 0.  1.
         22    1    4    4    0    0  0.30493688943E+01  0.53591763609E+00 -0.44501349096E+02  0.44608922087E+02  0.00000000000E+00 0.  1.
         22    1    4    4    0    0  0.22736104304E+02  0.31698884978E+02 -0.41098890920E+03  0.41283608519E+03  0.00000000000E+00 0.  1.
<mgrwt>
<rscale>  0 0.10100473E+03</rscale>
<asrwt>0</asrwt>
<pdfrwt beam="2">  1        2 0.89448895E-01 0.10100473E+03</pdfrwt>
<pdfrwt beam="1">  1       -2 0.67487256E-03 0.10100473E+03</pdfrwt>
<totfact> 0.17203448E+05</totfact>
</mgrwt>
</event>
<event>
 7    1  0.3960685E-009  0.9058012E+02  0.7818608E-02  0.1301453E+00
          2   -1    0    0  501    0  0.00000000000E+00  0.00000000000E+00  0.56205833813E+03  0.56205833813E+03  0.25500000000E-02 0.  1.
         -2   -1    0    0    0  501 -0.00000000000E+00 -0.00000000000E+00 -0.36494244785E+01  0.36494253694E+01  0.25500000000E-02 0. -1.
         23    2    1    2    0    0  0.00000000000E+00  0.00000000000E+00  0.55840891365E+03  0.56570776350E+03  0.90580123894E+02 0.  0.
    9000005    2    3    3    0    0  0.33962509829E+01 -0.41181613480E+02  0.39120958308E+03  0.39347804495E+03  0.85190466350E+01 0.  0.
         22    1    3    3    0    0 -0.33962509829E+01  0.41181613480E+02  0.16719933057E+03  0.17222971855E+03  0.00000000000E+00 0. -1.
         22    1    4    4    0    0 -0.22705862407E+01 -0.69979921072E+01  0.55652831593E+02  0.56137020938E+02  0.00000000000E+00 0.  1.
         22    1    4    4    0    0  0.56668372235E+01 -0.34183621373E+02  0.33555675149E+03  0.33734102401E+03  0.00000000000E+00 0.  1.
<mgrwt>
<rscale>  0 0.90580124E+02</rscale>
<asrwt>0</asrwt>
<pdfrwt beam="1">  1        2 0.86470479E-01 0.90580124E+02</pdfrwt>
<pdfrwt beam="2">  1       -2 0.56145022E-03 0.90580124E+02</pdfrwt>
<totfact> 0.22745237E+05</totfact>
</mgrwt>
</event>
<event>
 7    1  0.3960685E-009  0.8976335E+02  0.7818608E-02  0.1303426E+00
         -2   -1    0    0    0  501 -0.00000000000E+00  0.00000000000E+00  0.19260932193E+02  0.19260932362E+02  0.25500000000E-02 0.  1.
          2   -1    0    0  501    0  0.00000000000E+00 -0.00000000000E+00 -0.10458293494E+03  0.10458293497E+03  0.25500000000E-02 0. -1.
         23    2    1    2    0    0  0.00000000000E+00  0.00000000000E+00 -0.85322002748E+02  0.12384386733E+03  0.89763351784E+02 0.  0.
    9000005    2    3    3    0    0 -0.21037787502E+02  0.13914750395E+01  0.11267400519E+02  0.24980135212E+02  0.72476296123E+01 0.  0.
         22    1    3    3    0    0  0.21037787502E+02 -0.13914750395E+01 -0.96589403267E+02  0.98863732123E+02  0.00000000000E+00 0. -1.
         22    1    4    4    0    0 -0.36638247606E+01  0.69137855694E+00  0.55308520536E+01  0.66702279290E+01  0.00000000000E+00 0.  1.
         22    1    4    4    0    0 -0.17373962741E+02  0.70009648254E+00  0.57365484653E+01  0.18309907283E+02  0.00000000000E+00 0.  1.
<mgrwt>
<rscale>  0 0.89763352E+02</rscale>
<asrwt>0</asrwt>
<pdfrwt beam="2">  1        2 0.16089682E-01 0.89763352E+02</pdfrwt>
<pdfrwt beam="1">  1       -2 0.29632204E-02 0.89763352E+02</pdfrwt>
<totfact> 0.12981848E+05</totfact>
</mgrwt>
</event>
<event>
 7    1  0.3960685E-009  0.9170419E+02  0.7818608E-02  0.1298776E+00
         -2   -1    0    0    0  501 -0.00000000000E+00  0.00000000000E+00  0.14881876376E+02  0.14881876594E+02  0.25500000000E-02 0.  1.
          2   -1    0    0  501    0  0.00000000000E+00 -0.00000000000E+00 -0.14127347557E+03  0.14127347559E+03  0.25500000000E-02 0. -1.
         23    2    1    2    0    0  0.00000000000E+00 -0.35527136788E-14 -0.12639159919E+03  0.15615535219E+03  0.91704185672E+02 0.  0.
    9000005    2    3    3    0    0  0.21732425800E+02 -0.28863493664E+02 -0.15478388023E+02  0.39505705767E+02  0.39649331316E+01 0.  0.
         22    1    3    3    0    0 -0.21732425800E+02  0.28863493664E+02 -0.11091321117E+03  0.11664964642E+03  0.00000000000E+00 0. -1.
         22    1    4    4    0    0  0.82187039080E+01 -0.13884812011E+02 -0.59764808284E+01  0.17206202997E+02  0.00000000000E+00 0. -1.
         22    1    4    4    0    0  0.13513721892E+02 -0.14978681653E+02 -0.95019071943E+01  0.22299502769E+02  0.00000000000E+00 0. -1.
<mgrwt>
<rscale>  0 0.91704186E+02</rscale>
<asrwt>0</asrwt>
<pdfrwt beam="2">  1        2 0.21734380E-01 0.91704186E+02</pdfrwt>
<pdfrwt beam="1">  1       -2 0.22895196E-02 0.91704186E+02</pdfrwt>
<totfact> 0.13487375E+05</totfact>
</mgrwt>
</event>
<event>
 6    1  0.3960685E-009  0.1299232E+03  0.7818608E-02  0.1227570E+00
          2   -1    0    0  501    0  0.00000000000E+00  0.00000000000E+00  0.24595528624E+03  0.24595528626E+03  0.25500000000E-02 0. -1.
         -2   -1    0    0    0  501 -0.00000000000E+00 -0.00000000000E+00 -0.17157640634E+02  0.17157640824E+02  0.25500000000E-02 0.  1.
    9000005    2    1    2    0    0  0.51316756871E+02 -0.31081880274E+02  0.68467090255E+02  0.91924785560E+02  0.12764440262E+02 0.  0.
         22    1    1    2    0    0 -0.51316756871E+02  0.31081880274E+02  0.16033055536E+03  0.17118814152E+03  0.00000000000E+00 0. -1.
         22    1    3    3    0    0  0.39468037985E+02 -0.26962438710E+02  0.60339223953E+02  0.76977406236E+02  0.00000000000E+00 0. -1.
         22    1    3    3    0    0  0.11848718886E+02 -0.41194415633E+01  0.81278663016E+01  0.14947379324E+02  0.00000000000E+00 0. -1.
<mgrwt>
<rscale>  0 0.12992325E+03</rscale>
<asrwt>0</asrwt>
<pdfrwt beam="1">  1        2 0.37839275E-01 0.12992325E+03</pdfrwt>
<pdfrwt beam="2">  1       -2 0.26396370E-02 0.12992325E+03</pdfrwt>
<totfact> 0.63280010E+04</totfact>
</mgrwt>
</event>
<event>
 6    1  0.4583934E-009  0.1637561E+03  0.7818608E-02  0.1184520E+00
          2   -1    0    0  501    0  0.00000000000E+00  0.00000000000E+00  0.46048609904E+03  0.46048609905E+03  0.25500000000E-02 0. -1.
         -2   -1    0    0    0  501 -0.00000000000E+00 -0.00000000000E+00 -0.14558562699E+02  0.14558562922E+02  0.25500000000E-02 0.  1.
    9000005    2    1    2    0    0 -0.66835097387E+02  0.80618350216E+01  0.35703434194E+03  0.36353715802E+03  0.12402439645E+02 0.  0.
         22    1    1    2    0    0  0.66835097387E+02 -0.80618350216E+01  0.88893194405E+02  0.11150750395E+03  0.00000000000E+00 0.  1.
         22    1    3    3    0    0 -0.51314302029E+02  0.11785431849E+01  0.27816882275E+03  0.28286470353E+03  0.00000000000E+00 0. -1.
         22    1    3    3    0    0 -0.15520795358E+02  0.68832918366E+01  0.78865519191E+02  0.80672454484E+02  0.00000000000E+00 0. -1.
<mgrwt>
<rscale>  0 0.16375611E+03</rscale>
<asrwt>0</asrwt>
<pdfrwt beam="1">  1        2 0.70844009E-01 0.16375611E+03</pdfrwt>
<pdfrwt beam="2">  1       -2 0.22397791E-02 0.16375611E+03</pdfrwt>
<totfact> 0.42270289E+04</totfact>
</mgrwt>
</event>
<event>
 7    1  0.3960685E-009  0.9115893E+02  0.7818608E-02  0.1300069E+00
         -2   -1    0    0    0  501 -0.00000000000E+00  0.00000000000E+00  0.10939375900E+02  0.10939376197E+02  0.25500000000E-02 0. -1.
          2   -1    0    0  501    0  0.00000000000E+00 -0.00000000000E+00 -0.18990916498E+03  0.18990916500E+03  0.25500000000E-02 0.  1.
         23    2    1    2    0    0 -0.71054273576E-14  0.00000000000E+00 -0.17896978908E+03  0.20084854120E+03  0.91158933169E+02 0.  0.
    9000005    2    3    3    0    0 -0.44127223511E+02  0.41817778775E+01 -0.74393228360E+02  0.87266165039E+02  0.10785731952E+02 0.  0.
         22    1    3    3    0    0  0.44127223511E+02 -0.41817778775E+01 -0.10457656072E+03  0.11358237616E+03  0.00000000000E+00 0. -1.
         22    1    4    4    0    0 -0.43575204178E+02  0.37210890037E+01 -0.68110836857E+02  0.80942763852E+02  0.00000000000E+00 0.  1.
         22    1    4    4    0    0 -0.55201933328E+00  0.46068887375E+00 -0.62823915029E+01  0.63234011876E+01  0.00000000000E+00 0.  1.
<mgrwt>
<rscale>  0 0.91158933E+02</rscale>
<asrwt>0</asrwt>
<pdfrwt beam="2">  1        2 0.29216792E-01 0.91158933E+02</pdfrwt>
<pdfrwt beam="1">  1       -2 0.16829811E-02 0.91158933E+02</pdfrwt>
<totfact> 0.15190289E+05</totfact>
</mgrwt>
</event>
<event>
 7    1  0.3960685E-009  0.9869066E+02  0.7818608E-02  0.1283074E+00
         -2   -1    0    0    0  501 -0.00000000000E+00  0.00000000000E+00  0.73450246667E+01  0.73450251093E+01  0.25500000000E-02 0. -1.
          2   -1    0    0  501    0  0.00000000000E+00 -0.00000000000E+00 -0.33151167811E+03  0.33151167812E+03  0.25500000000E-02 0.  1.
         23    2    1    2    0    0 -0.17763568394E-14  0.00000000000E+00 -0.32416665344E+03  0.33885670323E+03  0.98690658720E+02 0.  0.
    9000005    2    3    3    0    0 -0.15630914884E+02 -0.21843080450E+02 -0.30318457887E+03  0.30477308374E+03  0.15630036702E+02 0.  0.
         22    1    3    3    0    0  0.15630914884E+02  0.21843080450E+02 -0.20982074571E+02  0.34083619481E+02  0.00000000000E+00 0. -1.
         22    1    4    4    0    0  0.10460640974E+00  0.24658485818E+00  0.94277676649E-01  0.28396280312E+00  0.00000000000E+00 0. -1.
         22    1    4    4    0    0 -0.15735521293E+02 -0.22089665308E+02 -0.30327885655E+03  0.30448912094E+03  0.00000000000E+00 0. -1.
<mgrwt>
<rscale>  0 0.98690659E+02</rscale>
<asrwt>0</asrwt>
<pdfrwt beam="2">  1        2 0.51001785E-01 0.98690659E+02</pdfrwt>
<pdfrwt beam="1">  1       -2 0.11300041E-02 0.98690659E+02</pdfrwt>
<totfact> 0.15083714E+05</totfact>
</mgrwt>
</event>
<event>
 7    1  0.3960685E-009  0.9154217E+02  0.7818608E-02  0.1299160E+00
         -2   -1    0    0    0  501 -0.00000000000E+00  0.00000000000E+00  0.14559111000E+02  0.14559111223E+02  0.25500000000E-02 0. -1.
          2   -1    0    0  501    0  0.00000000000E+00 -0.00000000000E+00 -0.14389560459E+03  0.14389560461E+03  0.25500000000E-02 0.  1.
         23    2    1    2    0    0  0.00000000000E+00  0.00000000000E+00 -0.12933649359E+03  0.15845471583E+03  0.91542167311E+02 0.  0.
    9000005    2    3    3    0    0  0.42550097460E+02 -0.14519876568E+02 -0.73713273405E+02  0.86933528532E+02  0.10121961152E+02 0.  0.
         22    1    3    3    0    0 -0.42550097460E+02  0.14519876568E+02 -0.55623220182E+02  0.71521187300E+02  0.00000000000E+00 0. -1.
         22    1    4    4    0    0  0.14625210400E+01 -0.11661546679E+01 -0.85300891687E+01  0.87327719384E+01  0.00000000000E+00 0. -1.
         22    1    4    4    0    0  0.41087576420E+02 -0.13353721900E+02 -0.65183184236E+02  0.78200756593E+02  0.00000000000E+00 0. -1.
<mgrwt>
<rscale>  0 0.91542167E+02</rscale>
<asrwt>0</asrwt>
<pdfrwt beam="2">  1        2 0.22137784E-01 0.91542167E+02</pdfrwt>
<pdfrwt beam="1">  1       -2 0.22398633E-02 0.91542167E+02</pdfrwt>
<totfact> 0.13636568E+05</totfact>
</mgrwt>
</event>
<event>
 7    1  0.3960685E-009  0.8796912E+02  0.7818608E-02  0.1307846E+00
         -2   -1    0    0    0  501 -0.00000000000E+00  0.00000000000E+00  0.11742877266E+02  0.11742877543E+02  0.25500000000E-02 0.  1.
          2   -1    0    0  501    0  0.00000000000E+00 -0.00000000000E+00 -0.16475021771E+03  0.16475021773E+03  0.25500000000E-02 0. -1.
         23    2    1    2    0    0  0.00000000000E+00  0.00000000000E+00 -0.15300734045E+03  0.17649309528E+03  0.87969122135E+02 0.  0.
    9000005    2    3    3    0    0  0.10487373610E+02 -0.41952536958E+02 -0.67317755270E+02  0.80510256339E+02  0.89566086659E+01 0.  0.
         22    1    3    3    0    0 -0.10487373610E+02  0.41952536958E+02 -0.85689585179E+02  0.95982838938E+02  0.00000000000E+00 0. -1.
         22    1    4    4    0    0  0.77698317561E+01 -0.30382684055E+02 -0.55515893796E+02  0.63761212660E+02  0.00000000000E+00 0.  1.
         22    1    4    4    0    0  0.27175418541E+01 -0.11569852902E+02 -0.11801861473E+02  0.16749043679E+02  0.00000000000E+00 0.  1.
<mgrwt>
<rscale>  0 0.87969122E+02</rscale>
<asrwt>0</asrwt>
<pdfrwt beam="2">  1        2 0.25346186E-01 0.87969122E+02</pdfrwt>
<pdfrwt beam="1">  1       -2 0.18065966E-02 0.87969122E+02</pdfrwt>
<totfact> 0.15904231E+05</totfact>
</mgrwt>
</event>
<event>
 7    1  0.3960685E-009  0.9030443E+02  0.7818608E-02  0.1302116E+00
          2   -1    0    0  501    0  0.00000000000E+00  0.00000000000E+00  0.93054915252E+03  0.93054915253E+03  0.25500000000E-02 0. -1.
         -2   -1    0    0    0  501 -0.00000000000E+00 -0.00000000000E+00 -0.21908804705E+01  0.21908819545E+01  0.25500000000E-02 0.  1.
         23    2    1    2    0    0  0.00000000000E+00  0.00000000000E+00  0.92835827205E+03  0.93274003448E+03  0.90304433088E+02 0.  0.
    9000005    2    3    3    0    0 -0.19008227375E+02  0.23777759491E+02  0.80853385546E+03  0.80910919137E+03  0.19983981907E+01 0.  0.
         22    1    3    3    0    0  0.19008227375E+02 -0.23777759491E+02  0.11982441660E+03  0.12363084311E+03  0.00000000000E+00 0.  1.
         22    1    4    4    0    0 -0.97417692411E+01  0.13048687283E+02  0.45439580493E+03  0.45468749471E+03  0.00000000000E+00 0.  1.
         22    1    4    4    0    0 -0.92664581335E+01  0.10729072208E+02  0.35413805053E+03  0.35442169667E+03  0.00000000000E+00 0.  1.
<mgrwt>
<rscale>  0 0.90304433E+02</rscale>
<asrwt>0</asrwt>
<pdfrwt beam="1">  1        2 0.14316158E+00 0.90304433E+02</pdfrwt>
<pdfrwt beam="2">  1       -2 0.33705825E-03 0.90304433E+02</pdfrwt>
<totfact> 0.25516577E+05</totfact>
</mgrwt>
</event>
<event>
 7    1  0.3960685E-009  0.9122024E+02  0.7818608E-02  0.1299923E+00
         -2   -1    0    0    0  501 -0.00000000000E+00  0.00000000000E+00  0.40254612047E+02  0.40254612128E+02  0.25500000000E-02 0.  1.
          2   -1    0    0  501    0  0.00000000000E+00 -0.00000000000E+00 -0.51678126366E+02  0.51678126429E+02  0.25500000000E-02 0. -1.
         23    2    1    2    0    0 -0.33306690739E-15 -0.71054273576E-14 -0.11423514318E+02  0.91932738556E+02  0.91220237552E+02 0.  0.
    9000005    2    3    3    0    0  0.62486418737E+00  0.33350036745E+02 -0.36112633348E+02  0.50433726464E+02  0.11261575004E+02 0.  0.
         22    1    3    3    0    0 -0.62486418737E+00 -0.33350036745E+02  0.24689119030E+02  0.41499012092E+02  0.00000000000E+00 0.  1.
         22    1    4    4    0    0 -0.29449947596E+01  0.25239824862E+02 -0.31410688388E+02  0.40402389758E+02  0.00000000000E+00 0.  1.
         22    1    4    4    0    0  0.35698589470E+01  0.81102118838E+01 -0.47019449602E+01  0.10031336706E+02  0.00000000000E+00 0.  1.
<mgrwt>
<rscale>  0 0.91220238E+02</rscale>
<asrwt>0</asrwt>
<pdfrwt beam="2">  1        2 0.79504810E-02 0.91220238E+02</pdfrwt>
<pdfrwt beam="1">  1       -2 0.61930172E-02 0.91220238E+02</pdfrwt>
<totfact> 0.10181684E+05</totfact>
</mgrwt>
</event>
<event>
 7    1  0.3960685E-009  0.9019705E+02  0.7818608E-02  0.1302375E+00
         -2   -1    0    0    0  501 -0.00000000000E+00  0.00000000000E+00  0.33901495988E+01  0.33901505578E+01  0.25500000000E-02 0.  1.
          2   -1    0    0  501    0  0.00000000000E+00 -0.00000000000E+00 -0.59993709946E+03  0.59993709946E+03  0.25500000000E-02 0. -1.
         23    2    1    2    0    0  0.00000000000E+00 -0.22204460493E-15 -0.59654694986E+03  0.60332725002E+03  0.90197046691E+02 0.  0.
    9000005    2    3    3    0    0 -0.20729658876E+02 -0.19275331233E+01 -0.56488095158E+03  0.56543042181E+03  0.13698113550E+02 0.  0.
         22    1    3    3    0    0  0.20729658876E+02  0.19275331233E+01 -0.31665998278E+02  0.37896828205E+02  0.00000000000E+00 0.  1.
         22    1    4    4    0    0 -0.79104672672E+01 -0.20406671746E+00 -0.38655905669E+03  0.38664004118E+03  0.00000000000E+00 0.  1.
         22    1    4    4    0    0 -0.12819191609E+02 -0.17234664059E+01 -0.17832189489E+03  0.17879038063E+03  0.00000000000E+00 0.  1.
<mgrwt>
<rscale>  0 0.90197047E+02</rscale>
<asrwt>0</asrwt>
<pdfrwt beam="2">  1        2 0.92297931E-01 0.90197047E+02</pdfrwt>
<pdfrwt beam="1">  1       -2 0.52156203E-03 0.90197047E+02</pdfrwt>
<totfact> 0.23443324E+05</totfact>
</mgrwt>
</event>
<event>
 7    1  0.3960685E-009  0.9107163E+02  0.7818608E-02  0.1300277E+00
          2   -1    0    0  501    0  0.00000000000E+00  0.00000000000E+00  0.44317863265E+03  0.44317863266E+03  0.25500000000E-02 0. -1.
         -2   -1    0    0    0  501 -0.00000000000E+00 -0.00000000000E+00 -0.46787236364E+01  0.46787243313E+01  0.25500000000E-02 0.  1.
         23    2    1    2    0    0  0.00000000000E+00  0.17763568394E-14  0.43849990902E+03  0.44785735699E+03  0.91071631170E+02 0.  0.
    9000005    2    3    3    0    0  0.94513266420E+01  0.15896335289E+02  0.42329351004E+03  0.42391459982E+03  0.13570970983E+02 0.  0.
         22    1    3    3    0    0 -0.94513266420E+01 -0.15896335289E+02  0.15206398982E+02  0.23942757170E+02  0.00000000000E+00 0.  1.
         22    1    4    4    0    0 -0.19320365484E+00  0.57322799942E+00  0.66704167421E+00  0.90047908732E+00  0.00000000000E+00 0.  1.
         22    1    4    4    0    0  0.96445302968E+01  0.15323107289E+02  0.42262646836E+03  0.42301412074E+03  0.00000000000E+00 0.  1.
<mgrwt>
<rscale>  0 0.91071631E+02</rscale>
<asrwt>0</asrwt>
<pdfrwt beam="1">  1        2 0.68181342E-01 0.91071631E+02</pdfrwt>
<pdfrwt beam="2">  1       -2 0.71980354E-03 0.91071631E+02</pdfrwt>
<totfact> 0.20758492E+05</totfact>
</mgrwt>
</event>
<event>
 7    1  0.3960685E-009  0.9108319E+02  0.7818608E-02  0.1300250E+00
         -2   -1    0    0    0  501 -0.00000000000E+00  0.00000000000E+00  0.39175643795E+02  0.39175643878E+02  0.25500000000E-02 0.  1.
          2   -1    0    0  501    0  0.00000000000E+00 -0.00000000000E+00 -0.52941997252E+02  0.52941997313E+02  0.25500000000E-02 0. -1.
         23    2    1    2    0    0  0.00000000000E+00  0.88817841970E-15 -0.13766353457E+02  0.92117641191E+02  0.91083189070E+02 0.  0.
    9000005    2    3    3    0    0 -0.21745797573E+02 -0.79659526186E+01  0.32465630669E+02  0.40409494159E+02  0.65248701330E+01 0.  0.
         22    1    3    3    0    0  0.21745797573E+02  0.79659526186E+01 -0.46231984126E+02  0.51708147032E+02  0.00000000000E+00 0. -1.
         22    1    4    4    0    0 -0.58030085058E+01 -0.10676981315E+01  0.13258471936E+02  0.14512131653E+02  0.00000000000E+00 0.  1.
         22    1    4    4    0    0 -0.15942789067E+02 -0.68982544871E+01  0.19207158733E+02  0.25897362507E+02  0.00000000000E+00 0.  1.
<mgrwt>
<rscale>  0 0.91083189E+02</rscale>
<asrwt>0</asrwt>
<pdfrwt beam="2">  1        2 0.81449227E-02 0.91083189E+02</pdfrwt>
<pdfrwt beam="1">  1       -2 0.60270221E-02 0.91083189E+02</pdfrwt>
<totfact> 0.10290430E+05</totfact>
</mgrwt>
</event>
<event>
 7    1  0.3960685E-009  0.9071485E+02  0.7818608E-02  0.1301130E+00
          2   -1    0    0  501    0  0.00000000000E+00  0.00000000000E+00  0.97630924249E+03  0.97630924249E+03  0.25500000000E-02 0. -1.
         -2   -1    0    0    0  501 -0.00000000000E+00 -0.00000000000E+00 -0.21072169921E+01  0.21072185350E+01  0.25500000000E-02 0.  1.
         23    2    1    2    0    0 -0.17763568394E-14  0.17763568394E-14  0.97420202549E+03  0.97841646102E+03  0.90714853949E+02 0.  0.
    9000005    2    3    3    0    0 -0.13339029877E+02  0.15304353251E+02  0.92376486898E+03  0.92404680310E+03  0.10431116687E+02 0.  0.
         22    1    3    3    0    0  0.13339029877E+02 -0.15304353251E+02  0.50437156510E+02  0.54369657929E+02  0.00000000000E+00 0.  1.
         22    1    4    4    0    0 -0.12544511650E+02  0.67734647591E+01  0.57957153276E+03  0.57974684663E+03  0.00000000000E+00 0.  1.
         22    1    4    4    0    0 -0.79451822694E+00  0.85308884922E+01  0.34419333623E+03  0.34429995646E+03  0.00000000000E+00 0.  1.
<mgrwt>
<rscale>  0 0.90714854E+02</rscale>
<asrwt>0</asrwt>
<pdfrwt beam="1">  1        2 0.15020169E+00 0.90714854E+02</pdfrwt>
<pdfrwt beam="2">  1       -2 0.32418678E-03 0.90714854E+02</pdfrwt>
<totfact> 0.25306432E+05</totfact>
</mgrwt>
</event>
<event>
 7    1  0.3960685E-009  0.9000560E+02  0.7818608E-02  0.1302838E+00
          2   -1    0    0  501    0  0.00000000000E+00  0.00000000000E+00  0.44338351315E+02  0.44338351389E+02  0.25500000000E-02 0. -1.
         -2   -1    0    0    0  501 -0.00000000000E+00 -0.00000000000E+00 -0.45677210904E+02  0.45677210975E+02  0.25500000000E-02 0.  1.
         23    2    1    2    0    0  0.00000000000E+00  0.00000000000E+00 -0.13388595888E+01  0.90015562364E+02  0.90005604952E+02 0.  0.
    9000005    2    3    3    0    0  0.17074666252E+02  0.27182917124E+01  0.40430593237E+02  0.44809141063E+02  0.86193338417E+01 0.  0.
         22    1    3    3    0    0 -0.17074666252E+02 -0.27182917124E+01 -0.41769452826E+02  0.45206421301E+02  0.00000000000E+00 0.  1.
         22    1    4    4    0    0 -0.15709010959E+00  0.83981659275E-01 -0.38645677803E+00  0.42553385636E+00  0.00000000000E+00 0.  1.
         22    1    4    4    0    0  0.17231756362E+02  0.26343100531E+01  0.40817050015E+02  0.44383607207E+02  0.00000000000E+00 0.  1.
<mgrwt>
<rscale>  0 0.90005605E+02</rscale>
<asrwt>0</asrwt>
<pdfrwt beam="1">  1        2 0.68212848E-02 0.90005605E+02</pdfrwt>
<pdfrwt beam="2">  1       -2 0.70272632E-02 0.90005605E+02</pdfrwt>
<totfact> 0.10166805E+05</totfact>
</mgrwt>
</event>
<event>
 7    1  0.3960685E-009  0.9083341E+02  0.7818608E-02  0.1300846E+00
          2   -1    0    0  501    0  0.00000000000E+00  0.00000000000E+00  0.14782917727E+04  0.14782917727E+04  0.25500000000E-02 0. -1.
         -2   -1    0    0    0  501 -0.00000000000E+00 -0.00000000000E+00 -0.13953101017E+01  0.13953124318E+01  0.25500000000E-02 0.  1.
         23    2    1    2    0    0  0.00000000000E+00  0.35527136788E-14  0.14768964626E+04  0.14796870851E+04  0.90833411676E+02 0.  0.
    9000005    2    3    3    0    0  0.16875590270E+01 -0.29342601977E+02  0.13005234402E+04  0.13008819421E+04  0.82929257438E+01 0.  0.
         22    1    3    3    0    0 -0.16875590270E+01  0.29342601977E+02  0.17637302232E+03  0.17880514296E+03  0.00000000000E+00 0.  1.
         22    1    4    4    0    0 -0.11549488323E+01 -0.11024323149E+01  0.30840574237E+02  0.30881876288E+02  0.00000000000E+00 0. -1.
         22    1    4    4    0    0  0.28425078593E+01 -0.28240169663E+02  0.12696828660E+04  0.12700000658E+04  0.00000000000E+00 0. -1.
<mgrwt>
<rscale>  0 0.90833412E+02</rscale>
<asrwt>0</asrwt>
<pdfrwt beam="1">  1        2 0.22742954E+00 0.90833412E+02</pdfrwt>
<pdfrwt beam="2">  1       -2 0.21466323E-03 0.90833412E+02</pdfrwt>
<totfact> 0.23960370E+05</totfact>
</mgrwt>
</event>
<event>
 7    1  0.3960685E-009  0.9016330E+02  0.7818608E-02  0.1302457E+00
          2   -1    0    0  501    0  0.00000000000E+00  0.00000000000E+00  0.30897586827E+03  0.30897586828E+03  0.25500000000E-02 0. -1.
         -2   -1    0    0    0  501 -0.00000000000E+00 -0.00000000000E+00 -0.65777151498E+01  0.65777156441E+01  0.25500000000E-02 0.  1.
         23    2    1    2    0    0  0.00000000000E+00  0.00000000000E+00  0.30239815312E+03  0.31555358392E+03  0.90163303606E+02 0.  0.
    9000005    2    3    3    0    0 -0.40754364713E+02  0.18675072865E+02  0.15262613881E+03  0.15921634313E+03  0.67401098661E+01 0.  0.
         22    1    3    3    0    0  0.40754364713E+02 -0.18675072865E+02  0.14977201431E+03  0.15633724079E+03  0.00000000000E+00 0. -1.
         22    1    4    4    0    0 -0.17959267133E+02  0.80786114427E+01  0.78989213416E+02  0.81406971906E+02  0.00000000000E+00 0. -1.
         22    1    4    4    0    0 -0.22795097580E+02  0.10596461422E+02  0.73636925397E+02  0.77809371224E+02  0.00000000000E+00 0. -1.
<mgrwt>
<rscale>  0 0.90163304E+02</rscale>
<asrwt>0</asrwt>
<pdfrwt beam="1">  1        2 0.47534760E-01 0.90163304E+02</pdfrwt>
<pdfrwt beam="2">  1       -2 0.10119560E-02 0.90163304E+02</pdfrwt>
<totfact> 0.18713157E+05</totfact>
</mgrwt>
</event>
<event>
 7    1  0.3960685E-009  0.9126962E+02  0.7818608E-02  0.1299806E+00
         -2   -1    0    0    0  501 -0.00000000000E+00  0.00000000000E+00  0.15015423604E+02  0.15015423821E+02  0.25500000000E-02 0.  1.
          2   -1    0    0  501    0  0.00000000000E+00 -0.00000000000E+00 -0.13869312290E+03  0.13869312292E+03  0.25500000000E-02 0. -1.
         23    2    1    2    0    0  0.00000000000E+00  0.71054273576E-14 -0.12367769929E+03  0.15370854674E+03  0.91269622761E+02 0.  0.
    9000005    2    3    3    0    0  0.20073448712E+01 -0.37472300880E+02 -0.10466358613E+03  0.11164027763E+03  0.10044031143E+02 0.  0.
         22    1    3    3    0    0 -0.20073448712E+01  0.37472300880E+02 -0.19014113168E+02  0.42068269113E+02  0.00000000000E+00 0.  1.
         22    1    4    4    0    0  0.24686313187E+01 -0.41569006168E+01 -0.75045496635E+01  0.89270504075E+01  0.00000000000E+00 0.  1.
         22    1    4    4    0    0 -0.46128644752E+00 -0.33315400263E+02 -0.97159036462E+02  0.10271322722E+03  0.00000000000E+00 0.  1.
<mgrwt>
<rscale>  0 0.91269623E+02</rscale>
<asrwt>0</asrwt>
<pdfrwt beam="2">  1        2 0.21337403E-01 0.91269623E+02</pdfrwt>
<pdfrwt beam="1">  1       -2 0.23100653E-02 0.91269623E+02</pdfrwt>
<totfact> 0.13578947E+05</totfact>
</mgrwt>
</event>
<event>
 7    1  0.3960685E-009  0.9337745E+02  0.7818608E-02  0.1294873E+00
          2   -1    0    0  501    0  0.00000000000E+00  0.00000000000E+00  0.27815916186E+02  0.27815916303E+02  0.25500000000E-02 0. -1.
         -2   -1    0    0    0  501 -0.00000000000E+00 -0.00000000000E+00 -0.78366538388E+02  0.78366538430E+02  0.25500000000E-02 0.  1.
         23    2    1    2    0    0  0.00000000000E+00 -0.35527136788E-14 -0.50550622202E+02  0.10618245473E+03  0.93377450641E+02 0.  0.
    9000005    2    3    3    0    0  0.40472682692E+02 -0.20960990644E+02 -0.34935577966E+02  0.58003301778E+02  0.81539705836E+01 0.  0.
         22    1    3    3    0    0 -0.40472682692E+02  0.20960990644E+02 -0.15615044236E+02  0.48179152956E+02  0.00000000000E+00 0. -1.
         22    1    4    4    0    0  0.38821317276E+02 -0.18675151865E+02 -0.30639152074E+02  0.52864105138E+02  0.00000000000E+00 0.  1.
         22    1    4    4    0    0  0.16513654157E+01 -0.22858387791E+01 -0.42964258915E+01  0.51391966396E+01  0.00000000000E+00 0.  1.
<mgrwt>
<rscale>  0 0.93377451E+02</rscale>
<asrwt>0</asrwt>
<pdfrwt beam="1">  1        2 0.42793718E-02 0.93377451E+02</pdfrwt>
<pdfrwt beam="2">  1       -2 0.12056390E-01 0.93377451E+02</pdfrwt>
<totfact> 0.80697889E+04</totfact>
</mgrwt>
</event>
<event>
 7    1  0.3960685E-009  0.8946935E+02  0.7818608E-02  0.1304142E+00
         -2   -1    0    0    0  501 -0.00000000000E+00  0.00000000000E+00  0.48316793717E+01  0.48316800446E+01  0.25500000000E-02 0.  1.
          2   -1    0    0  501    0  0.00000000000E+00 -0.00000000000E+00 -0.41418120640E+03  0.41418120640E+03  0.25500000000E-02 0. -1.
         23    2    1    2    0    0  0.00000000000E+00  0.00000000000E+00 -0.40934952702E+03  0.41901288645E+03  0.89469345224E+02 0.  0.
    9000005    2    3    3    0    0  0.33249447210E+02  0.35262885512E+01 -0.34231660720E+03  0.34410378960E+03  0.10430627979E+02 0.  0.
         22    1    3    3    0    0 -0.33249447210E+02 -0.35262885512E+01 -0.67032919820E+02  0.74909096846E+02  0.00000000000E+00 0.  1.
         22    1    4    4    0    0  0.32839287007E+02  0.44858088634E+01 -0.30931647882E+03  0.31108716676E+03  0.00000000000E+00 0.  1.
         22    1    4    4    0    0  0.41016020342E+00 -0.95952031215E+00 -0.33000128381E+02  0.33016622841E+02  0.00000000000E+00 0.  1.
<mgrwt>
<rscale>  0 0.89469345E+02</rscale>
<asrwt>0</asrwt>
<pdfrwt beam="2">  1        2 0.63720158E-01 0.89469345E+02</pdfrwt>
<pdfrwt beam="1">  1       -2 0.74333567E-03 0.89469345E+02</pdfrwt>
<totfact> 0.21249570E+05</totfact>
</mgrwt>
</event>
<event>
 7    1  0.3960685E-009  0.9036899E+02  0.7818608E-02  0.1301961E+00
         -2   -1    0    0    0  501 -0.00000000000E+00  0.00000000000E+00  0.48876500730E+01  0.48876507382E+01  0.25500000000E-02 0.  1.
          2   -1    0    0  501    0  0.00000000000E+00 -0.00000000000E+00 -0.41771367789E+03  0.41771367789E+03  0.25500000000E-02 0. -1.
         23    2    1    2    0    0  0.00000000000E+00  0.00000000000E+00 -0.41282602781E+03  0.42260132863E+03  0.90368986504E+02 0.  0.
    9000005    2    3    3    0    0  0.80080735735E+01 -0.83279695388E+01 -0.41032208163E+03  0.41077956626E+03  0.15561396615E+02 0.  0.
         22    1    3    3    0    0 -0.80080735735E+01  0.83279695388E+01 -0.25039461779E+01  0.11821762367E+02  0.00000000000E+00 0.  1.
         22    1    4    4    0    0  0.42699644173E+01 -0.57389406712E+00 -0.25513073250E+02  0.25874289501E+02  0.00000000000E+00 0.  1.
         22    1    4    4    0    0  0.37381091561E+01 -0.77540754717E+01 -0.38480900838E+03  0.38490527676E+03  0.00000000000E+00 0.  1.
<mgrwt>
<rscale>  0 0.90368987E+02</rscale>
<asrwt>0</asrwt>
<pdfrwt beam="2">  1        2 0.64263614E-01 0.90368987E+02</pdfrwt>
<pdfrwt beam="1">  1       -2 0.75194655E-03 0.90368987E+02</pdfrwt>
<totfact> 0.20756041E+05</totfact>
</mgrwt>
</event>
<event>
 7    1  0.3960685E-009  0.9407244E+02  0.7818608E-02  0.1293279E+00
         -2   -1    0    0    0  501 -0.00000000000E+00  0.00000000000E+00  0.11852506106E+03  0.11852506108E+03  0.25500000000E-02 0.  1.
          2   -1    0    0  501    0  0.00000000000E+00 -0.00000000000E+00 -0.18666145494E+02  0.18666145668E+02  0.25500000000E-02 0. -1.
         23    2    1    2    0    0  0.35527136788E-14  0.00000000000E+00  0.99858915563E+02  0.13719120675E+03  0.94072441198E+02 0.  0.
    9000005    2    3    3    0    0  0.21467389727E+02  0.39300413872E+02  0.70758558341E+02  0.83785194519E+02  0.27953336072E+01 0.  0.
         22    1    3    3    0    0 -0.21467389727E+02 -0.39300413872E+02  0.29100357222E+02  0.53406012233E+02  0.00000000000E+00 0.  1.
         22    1    4    4    0    0  0.39986376386E+01  0.76556535172E+01  0.15769083407E+02  0.17979491796E+02  0.00000000000E+00 0.  1.
         22    1    4    4    0    0  0.17468752088E+02  0.31644760355E+02  0.54989474934E+02  0.65805702724E+02  0.00000000000E+00 0.  1.
<mgrwt>
<rscale>  0 0.94072441E+02</rscale>
<asrwt>0</asrwt>
<pdfrwt beam="2">  1        2 0.28717147E-02 0.94072441E+02</pdfrwt>
<pdfrwt beam="1">  1       -2 0.18234625E-01 0.94072441E+02</pdfrwt>
<totfact> 0.70003007E+04</totfact>
</mgrwt>
</event>
<event>
 7    1  0.3960685E-009  0.8933651E+02  0.7818608E-02  0.1304466E+00
         -2   -1    0    0    0  501 -0.00000000000E+00  0.00000000000E+00  0.38757020605E+02  0.38757020689E+02  0.25500000000E-02 0.  1.
          2   -1    0    0  501    0  0.00000000000E+00 -0.00000000000E+00 -0.51481076434E+02  0.51481076497E+02  0.25500000000E-02 0. -1.
         23    2    1    2    0    0  0.00000000000E+00  0.17763568394E-14 -0.12724055828E+02  0.90238097186E+02  0.89336513179E+02 0.  0.
    9000005    2    3    3    0    0 -0.25141174819E+02  0.12805309595E+02 -0.40917153898E+02  0.50351941644E+02  0.80653530044E+01 0.  0.
         22    1    3    3    0    0  0.25141174819E+02 -0.12805309595E+02  0.28193098070E+02  0.39886155542E+02  0.00000000000E+00 0.  1.
         22    1    4    4    0    0 -0.47193958055E+00  0.24069724196E+01 -0.48499321238E+01  0.54348951050E+01  0.00000000000E+00 0. -1.
         22    1    4    4    0    0 -0.24669235239E+02  0.10398337175E+02 -0.36067221775E+02  0.44917046539E+02  0.00000000000E+00 0. -1.
<mgrwt>
<rscale>  0 0.89336513E+02</rscale>
<asrwt>0</asrwt>
<pdfrwt beam="2">  1        2 0.79201656E-02 0.89336513E+02</pdfrwt>
<pdfrwt beam="1">  1       -2 0.59626186E-02 0.89336513E+02</pdfrwt>
<totfact> 0.10792229E+05</totfact>
</mgrwt>
</event>
<event>
 7    1  0.3960685E-009  0.9287582E+02  0.7818608E-02  0.1296033E+00
         -2   -1    0    0    0  501 -0.00000000000E+00  0.00000000000E+00  0.10151923706E+02  0.10151924027E+02  0.25500000000E-02 0.  1.
          2   -1    0    0  501    0  0.00000000000E+00 -0.00000000000E+00 -0.21242075666E+03  0.21242075667E+03  0.25500000000E-02 0. -1.
         23    2    1    2    0    0  0.17763568394E-14  0.00000000000E+00 -0.20226883295E+03  0.22257268070E+03  0.92875817145E+02 0.  0.
    9000005    2    3    3    0    0  0.14819334831E+02 -0.28196258769E+02 -0.20333358834E+02  0.37869788368E+02  0.24563583215E+01 0.  0.
         22    1    3    3    0    0 -0.14819334831E+02  0.28196258769E+02 -0.18193547412E+03  0.18470289233E+03  0.00000000000E+00 0. -1.
         22    1    4    4    0    0  0.75732955898E+01 -0.13640062586E+02 -0.85653805654E+01  0.17798085787E+02  0.00000000000E+00 0. -1.
         22    1    4    4    0    0  0.72460392407E+01 -0.14556196183E+02 -0.11767978268E+02  0.20071702581E+02  0.00000000000E+00 0. -1.
<mgrwt>
<rscale>  0 0.92875817E+02</rscale>
<asrwt>0</asrwt>
<pdfrwt beam="2">  1        2 0.32680113E-01 0.92875817E+02</pdfrwt>
<pdfrwt beam="1">  1       -2 0.15618346E-02 0.92875817E+02</pdfrwt>
<totfact> 0.15043236E+05</totfact>
</mgrwt>
</event>
<event>
 7    1  0.3960685E-009  0.9147922E+02  0.7818608E-02  0.1299309E+00
         -2   -1    0    0    0  501 -0.00000000000E+00  0.00000000000E+00  0.14814228483E+03  0.14814228486E+03  0.25500000000E-02 0.  1.
          2   -1    0    0  501    0  0.00000000000E+00 -0.00000000000E+00 -0.14122313464E+02  0.14122313694E+02  0.25500000000E-02 0. -1.
         23    2    1    2    0    0  0.00000000000E+00  0.00000000000E+00  0.13401997137E+03  0.16226459855E+03  0.91479217402E+02 0.  0.
    9000005    2    3    3    0    0  0.17154421558E+02  0.26103525371E+02  0.12501853604E+03  0.12975776767E+03  0.15224181483E+02 0.  0.
         22    1    3    3    0    0 -0.17154421558E+02 -0.26103525371E+02  0.90014353315E+01  0.32506830879E+02  0.00000000000E+00 0. -1.
         22    1    4    4    0    0  0.17328938667E+02  0.13049660034E+02  0.78297469869E+02  0.81247027823E+02  0.00000000000E+00 0.  1.
         22    1    4    4    0    0 -0.17451710845E+00  0.13053865337E+02  0.46721066170E+02  0.48510739847E+02  0.00000000000E+00 0.  1.
<mgrwt>
<rscale>  0 0.91479217E+02</rscale>
<asrwt>0</asrwt>
<pdfrwt beam="2">  1        2 0.21726637E-02 0.91479217E+02</pdfrwt>
<pdfrwt beam="1">  1       -2 0.22791120E-01 0.91479217E+02</pdfrwt>
<totfact> 0.69587061E+04</totfact>
</mgrwt>
</event>
<event>
 7    1  0.3960685E-009  0.9418837E+02  0.7818608E-02  0.1293015E+00
         -2   -1    0    0    0  501 -0.00000000000E+00  0.00000000000E+00  0.13986514704E+03  0.13986514706E+03  0.25500000000E-02 0.  1.
          2   -1    0    0  501    0  0.00000000000E+00 -0.00000000000E+00 -0.15857147030E+02  0.15857147235E+02  0.25500000000E-02 0. -1.
         23    2    1    2    0    0 -0.35527136788E-14 -0.71054273576E-14  0.12400800001E+03  0.15572229430E+03  0.94188369107E+02 0.  0.
    9000005    2    3    3    0    0  0.22608048665E+02  0.36448535393E+02  0.93588728631E+02  0.10313948657E+03  0.62676923507E+01 0.  0.
         22    1    3    3    0    0 -0.22608048665E+02 -0.36448535393E+02  0.30419271376E+02  0.52582807721E+02  0.00000000000E+00 0. -1.
         22    1    4    4    0    0  0.15517582240E+02  0.29551932500E+02  0.69527477611E+02  0.77124459259E+02  0.00000000000E+00 0. -1.
         22    1    4    4    0    0  0.70904664254E+01  0.68966028934E+01  0.24061251020E+02  0.26015027316E+02  0.00000000000E+00 0. -1.
<mgrwt>
<rscale>  0 0.94188369E+02</rscale>
<asrwt>0</asrwt>
<pdfrwt beam="2">  1        2 0.24395613E-02 0.94188369E+02</pdfrwt>
<pdfrwt beam="1">  1       -2 0.21517713E-01 0.94188369E+02</pdfrwt>
<totfact> 0.65976135E+04</totfact>
</mgrwt>
</event>
<event>
 7    1  0.3960685E-009  0.9090959E+02  0.7818608E-02  0.1300664E+00
         -2   -1    0    0    0  501 -0.00000000000E+00  0.00000000000E+00  0.11170147627E+02  0.11170147918E+02  0.25500000000E-02 0.  1.
          2   -1    0    0  501    0  0.00000000000E+00 -0.00000000000E+00 -0.18496966941E+03  0.18496966943E+03  0.25500000000E-02 0. -1.
         23    2    1    2    0    0  0.71054273576E-14  0.35527136788E-14 -0.17379952179E+03  0.19613981735E+03  0.90909593424E+02 0.  0.
    9000005    2    3    3    0    0  0.41247858399E+02  0.16309879860E+02 -0.83004629364E+02  0.95089777797E+02  0.13597769745E+02 0.  0.
         22    1    3    3    0    0 -0.41247858399E+02 -0.16309879860E+02 -0.90794892423E+02  0.10105003955E+03  0.00000000000E+00 0. -1.
         22    1    4    4    0    0  0.39396080646E+02  0.14316630824E+02 -0.82170186446E+02  0.92244005925E+02  0.00000000000E+00 0.  1.
         22    1    4    4    0    0  0.18517777523E+01  0.19932490363E+01 -0.83444291806E+00  0.28457718721E+01  0.00000000000E+00 0.  1.
<mgrwt>
<rscale>  0 0.90909593E+02</rscale>
<asrwt>0</asrwt>
<pdfrwt beam="2">  1        2 0.28456870E-01 0.90909593E+02</pdfrwt>
<pdfrwt beam="1">  1       -2 0.17184844E-02 0.90909593E+02</pdfrwt>
<totfact> 0.15159330E+05</totfact>
</mgrwt>
</event>
<event>
 7    1  0.3960685E-009  0.9031824E+02  0.7818608E-02  0.1302083E+00
         -2   -1    0    0    0  501 -0.00000000000E+00  0.00000000000E+00  0.80621248377E+01  0.80621252410E+01  0.25500000000E-02 0. -1.
          2   -1    0    0  501    0  0.00000000000E+00 -0.00000000000E+00 -0.25295391115E+03  0.25295391116E+03  0.25500000000E-02 0.  1.
         23    2    1    2    0    0  0.71054273576E-14  0.00000000000E+00 -0.24489178631E+03  0.26101603640E+03  0.90318238782E+02 0.  0.
    9000005    2    3    3    0    0  0.41196866495E+02  0.12897487802E+02 -0.93473034378E+02  0.10356393118E+03  0.11169274192E+02 0.  0.
         22    1    3    3    0    0 -0.41196866495E+02 -0.12897487802E+02 -0.15141875193E+03  0.15745210522E+03  0.00000000000E+00 0.  1.
         22    1    4    4    0    0  0.31918950307E+02  0.11164827210E+02 -0.60984806491E+02  0.69732484382E+02  0.00000000000E+00 0. -1.
         22    1    4    4    0    0  0.92779161878E+01  0.17326605914E+01 -0.32488227887E+02  0.33831446802E+02  0.00000000000E+00 0. -1.
<mgrwt>
<rscale>  0 0.90318239E+02</rscale>
<asrwt>0</asrwt>
<pdfrwt beam="2">  1        2 0.38915980E-01 0.90318239E+02</pdfrwt>
<pdfrwt beam="1">  1       -2 0.12403271E-02 0.90318239E+02</pdfrwt>
<totfact> 0.17291276E+05</totfact>
</mgrwt>
</event>
<event>
 7    1  0.3960685E-009  0.9116859E+02  0.7818608E-02  0.1300046E+00
         -2   -1    0    0    0  501 -0.00000000000E+00  0.00000000000E+00  0.45211528149E+02  0.45211528221E+02  0.25500000000E-02 0.  1.
          2   -1    0    0  501    0  0.00000000000E+00 -0.00000000000E+00 -0.45960130827E+02  0.45960130898E+02  0.25500000000E-02 0. -1.
         23    2    1    2    0    0  0.00000000000E+00  0.00000000000E+00 -0.74860267871E+00  0.91171659119E+02  0.91168585711E+02 0.  0.
    9000005    2    3    3    0    0  0.59171150396E+01  0.44166481481E+02  0.42728356705E+01  0.46328541699E+02  0.11932573675E+02 0.  0.
         22    1    3    3    0    0 -0.59171150396E+01 -0.44166481481E+02 -0.50214383492E+01  0.44843117419E+02  0.00000000000E+00 0.  1.
         22    1    4    4    0    0  0.41275441025E+01  0.35803605459E+02  0.81306604720E+01  0.36946480534E+02  0.00000000000E+00 0.  1.
         22    1    4    4    0    0  0.17895709371E+01  0.83628760220E+01 -0.38578248015E+01  0.93820611647E+01  0.00000000000E+00 0.  1.
<mgrwt>
<rscale>  0 0.91168586E+02</rscale>
<asrwt>0</asrwt>
<pdfrwt beam="2">  1        2 0.70707894E-02 0.91168586E+02</pdfrwt>
<pdfrwt beam="1">  1       -2 0.69556197E-02 0.91168586E+02</pdfrwt>
<totfact> 0.98908571E+04</totfact>
</mgrwt>
</event>
<event>
 7    1  0.3960685E-009  0.9974491E+02  0.7818608E-02  0.1280833E+00
         -2   -1    0    0    0  501 -0.00000000000E+00  0.00000000000E+00  0.32224397353E+03  0.32224397354E+03  0.25500000000E-02 0.  1.
          2   -1    0    0  501    0  0.00000000000E+00 -0.00000000000E+00 -0.77185676629E+01  0.77185680841E+01  0.25500000000E-02 0. -1.
         23    2    1    2    0    0  0.00000000000E+00 -0.44408920985E-15  0.31452540586E+03  0.32996254162E+03  0.99744914352E+02 0.  0.
    9000005    2    3    3    0    0  0.48203778085E+02  0.30014814127E+01  0.12939159380E+03  0.13863261327E+03  0.12008488847E+02 0.  0.
         22    1    3    3    0    0 -0.48203778085E+02 -0.30014814127E+01  0.18513381207E+03  0.19132992835E+03  0.00000000000E+00 0.  1.
         22    1    4    4    0    0  0.25757087130E+02 -0.43968261665E+01  0.67121147796E+02  0.72027828644E+02  0.00000000000E+00 0.  1.
         22    1    4    4    0    0  0.22446690956E+02  0.73983075792E+01  0.62270446003E+02  0.66604784628E+02  0.00000000000E+00 0.  1.
<mgrwt>
<rscale>  0 0.99744914E+02</rscale>
<asrwt>0</asrwt>
<pdfrwt beam="2">  1        2 0.11874723E-02 0.99744914E+02</pdfrwt>
<pdfrwt beam="1">  1       -2 0.49575984E-01 0.99744914E+02</pdfrwt>
<totfact> 0.38804495E+04</totfact>
</mgrwt>
</event>
<event>
 7    1  0.3960685E-009  0.9264793E+02  0.7818608E-02  0.1296563E+00
          2   -1    0    0  501    0  0.00000000000E+00  0.00000000000E+00  0.58564816150E+02  0.58564816205E+02  0.25500000000E-02 0. -1.
         -2   -1    0    0    0  501 -0.00000000000E+00 -0.00000000000E+00 -0.36641616454E+02  0.36641616543E+02  0.25500000000E-02 0.  1.
         23    2    1    2    0    0  0.17763568394E-14  0.00000000000E+00  0.21923199696E+02  0.95206432748E+02  0.92647925782E+02 0.  0.
    9000005    2    3    3    0    0 -0.11091792455E+02  0.39935789038E+02  0.31634749151E+02  0.52636381083E+02  0.72066742423E+01 0.  0.
         22    1    3    3    0    0  0.11091792455E+02 -0.39935789038E+02 -0.97115494552E+01  0.42570051665E+02  0.00000000000E+00 0.  1.
         22    1    4    4    0    0 -0.10436798669E+02  0.27531351885E+02  0.24555942602E+02  0.38339228215E+02  0.00000000000E+00 0. -1.
         22    1    4    4    0    0 -0.65499378612E+00  0.12404437153E+02  0.70788065496E+01  0.14297152868E+02  0.00000000000E+00 0. -1.
<mgrwt>
<rscale>  0 0.92647926E+02</rscale>
<asrwt>0</asrwt>
<pdfrwt beam="1">  1        2 0.90099716E-02 0.92647926E+02</pdfrwt>
<pdfrwt beam="2">  1       -2 0.56371718E-02 0.92647926E+02</pdfrwt>
<totfact> 0.10071494E+05</totfact>
</mgrwt>
</event>
<event>
 7    1  0.3960685E-009  0.9118802E+02  0.7818608E-02  0.1300000E+00
         -2   -1    0    0    0  501 -0.00000000000E+00  0.00000000000E+00  0.34586987385E+02  0.34586987479E+02  0.25500000000E-02 0.  1.
          2   -1    0    0  501    0  0.00000000000E+00 -0.00000000000E+00 -0.60103921898E+02  0.60103921952E+02  0.25500000000E-02 0. -1.
         23    2    1    2    0    0  0.17763568394E-14  0.00000000000E+00 -0.25516934513E+02  0.94690909431E+02  0.91188016658E+02 0.  0.
    9000005    2    3    3    0    0  0.91295882291E+01  0.17041539842E+02 -0.54461627288E+02  0.59883457624E+02  0.15690640163E+02 0.  0.
         22    1    3    3    0    0 -0.91295882291E+01 -0.17041539842E+02  0.28944692776E+02  0.34807451807E+02  0.00000000000E+00 0.  1.
         22    1    4    4    0    0  0.72591281148E+01  0.14857529419E+01 -0.29465201116E+02  0.30382568680E+02  0.00000000000E+00 0. -1.
         22    1    4    4    0    0  0.18704601143E+01  0.15555786900E+02 -0.24996426173E+02  0.29500888944E+02  0.00000000000E+00 0. -1.
<mgrwt>
<rscale>  0 0.91188017E+02</rscale>
<asrwt>0</asrwt>
<pdfrwt beam="2">  1        2 0.92467572E-02 0.91188017E+02</pdfrwt>
<pdfrwt beam="1">  1       -2 0.53210750E-02 0.91188017E+02</pdfrwt>
<totfact> 0.10608187E+05</totfact>
</mgrwt>
</event>
<event>
 7    1  0.3960685E-009  0.8808768E+02  0.7818608E-02  0.1307550E+00
         -2   -1    0    0    0  501 -0.00000000000E+00  0.00000000000E+00  0.63056071780E+01  0.63056076936E+01  0.25500000000E-02 0.  1.
          2   -1    0    0  501    0  0.00000000000E+00 -0.00000000000E+00 -0.30764043213E+03  0.30764043214E+03  0.25500000000E-02 0. -1.
         23    2    1    2    0    0  0.00000000000E+00  0.00000000000E+00 -0.30133482495E+03  0.31394603983E+03  0.88087679040E+02 0.  0.
    9000005    2    3    3    0    0  0.92638979694E+01 -0.41731637674E+02 -0.13779296542E+03  0.14490968514E+03  0.13585512139E+02 0.  0.
         22    1    3    3    0    0 -0.92638979694E+01  0.41731637674E+02 -0.16354185953E+03  0.16903635469E+03  0.00000000000E+00 0. -1.
         22    1    4    4    0    0  0.30271591293E+01 -0.10465274434E+02 -0.18888830155E+02  0.21805356361E+02  0.00000000000E+00 0. -1.
         22    1    4    4    0    0  0.62367388401E+01 -0.31266363240E+02 -0.11890413526E+03  0.12310432878E+03  0.00000000000E+00 0. -1.
<mgrwt>
<rscale>  0 0.88087679E+02</rscale>
<asrwt>0</asrwt>
<pdfrwt beam="2">  1        2 0.47329286E-01 0.88087679E+02</pdfrwt>
<pdfrwt beam="1">  1       -2 0.97009369E-03 0.88087679E+02</pdfrwt>
<totfact> 0.19876527E+05</totfact>
</mgrwt>
</event>
<event>
 7    1  0.3960685E-009  0.9188770E+02  0.7818608E-02  0.1298344E+00
         -2   -1    0    0    0  501 -0.00000000000E+00  0.00000000000E+00  0.61603285683E+02  0.61603285735E+02  0.25500000000E-02 0.  1.
          2   -1    0    0  501    0  0.00000000000E+00 -0.00000000000E+00 -0.34265009257E+02  0.34265009352E+02  0.25500000000E-02 0. -1.
         23    2    1    2    0    0  0.00000000000E+00  0.00000000000E+00  0.27338276426E+02  0.95868295087E+02  0.91887695831E+02 0.  0.
    9000005    2    3    3    0    0 -0.16921945051E+01  0.16511914292E+02  0.57982307829E+02  0.61017706907E+02  0.92577372625E+01 0.  0.
         22    1    3    3    0    0  0.16921945051E+01 -0.16511914292E+02 -0.30644031404E+02  0.34850588180E+02  0.00000000000E+00 0. -1.
         22    1    4    4    0    0  0.85666097258E+00  0.72895479877E+01  0.39804274534E+02  0.40475321482E+02  0.00000000000E+00 0.  1.
         22    1    4    4    0    0 -0.25488554777E+01  0.92223663039E+01  0.18178033296E+02  0.20542385426E+02  0.00000000000E+00 0.  1.
<mgrwt>
<rscale>  0 0.91887696E+02</rscale>
<asrwt>0</asrwt>
<pdfrwt beam="2">  1        2 0.52715400E-02 0.91887696E+02</pdfrwt>
<pdfrwt beam="1">  1       -2 0.94774285E-02 0.91887696E+02</pdfrwt>
<totfact> 0.89560152E+04</totfact>
</mgrwt>
</event>
<event>
 7    1  0.3960685E-009  0.9107718E+02  0.7818608E-02  0.1300264E+00
         -2   -1    0    0    0  501 -0.00000000000E+00  0.00000000000E+00  0.41799216990E+01  0.41799224769E+01  0.25500000000E-02 0.  1.
          2   -1    0    0  501    0  0.00000000000E+00 -0.00000000000E+00 -0.49612478727E+03  0.49612478728E+03  0.25500000000E-02 0. -1.
         23    2    1    2    0    0  0.00000000000E+00  0.00000000000E+00 -0.49194486557E+03  0.50030470976E+03  0.91077175186E+02 0.  0.
    9000005    2    3    3    0    0  0.19391735893E+02 -0.40471533253E+02 -0.22563477442E+03  0.23023981186E+03  0.92377006628E+01 0.  0.
         22    1    3    3    0    0 -0.19391735893E+02  0.40471533253E+02 -0.26631009115E+03  0.27006489790E+03  0.00000000000E+00 0. -1.
         22    1    4    4    0    0  0.19370417678E+02 -0.39173703059E+02 -0.22356885751E+03  0.22779996958E+03  0.00000000000E+00 0.  1.
         22    1    4    4    0    0  0.21318214486E-01 -0.12978301937E+01 -0.20659169112E+01  0.24398422821E+01  0.00000000000E+00 0.  1.
<mgrwt>
<rscale>  0 0.91077175E+02</rscale>
<asrwt>0</asrwt>
<pdfrwt beam="2">  1        2 0.76326844E-01 0.91077175E+02</pdfrwt>
<pdfrwt beam="1">  1       -2 0.64306533E-03 0.91077175E+02</pdfrwt>
<totfact> 0.21557485E+05</totfact>
</mgrwt>
</event>
<event>
 7    1  0.3960685E-009  0.9270040E+02  0.7818608E-02  0.1296441E+00
          2   -1    0    0  501    0  0.00000000000E+00  0.00000000000E+00  0.23891421575E+03  0.23891421576E+03  0.25500000000E-02 0. -1.
         -2   -1    0    0    0  501 -0.00000000000E+00 -0.00000000000E+00 -0.89921011755E+01  0.89921015370E+01  0.25500000000E-02 0.  1.
         23    2    1    2    0    0  0.00000000000E+00  0.88817841970E-15  0.22992211457E+03  0.24790631730E+03  0.92700395830E+02 0.  0.
    9000005    2    3    3    0    0  0.89995994092E+01 -0.44395194801E+01  0.23585486427E+03  0.23624871713E+03  0.92324005372E+01 0.  0.
         22    1    3    3    0    0 -0.89995994092E+01  0.44395194801E+01 -0.59327497015E+01  0.11657600172E+02  0.00000000000E+00 0.  1.
         22    1    4    4    0    0  0.79851522302E+01 -0.69481001452E+01  0.20589683838E+03  0.20616873382E+03  0.00000000000E+00 0.  1.
         22    1    4    4    0    0  0.10144471789E+01  0.25085806651E+01  0.29958025896E+02  0.30079983305E+02  0.00000000000E+00 0.  1.
<mgrwt>
<rscale>  0 0.92700396E+02</rscale>
<asrwt>0</asrwt>
<pdfrwt beam="1">  1        2 0.36756027E-01 0.92700396E+02</pdfrwt>
<pdfrwt beam="2">  1       -2 0.13834004E-02 0.92700396E+02</pdfrwt>
<totfact> 0.15788614E+05</totfact>
</mgrwt>
</event>
<event>
 7    1  0.3960685E-009  0.1203207E+03  0.7818608E-02  0.1242569E+00
         -2   -1    0    0    0  501 -0.00000000000E+00  0.00000000000E+00  0.47575676659E+02  0.47575676728E+02  0.25500000000E-02 0.  1.
          2   -1    0    0  501    0  0.00000000000E+00 -0.00000000000E+00 -0.76073924753E+02  0.76073924796E+02  0.25500000000E-02 0. -1.
         23    2    1    2    0    0  0.00000000000E+00  0.00000000000E+00 -0.28498248094E+02  0.12364960152E+03  0.12032071232E+03 0.  0.
    9000005    2    3    3    0    0 -0.10233948025E+01 -0.44675962690E+02 -0.54662487630E+02  0.71865854945E+02  0.13406139409E+02 0.  0.
         22    1    3    3    0    0  0.10233948025E+01  0.44675962690E+02  0.26164239537E+02  0.51783746578E+02  0.00000000000E+00 0.  1.
         22    1    4    4    0    0 -0.20537172261E+01 -0.17749875496E+02 -0.12419507047E+02  0.21760514467E+02  0.00000000000E+00 0. -1.
         22    1    4    4    0    0  0.10303224236E+01 -0.26926087194E+02 -0.42242980583E+02  0.50105340478E+02  0.00000000000E+00 0. -1.
<mgrwt>
<rscale>  0 0.12032071E+03</rscale>
<asrwt>0</asrwt>
<pdfrwt beam="2">  1        2 0.11703681E-01 0.12032071E+03</pdfrwt>
<pdfrwt beam="1">  1       -2 0.73193349E-02 0.12032071E+03</pdfrwt>
<totfact> 0.51265377E+04</totfact>
</mgrwt>
</event>
<event>
 7    1  0.3960685E-009  0.9121606E+02  0.7818608E-02  0.1299933E+00
         -2   -1    0    0    0  501 -0.00000000000E+00  0.00000000000E+00  0.13520789873E+03  0.13520789875E+03  0.25500000000E-02 0.  1.
          2   -1    0    0  501    0  0.00000000000E+00 -0.00000000000E+00 -0.15384398636E+02  0.15384398848E+02  0.25500000000E-02 0. -1.
         23    2    1    2    0    0  0.00000000000E+00  0.00000000000E+00  0.11982350009E+03  0.15059229760E+03  0.91216056273E+02 0.  0.
    9000005    2    3    3    0    0 -0.38917501448E+02  0.64230889889E+00  0.25373351173E+02  0.48436460221E+02  0.13685731596E+02 0.  0.
         22    1    3    3    0    0  0.38917501448E+02 -0.64230889889E+00  0.94450148917E+02  0.10215583738E+03  0.00000000000E+00 0.  1.
         22    1    4    4    0    0 -0.20805177907E+02  0.71699675401E+01  0.13498927304E+02  0.25816368851E+02  0.00000000000E+00 0. -1.
         22    1    4    4    0    0 -0.18112323541E+02 -0.65276586412E+01  0.11874423868E+02  0.22620091370E+02  0.00000000000E+00 0. -1.
<mgrwt>
<rscale>  0 0.91216056E+02</rscale>
<asrwt>0</asrwt>
<pdfrwt beam="2">  1        2 0.23668305E-02 0.91216056E+02</pdfrwt>
<pdfrwt beam="1">  1       -2 0.20801216E-01 0.91216056E+02</pdfrwt>
<totfact> 0.72392755E+04</totfact>
</mgrwt>
</event>
<event>
 7    1  0.3960685E-009  0.9003167E+02  0.7818608E-02  0.1302775E+00
          2   -1    0    0  501    0  0.00000000000E+00  0.00000000000E+00  0.52070881937E+03  0.52070881937E+03  0.25500000000E-02 0. -1.
         -2   -1    0    0    0  501 -0.00000000000E+00 -0.00000000000E+00 -0.38916669515E+01  0.38916677870E+01  0.25500000000E-02 0.  1.
         23    2    1    2    0    0  0.00000000000E+00  0.35527136788E-14  0.51681715242E+03  0.52460048716E+03  0.90031672749E+02 0.  0.
    9000005    2    3    3    0    0 -0.13493344455E+02 -0.21000801617E+02  0.47635095350E+03  0.47705453815E+03  0.69063340988E+01 0.  0.
         22    1    3    3    0    0  0.13493344455E+02  0.21000801617E+02  0.40466198916E+02  0.47545949016E+02  0.00000000000E+00 0.  1.
         22    1    4    4    0    0 -0.13620276200E+02 -0.21217451171E+02  0.47548282483E+03  0.47615082575E+03  0.00000000000E+00 0.  1.
         22    1    4    4    0    0  0.12693174471E+00  0.21664955388E+00  0.86812867265E+00  0.90371239302E+00  0.00000000000E+00 0.  1.
<mgrwt>
<rscale>  0 0.90031673E+02</rscale>
<asrwt>0</asrwt>
<pdfrwt beam="1">  1        2 0.80109044E-01 0.90031673E+02</pdfrwt>
<pdfrwt beam="2">  1       -2 0.59871810E-03 0.90031673E+02</pdfrwt>
<totfact> 0.22573812E+05</totfact>
</mgrwt>
</event>
<event>
 7    1  0.3960685E-009  0.9098504E+02  0.7818608E-02  0.1300484E+00
         -2   -1    0    0    0  501 -0.00000000000E+00  0.00000000000E+00  0.12649134153E+02  0.12649134410E+02  0.25500000000E-02 0.  1.
          2   -1    0    0  501    0  0.00000000000E+00 -0.00000000000E+00 -0.16361352351E+03  0.16361352353E+03  0.25500000000E-02 0. -1.
         23    2    1    2    0    0  0.00000000000E+00  0.35527136788E-14 -0.15096438935E+03  0.17626265794E+03  0.90985041242E+02 0.  0.
    9000005    2    3    3    0    0  0.12379102065E+02 -0.21626454315E+02 -0.14871383948E+03  0.15124245272E+03  0.11727222954E+02 0.  0.
         22    1    3    3    0    0 -0.12379102065E+02  0.21626454315E+02 -0.22505498723E+01  0.25020205213E+02  0.00000000000E+00 0.  1.
         22    1    4    4    0    0  0.14615864144E+02 -0.19949073521E+02 -0.13207775535E+03  0.13437307200E+03  0.00000000000E+00 0.  1.
         22    1    4    4    0    0 -0.22367620796E+01 -0.16773807944E+01 -0.16636084126E+02  0.16869380723E+02  0.00000000000E+00 0.  1.
<mgrwt>
<rscale>  0 0.90985041E+02</rscale>
<asrwt>0</asrwt>
<pdfrwt beam="2">  1        2 0.25171310E-01 0.90985041E+02</pdfrwt>
<pdfrwt beam="1">  1       -2 0.19460208E-02 0.90985041E+02</pdfrwt>
<totfact> 0.14486863E+05</totfact>
</mgrwt>
</event>
<event>
 7    1  0.3960685E-009  0.9279773E+02  0.7818608E-02  0.1296215E+00
          2   -1    0    0  501    0  0.00000000000E+00  0.00000000000E+00  0.30994526758E+02  0.30994526863E+02  0.25500000000E-02 0. -1.
         -2   -1    0    0    0  501 -0.00000000000E+00 -0.00000000000E+00 -0.69459192196E+02  0.69459192243E+02  0.25500000000E-02 0.  1.
         23    2    1    2    0    0  0.00000000000E+00  0.00000000000E+00 -0.38464665439E+02  0.10045371911E+03  0.92797732704E+02 0.  0.
    9000005    2    3    3    0    0 -0.16068671474E+02 -0.39110412394E+02 -0.39213554701E+02  0.58164389534E+02  0.75872773094E+01 0.  0.
         22    1    3    3    0    0  0.16068671474E+02  0.39110412394E+02  0.74888926257E+00  0.42289329572E+02  0.00000000000E+00 0.  1.
         22    1    4    4    0    0 -0.14740873820E+02 -0.38910891968E+02 -0.37815777992E+02  0.56226185536E+02  0.00000000000E+00 0. -1.
         22    1    4    4    0    0 -0.13277976538E+01 -0.19952042571E+00 -0.13977767089E+01  0.19382039980E+01  0.00000000000E+00 0. -1.
<mgrwt>
<rscale>  0 0.92797733E+02</rscale>
<asrwt>0</asrwt>
<pdfrwt beam="1">  1        2 0.47683888E-02 0.92797733E+02</pdfrwt>
<pdfrwt beam="2">  1       -2 0.10686030E-01 0.92797733E+02</pdfrwt>
<totfact> 0.84690139E+04</totfact>
</mgrwt>
</event>
<event>
 7    1  0.3960685E-009  0.9110537E+02  0.7818608E-02  0.1300197E+00
          2   -1    0    0  501    0  0.00000000000E+00  0.00000000000E+00  0.41920410457E+02  0.41920410534E+02  0.25500000000E-02 0. -1.
         -2   -1    0    0    0  501 -0.00000000000E+00 -0.00000000000E+00 -0.49499683413E+02  0.49499683479E+02  0.25500000000E-02 0.  1.
         23    2    1    2    0    0  0.00000000000E+00  0.00000000000E+00 -0.75792729559E+01  0.91420094013E+02  0.91105368727E+02 0.  0.
    9000005    2    3    3    0    0  0.26906735991E+02 -0.68050160900E+01  0.32283205724E+02  0.42847489675E+02  0.48395572038E+01 0.  0.
         22    1    3    3    0    0 -0.26906735991E+02  0.68050160900E+01 -0.39862478680E+02  0.48572604338E+02  0.00000000000E+00 0.  1.
         22    1    4    4    0    0  0.12175236772E+02 -0.91014508267E+00  0.15808323793E+02  0.19974179724E+02  0.00000000000E+00 0.  1.
         22    1    4    4    0    0  0.14731499219E+02 -0.58948710074E+01  0.16474881931E+02  0.22873309950E+02  0.00000000000E+00 0.  1.
<mgrwt>
<rscale>  0 0.91105369E+02</rscale>
<asrwt>0</asrwt>
<pdfrwt beam="1">  1        2 0.64492939E-02 0.91105369E+02</pdfrwt>
<pdfrwt beam="2">  1       -2 0.76153359E-02 0.91105369E+02</pdfrwt>
<totfact> 0.96772129E+04</totfact>
</mgrwt>
</event>
<event>
 7    1  0.3960685E-009  0.8992708E+02  0.7818608E-02  0.1303028E+00
         -2   -1    0    0    0  501 -0.00000000000E+00  0.00000000000E+00  0.29840920285E+03  0.29840920287E+03  0.25500000000E-02 0.  1.
          2   -1    0    0  501    0  0.00000000000E+00 -0.00000000000E+00 -0.67749908953E+01  0.67749913752E+01  0.25500000000E-02 0. -1.
         23    2    1    2    0    0  0.00000000000E+00  0.00000000000E+00  0.29163421196E+03  0.30518419424E+03  0.89927075062E+02 0.  0.
    9000005    2    3    3    0    0 -0.27617298693E+02 -0.33908223056E+02  0.12291658477E+03  0.13089099155E+03  0.10558507513E+02 0.  0.
         22    1    3    3    0    0  0.27617298693E+02  0.33908223056E+02  0.16871762719E+03  0.17429320269E+03  0.00000000000E+00 0. -1.
         22    1    4    4    0    0 -0.13200597362E+02 -0.22816676309E+02  0.81476804353E+02  0.85634841835E+02  0.00000000000E+00 0.  1.
         22    1    4    4    0    0 -0.14416701331E+02 -0.11091546747E+02  0.41439780415E+02  0.45256149719E+02  0.00000000000E+00 0.  1.
<mgrwt>
<rscale>  0 0.89927075E+02</rscale>
<asrwt>0</asrwt>
<pdfrwt beam="2">  1        2 0.10423063E-02 0.89927075E+02</pdfrwt>
<pdfrwt beam="1">  1       -2 0.45909108E-01 0.89927075E+02</pdfrwt>
<totfact> 0.53002649E+04</totfact>
</mgrwt>
</event>
<event>
 6    1  0.3960685E-009  0.1477057E+03  0.7818608E-02  0.1203321E+00
         -2   -1    0    0    0  501 -0.00000000000E+00  0.00000000000E+00  0.94077012867E+02  0.94077012901E+02  0.25500000000E-02 0.  1.
          2   -1    0    0  501    0  0.00000000000E+00 -0.00000000000E+00 -0.57976343558E+02  0.57976343614E+02  0.25500000000E-02 0. -1.
    9000005    2    1    2    0    0  0.19197061941E+02  0.67829912356E+02  0.40170228306E+02  0.81441845358E+02  0.70500167277E+01 0.  0.
         22    1    1    2    0    0 -0.19197061941E+02 -0.67829912356E+02 -0.40695589971E+01  0.70611511156E+02  0.00000000000E+00 0. -1.
         22    1    3    3    0    0  0.15231250718E+02  0.46460873276E+02  0.24812718278E+02  0.54829506038E+02  0.00000000000E+00 0. -1.
         22    1    3    3    0    0  0.39658112229E+01  0.21369039080E+02  0.15357510029E+02  0.26612339321E+02  0.00000000000E+00 0. -1.
<mgrwt>
<rscale>  0 0.14770567E+03</rscale>
<asrwt>0</asrwt>
<pdfrwt beam="2">  1        2 0.89194376E-02 0.14770567E+03</pdfrwt>
<pdfrwt beam="1">  1       -2 0.14473386E-01 0.14770567E+03</pdfrwt>
<totfact> 0.24988370E+04</totfact>
</mgrwt>
</event>
<event>
 7    1  0.3960685E-009  0.8510777E+02  0.7818608E-02  0.1315151E+00
         -2   -1    0    0    0  501 -0.00000000000E+00  0.00000000000E+00  0.86084896045E+02  0.86084896083E+02  0.25500000000E-02 0.  1.
          2   -1    0    0  501    0  0.00000000000E+00 -0.00000000000E+00 -0.21035435977E+02  0.21035436131E+02  0.25500000000E-02 0. -1.
         23    2    1    2    0    0  0.00000000000E+00  0.44408920985E-15  0.65049460068E+02  0.10712033221E+03  0.85107774725E+02 0.  0.
    9000005    2    3    3    0    0 -0.28850995981E+02  0.27752689934E+01 -0.48771331335E+01  0.31424820301E+02  0.11119838860E+02 0.  0.
         22    1    3    3    0    0  0.28850995981E+02 -0.27752689934E+01  0.69926593202E+02  0.75695511914E+02  0.00000000000E+00 0.  1.
         22    1    4    4    0    0 -0.28893628087E+02  0.81899420060E+00 -0.53865736392E+01  0.29402851411E+02  0.00000000000E+00 0.  1.
         22    1    4    4    0    0  0.42632106316E-01  0.19562747928E+01  0.50944050579E+00  0.20219688896E+01  0.00000000000E+00 0.  1.
<mgrwt>
<rscale>  0 0.85107775E+02</rscale>
<asrwt>0</asrwt>
<pdfrwt beam="2">  1        2 0.32362209E-02 0.85107775E+02</pdfrwt>
<pdfrwt beam="1">  1       -2 0.13243830E-01 0.85107775E+02</pdfrwt>
<totfact> 0.98802986E+04</totfact>
</mgrwt>
</event>
<event>
 7    1  0.3960685E-009  0.9112619E+02  0.7818608E-02  0.1300147E+00
          2   -1    0    0  501    0  0.00000000000E+00  0.00000000000E+00  0.18000677339E+03  0.18000677341E+03  0.25500000000E-02 0.  1.
         -2   -1    0    0    0  501 -0.00000000000E+00 -0.00000000000E+00 -0.11532875293E+02  0.11532875575E+02  0.25500000000E-02 0. -1.
         23    2    1    2    0    0  0.88817841970E-15  0.00000000000E+00  0.16847389810E+03  0.19153964899E+03  0.91126191585E+02 0.  0.
    9000005    2    3    3    0    0  0.66872043553E+01 -0.44140759276E+02  0.85144762456E+02  0.97004628075E+02  0.12928339515E+02 0.  0.
         22    1    3    3    0    0 -0.66872043553E+01  0.44140759276E+02  0.83329135645E+02  0.94535020912E+02  0.00000000000E+00 0. -1.
         22    1    4    4    0    0 -0.17408297189E+01 -0.37012233111E+01  0.15500893667E+02  0.16031445555E+02  0.00000000000E+00 0.  1.
         22    1    4    4    0    0  0.84280340742E+01 -0.40439535965E+02  0.69643868789E+02  0.80973182520E+02  0.00000000000E+00 0.  1.
<mgrwt>
<rscale>  0 0.91126192E+02</rscale>
<asrwt>0</asrwt>
<pdfrwt beam="1">  1        2 0.27693349E-01 0.91126192E+02</pdfrwt>
<pdfrwt beam="2">  1       -2 0.17742886E-02 0.91126192E+02</pdfrwt>
<totfact> 0.14917229E+05</totfact>
</mgrwt>
</event>
<event>
 7    1  0.3960685E-009  0.9309781E+02  0.7818608E-02  0.1295519E+00
          2   -1    0    0  501    0  0.00000000000E+00  0.00000000000E+00  0.40280303857E+02  0.40280303938E+02  0.25500000000E-02 0. -1.
         -2   -1    0    0    0  501 -0.00000000000E+00 -0.00000000000E+00 -0.53793055629E+02  0.53793055690E+02  0.25500000000E-02 0.  1.
         23    2    1    2    0    0  0.00000000000E+00  0.00000000000E+00 -0.13512751772E+02  0.94073359628E+02  0.93097811635E+02 0.  0.
    9000005    2    3    3    0    0 -0.27127670052E+02 -0.19252025420E+02  0.25839355396E+02  0.42545315770E+02  0.59900451950E+01 0.  0.
         22    1    3    3    0    0  0.27127670052E+02  0.19252025420E+02 -0.39352107168E+02  0.51528043858E+02  0.00000000000E+00 0.  1.
         22    1    4    4    0    0 -0.11416040351E+02 -0.72535738860E+01  0.69675948995E+01  0.15214719521E+02  0.00000000000E+00 0. -1.
         22    1    4    4    0    0 -0.15711629701E+02 -0.11998451534E+02  0.18871760497E+02  0.27330596249E+02  0.00000000000E+00 0. -1.
<mgrwt>
<rscale>  0 0.93097812E+02</rscale>
<asrwt>0</asrwt>
<pdfrwt beam="1">  1        2 0.61969698E-02 0.93097812E+02</pdfrwt>
<pdfrwt beam="2">  1       -2 0.82758548E-02 0.93097812E+02</pdfrwt>
<totfact> 0.89945948E+04</totfact>
</mgrwt>
</event>
<event>
 7    1  0.3960685E-009  0.9176626E+02  0.7818608E-02  0.1298630E+00
          2   -1    0    0  501    0  0.00000000000E+00  0.00000000000E+00  0.12971163840E+03  0.12971163843E+03  0.25500000000E-02 0. -1.
         -2   -1    0    0    0  501 -0.00000000000E+00 -0.00000000000E+00 -0.16230320168E+02  0.16230320368E+02  0.25500000000E-02 0.  1.
         23    2    1    2    0    0 -0.88817841970E-15  0.00000000000E+00  0.11348131824E+03  0.14594195880E+03  0.91766256047E+02 0.  0.
    9000005    2    3    3    0    0 -0.69156139958E+01  0.33210205103E+02  0.10904863345E+02  0.37901815619E+02  0.12918519370E+02 0.  0.
         22    1    3    3    0    0  0.69156139958E+01 -0.33210205103E+02  0.10257645489E+03  0.10804014318E+03  0.00000000000E+00 0. -1.
         22    1    4    4    0    0  0.29411883789E+01  0.61431273643E+01 -0.69858543803E+00  0.68466506051E+01  0.00000000000E+00 0. -1.
         22    1    4    4    0    0 -0.98568023747E+01  0.27067077739E+02  0.11603448783E+02  0.31055165014E+02  0.00000000000E+00 0. -1.
<mgrwt>
<rscale>  0 0.91766256E+02</rscale>
<asrwt>0</asrwt>
<pdfrwt beam="1">  1        2 0.19955638E-01 0.91766256E+02</pdfrwt>
<pdfrwt beam="2">  1       -2 0.24969722E-02 0.91766256E+02</pdfrwt>
<totfact> 0.13086090E+05</totfact>
</mgrwt>
</event>
<event>
 7    1  0.3960685E-009  0.8942177E+02  0.7818608E-02  0.1304258E+00
          2   -1    0    0  501    0  0.00000000000E+00  0.00000000000E+00  0.54269663755E+03  0.54269663755E+03  0.25500000000E-02 0. -1.
         -2   -1    0    0    0  501 -0.00000000000E+00 -0.00000000000E+00 -0.36835734356E+01  0.36835743182E+01  0.25500000000E-02 0.  1.
         23    2    1    2    0    0  0.00000000000E+00  0.00000000000E+00  0.53901306411E+03  0.54638021187E+03  0.89421768276E+02 0.  0.
    9000005    2    3    3    0    0 -0.28261848856E+02 -0.56634043952E+01  0.47760355743E+03  0.47854265766E+03  0.81921232433E+01 0.  0.
         22    1    3    3    0    0  0.28261848856E+02  0.56634043952E+01  0.61409506683E+02  0.67837554210E+02  0.00000000000E+00 0.  1.
         22    1    4    4    0    0 -0.44746501212E+01  0.18066675124E+01  0.10049220012E+03  0.10060799584E+03  0.00000000000E+00 0. -1.
         22    1    4    4    0    0 -0.23787198735E+02 -0.74700719077E+01  0.37711135730E+03  0.37793466182E+03  0.00000000000E+00 0. -1.
<mgrwt>
<rscale>  0 0.89421768E+02</rscale>
<asrwt>0</asrwt>
<pdfrwt beam="1">  1        2 0.83491738E-01 0.89421768E+02</pdfrwt>
<pdfrwt beam="2">  1       -2 0.56670403E-03 0.89421768E+02</pdfrwt>
<totfact> 0.23281157E+05</totfact>
</mgrwt>
</event>
<event>
 7    1  0.3960685E-009  0.9023952E+02  0.7818608E-02  0.1302273E+00
          2   -1    0    0  501    0  0.00000000000E+00  0.00000000000E+00  0.51671118095E+02  0.51671118158E+02  0.25500000000E-02 0. -1.
         -2   -1    0    0    0  501 -0.00000000000E+00 -0.00000000000E+00 -0.39399046884E+02  0.39399046967E+02  0.25500000000E-02 0.  1.
         23    2    1    2    0    0 -0.17763568394E-14  0.00000000000E+00  0.12272071211E+02  0.91070165125E+02  0.90239521520E+02 0.  0.
    9000005    2    3    3    0    0  0.13640595821E+02 -0.33541372436E+02  0.31509344865E+02  0.50068186918E+02  0.14244121880E+02 0.  0.
         22    1    3    3    0    0 -0.13640595821E+02  0.33541372436E+02 -0.19237273654E+02  0.41001978207E+02  0.00000000000E+00 0.  1.
         22    1    4    4    0    0  0.37982743679E+01 -0.12533924624E+02  0.32270468654E+01  0.13488513118E+02  0.00000000000E+00 0. -1.
         22    1    4    4    0    0  0.98423214532E+01 -0.21007447812E+02  0.28282298000E+02  0.36579673800E+02  0.00000000000E+00 0. -1.
<mgrwt>
<rscale>  0 0.90239522E+02</rscale>
<asrwt>0</asrwt>
<pdfrwt beam="1">  1        2 0.79494028E-02 0.90239522E+02</pdfrwt>
<pdfrwt beam="2">  1       -2 0.60613918E-02 0.90239522E+02</pdfrwt>
<totfact> 0.10498894E+05</totfact>
</mgrwt>
</event>
<event>
 7    1  0.3960685E-009  0.1026549E+03  0.7818608E-02  0.1274810E+00
         -2   -1    0    0    0  501 -0.00000000000E+00  0.00000000000E+00  0.41589928301E+01  0.41589936118E+01  0.25500000000E-02 0.  1.
          2   -1    0    0  501    0  0.00000000000E+00 -0.00000000000E+00 -0.63344806426E+03  0.63344806426E+03  0.25500000000E-02 0. -1.
         23    2    1    2    0    0 -0.71054273576E-14  0.17763568394E-14 -0.62928907143E+03  0.63760705788E+03  0.10265488217E+03 0.  0.
    9000005    2    3    3    0    0 -0.36971573744E+02  0.13724898279E+02 -0.51863282057E+03  0.52013333336E+03  0.18471058228E+01 0.  0.
         22    1    3    3    0    0  0.36971573744E+02 -0.13724898279E+02 -0.11065625085E+03  0.11747372451E+03  0.00000000000E+00 0. -1.
         22    1    4    4    0    0 -0.32770291640E+02  0.12505292957E+02 -0.46720154441E+03  0.46851633639E+03  0.00000000000E+00 0. -1.
         22    1    4    4    0    0 -0.42012821039E+01  0.12196053222E+01 -0.51431276160E+02  0.51616996968E+02  0.00000000000E+00 0. -1.
<mgrwt>
<rscale>  0 0.10265488E+03</rscale>
<asrwt>0</asrwt>
<pdfrwt beam="2">  1        2 0.97453472E-01 0.10265488E+03</pdfrwt>
<pdfrwt beam="1">  1       -2 0.63984561E-03 0.10265488E+03</pdfrwt>
<totfact> 0.16879282E+05</totfact>
</mgrwt>
</event>
<event>
 7    1  0.3960685E-009  0.9152745E+02  0.7818608E-02  0.1299194E+00
         -2   -1    0    0    0  501 -0.00000000000E+00  0.00000000000E+00  0.47950961367E+01  0.47950968147E+01  0.25500000000E-02 0.  1.
          2   -1    0    0  501    0  0.00000000000E+00 -0.00000000000E+00 -0.43676249637E+03  0.43676249637E+03  0.25500000000E-02 0. -1.
         23    2    1    2    0    0  0.00000000000E+00  0.00000000000E+00 -0.43196740023E+03  0.44155759319E+03  0.91527445290E+02 0.  0.
    9000005    2    3    3    0    0  0.44660136326E+02 -0.30473170834E+01 -0.20090943582E+03  0.20620339876E+03  0.12305541051E+02 0.  0.
         22    1    3    3    0    0 -0.44660136326E+02  0.30473170834E+01 -0.23105796441E+03  0.23535419442E+03  0.00000000000E+00 0. -1.
         22    1    4    4    0    0  0.20165239213E+02  0.39954278685E+01 -0.76783088444E+02  0.79487376276E+02  0.00000000000E+00 0.  1.
         22    1    4    4    0    0  0.24494897113E+02 -0.70427449518E+01 -0.12412634738E+03  0.12671602249E+03  0.00000000000E+00 0.  1.
<mgrwt>
<rscale>  0 0.91527445E+02</rscale>
<asrwt>0</asrwt>
<pdfrwt beam="2">  1        2 0.67194199E-01 0.91527445E+02</pdfrwt>
<pdfrwt beam="1">  1       -2 0.73770749E-03 0.91527445E+02</pdfrwt>
<totfact> 0.20382241E+05</totfact>
</mgrwt>
</event>
<event>
 7    1  0.3960685E-009  0.9160131E+02  0.7818608E-02  0.1299020E+00
         -2   -1    0    0    0  501 -0.00000000000E+00  0.00000000000E+00  0.73154477636E+02  0.73154477680E+02  0.25500000000E-02 0.  1.
          2   -1    0    0  501    0  0.00000000000E+00 -0.00000000000E+00 -0.28674937451E+02  0.28674937565E+02  0.25500000000E-02 0. -1.
         23    2    1    2    0    0  0.00000000000E+00  0.00000000000E+00  0.44479540185E+02  0.10182941525E+03  0.91601311749E+02 0.  0.
    9000005    2    3    3    0    0  0.30399276318E+02  0.20996266590E+02  0.52139625537E+02  0.64098312439E+02  0.50093806972E+01 0.  0.
         22    1    3    3    0    0 -0.30399276318E+02 -0.20996266590E+02 -0.76600853520E+01  0.37731102806E+02  0.00000000000E+00 0. -1.
         22    1    4    4    0    0  0.16255638016E+02  0.10918759464E+02  0.23328928308E+02  0.30458233231E+02  0.00000000000E+00 0. -1.
         22    1    4    4    0    0  0.14143638302E+02  0.10077507126E+02  0.28810697229E+02  0.33640079207E+02  0.00000000000E+00 0. -1.
<mgrwt>
<rscale>  0 0.91601312E+02</rscale>
<asrwt>0</asrwt>
<pdfrwt beam="2">  1        2 0.44115289E-02 0.91601312E+02</pdfrwt>
<pdfrwt beam="1">  1       -2 0.11254535E-01 0.91601312E+02</pdfrwt>
<totfact> 0.86197340E+04</totfact>
</mgrwt>
</event>
<event>
 7    1  0.3960685E-009  0.9157851E+02  0.7818608E-02  0.1299074E+00
          2   -1    0    0  501    0  0.00000000000E+00  0.00000000000E+00  0.29633579405E+03  0.29633579407E+03  0.25500000000E-02 0. -1.
         -2   -1    0    0    0  501 -0.00000000000E+00 -0.00000000000E+00 -0.70752702280E+01  0.70752706875E+01  0.25500000000E-02 0.  1.
         23    2    1    2    0    0  0.00000000000E+00  0.00000000000E+00  0.28926052383E+03  0.30341106475E+03  0.91578510417E+02 0.  0.
    9000005    2    3    3    0    0  0.40716473781E+02 -0.11652907107E+02  0.90119620160E+02  0.99816563368E+02  0.69411024719E+01 0.  0.
         22    1    3    3    0    0 -0.40716473781E+02  0.11652907107E+02  0.19914090367E+03  0.20359450139E+03  0.00000000000E+00 0. -1.
         22    1    4    4    0    0  0.22678752123E+02 -0.36621907050E+01  0.53426749295E+02  0.58156297844E+02  0.00000000000E+00 0. -1.
         22    1    4    4    0    0  0.18037721659E+02 -0.79907164020E+01  0.36692870865E+02  0.41660265525E+02  0.00000000000E+00 0. -1.
<mgrwt>
<rscale>  0 0.91578510E+02</rscale>
<asrwt>0</asrwt>
<pdfrwt beam="1">  1        2 0.45590128E-01 0.91578510E+02</pdfrwt>
<pdfrwt beam="2">  1       -2 0.10885030E-02 0.91578510E+02</pdfrwt>
<totfact> 0.17675197E+05</totfact>
</mgrwt>
</event>
<event>
 7    1  0.3960685E-009  0.9154542E+02  0.7818608E-02  0.1299152E+00
         -2   -1    0    0    0  501 -0.00000000000E+00  0.00000000000E+00  0.14845193709E+03  0.14845193711E+03  0.25500000000E-02 0. -1.
          2   -1    0    0  501    0  0.00000000000E+00 -0.00000000000E+00 -0.14113261933E+02  0.14113262164E+02  0.25500000000E-02 0.  1.
         23    2    1    2    0    0 -0.17763568394E-14  0.00000000000E+00  0.13433867516E+03  0.16256519928E+03  0.91545422457E+02 0.  0.
    9000005    2    3    3    0    0  0.98652742605E+01  0.22546267408E+02  0.30152743526E+01  0.28955718291E+02  0.14956066732E+02 0.  0.
         22    1    3    3    0    0 -0.98652742605E+01 -0.22546267408E+02  0.13132340081E+03  0.13360948099E+03  0.00000000000E+00 0. -1.
         22    1    4    4    0    0 -0.73670986874E+00  0.96854842065E+01 -0.44603835680E+01  0.10688609232E+02  0.00000000000E+00 0.  1.
         22    1    4    4    0    0  0.10601984129E+02  0.12860783201E+02  0.74756579205E+01  0.18267109059E+02  0.00000000000E+00 0.  1.
<mgrwt>
<rscale>  0 0.91545422E+02</rscale>
<asrwt>0</asrwt>
<pdfrwt beam="2">  1        2 0.21712711E-02 0.91545422E+02</pdfrwt>
<pdfrwt beam="1">  1       -2 0.22838760E-01 0.91545422E+02</pdfrwt>
<totfact> 0.69407152E+04</totfact>
</mgrwt>
</event>
<event>
 7    1  0.3960685E-009  0.9339949E+02  0.7818608E-02  0.1294822E+00
          2   -1    0    0  501    0  0.00000000000E+00  0.00000000000E+00  0.45266507843E+02  0.45266507915E+02  0.25500000000E-02 0. -1.
         -2   -1    0    0    0  501 -0.00000000000E+00 -0.00000000000E+00 -0.48178358315E+02  0.48178358382E+02  0.25500000000E-02 0.  1.
         23    2    1    2    0    0  0.00000000000E+00  0.00000000000E+00 -0.29118504718E+01  0.93444866297E+02  0.93399486959E+02 0.  0.
    9000005    2    3    3    0    0 -0.95078214420E+01 -0.41265458937E+02 -0.18423357733E+02  0.48346710821E+02  0.14309003014E+02 0.  0.
         22    1    3    3    0    0  0.95078214420E+01  0.41265458937E+02  0.15511507261E+02  0.45098155476E+02  0.00000000000E+00 0. -1.
         22    1    4    4    0    0 -0.39310215333E+01 -0.29776834041E+02 -0.61987377964E+01  0.30668177743E+02  0.00000000000E+00 0.  1.
         22    1    4    4    0    0 -0.55767999087E+01 -0.11488624895E+02 -0.12224619936E+02  0.17678533078E+02  0.00000000000E+00 0.  1.
<mgrwt>
<rscale>  0 0.93399487E+02</rscale>
<asrwt>0</asrwt>
<pdfrwt beam="1">  1        2 0.69640781E-02 0.93399487E+02</pdfrwt>
<pdfrwt beam="2">  1       -2 0.74120551E-02 0.93399487E+02</pdfrwt>
<totfact> 0.91890949E+04</totfact>
</mgrwt>
</event>
<event>
 7    1  0.3960685E-009  0.9180625E+02  0.7818608E-02  0.1298536E+00
         -2   -1    0    0    0  501 -0.00000000000E+00  0.00000000000E+00  0.11938258955E+02  0.11938259228E+02  0.25500000000E-02 0.  1.
          2   -1    0    0  501    0  0.00000000000E+00 -0.00000000000E+00 -0.17649951947E+03  0.17649951949E+03  0.25500000000E-02 0. -1.
         23    2    1    2    0    0 -0.35527136788E-14  0.00000000000E+00 -0.16456126051E+03  0.18843777872E+03  0.91806252431E+02 0.  0.
    9000005    2    3    3    0    0 -0.25021908451E+02  0.34881112868E+02 -0.11022818510E+03  0.11919277152E+03  0.14624501867E+02 0.  0.
         22    1    3    3    0    0  0.25021908451E+02 -0.34881112868E+02 -0.54333075412E+02  0.69245007193E+02  0.00000000000E+00 0.  1.
         22    1    4    4    0    0 -0.26332534102E+02  0.28544058143E+02 -0.92565064485E+02  0.10038155593E+03  0.00000000000E+00 0.  1.
         22    1    4    4    0    0  0.13106256513E+01  0.63370547250E+01 -0.17663120617E+02  0.18811215594E+02  0.00000000000E+00 0.  1.
<mgrwt>
<rscale>  0 0.91806252E+02</rscale>
<asrwt>0</asrwt>
<pdfrwt beam="2">  1        2 0.27153770E-01 0.91806252E+02</pdfrwt>
<pdfrwt beam="1">  1       -2 0.18366554E-02 0.91806252E+02</pdfrwt>
<totfact> 0.14518711E+05</totfact>
</mgrwt>
</event>
<event>
 7    1  0.3960685E-009  0.9185164E+02  0.7818608E-02  0.1298429E+00
         -2   -1    0    0    0  501 -0.00000000000E+00  0.00000000000E+00  0.15508436850E+02  0.15508437060E+02  0.25500000000E-02 0.  1.
          2   -1    0    0  501    0  0.00000000000E+00 -0.00000000000E+00 -0.13600217061E+03  0.13600217063E+03  0.25500000000E-02 0. -1.
         23    2    1    2    0    0 -0.35527136788E-14 -0.71054273576E-14 -0.12049373376E+03  0.15151060769E+03  0.91851643251E+02 0.  0.
    9000005    2    3    3    0    0  0.30468442749E+02  0.32771409546E+02 -0.45880697408E+02  0.64508329097E+02  0.73481182025E+01 0.  0.
         22    1    3    3    0    0 -0.30468442749E+02 -0.32771409546E+02 -0.74613036349E+02  0.87002278593E+02  0.00000000000E+00 0. -1.
         22    1    4    4    0    0  0.42520467847E+01  0.88986201159E+01 -0.10915397859E+02  0.14710922889E+02  0.00000000000E+00 0. -1.
         22    1    4    4    0    0  0.26216395964E+02  0.23872789430E+02 -0.34965299548E+02  0.49797406208E+02  0.00000000000E+00 0. -1.
<mgrwt>
<rscale>  0 0.91851643E+02</rscale>
<asrwt>0</asrwt>
<pdfrwt beam="2">  1        2 0.20923410E-01 0.91851643E+02</pdfrwt>
<pdfrwt beam="1">  1       -2 0.23859135E-02 0.91851643E+02</pdfrwt>
<totfact> 0.13258870E+05</totfact>
</mgrwt>
</event>
<event>
 7    1  0.3960685E-009  0.9031682E+02  0.7818608E-02  0.1302086E+00
          2   -1    0    0  501    0  0.00000000000E+00  0.00000000000E+00  0.98908900277E+01  0.98908903564E+01  0.25500000000E-02 0. -1.
         -2   -1    0    0    0  501 -0.00000000000E+00 -0.00000000000E+00 -0.20617778173E+03  0.20617778175E+03  0.25500000000E-02 0.  1.
         23    2    1    2    0    0  0.00000000000E+00  0.00000000000E+00 -0.19628689170E+03  0.21606867210E+03  0.90316815765E+02 0.  0.
    9000005    2    3    3    0    0  0.32603120575E+02 -0.29718601938E+02 -0.11721102789E+03  0.12551950860E+03  0.84001910253E+01 0.  0.
         22    1    3    3    0    0 -0.32603120575E+02  0.29718601938E+02 -0.79075863818E+02  0.90549163502E+02  0.00000000000E+00 0. -1.
         22    1    4    4    0    0  0.32738525752E+02 -0.28628553433E+02 -0.11599945555E+03  0.12388413469E+03  0.00000000000E+00 0. -1.
         22    1    4    4    0    0 -0.13540517731E+00 -0.10900485047E+01 -0.12115723346E+01  0.16353739103E+01  0.00000000000E+00 0. -1.
<mgrwt>
<rscale>  0 0.90316816E+02</rscale>
<asrwt>0</asrwt>
<pdfrwt beam="1">  1        2 0.15216756E-02 0.90316816E+02</pdfrwt>
<pdfrwt beam="2">  1       -2 0.31719656E-01 0.90316816E+02</pdfrwt>
<totfact> 0.63002506E+04</totfact>
</mgrwt>
</event>
<event>
 7    1  0.3960685E-009  0.9290881E+02  0.7818608E-02  0.1295957E+00
         -2   -1    0    0    0  501 -0.00000000000E+00  0.00000000000E+00  0.16377153266E+02  0.16377153464E+02  0.25500000000E-02 0. -1.
          2   -1    0    0  501    0  0.00000000000E+00 -0.00000000000E+00 -0.13176964053E+03  0.13176964056E+03  0.25500000000E-02 0.  1.
         23    2    1    2    0    0  0.00000000000E+00  0.00000000000E+00 -0.11539248727E+03  0.14814679402E+03  0.92908807231E+02 0.  0.
    9000005    2    3    3    0    0  0.62469172330E+01  0.38825867246E+02 -0.95001070122E+02  0.10384914357E+03  0.14593469553E+02 0.  0.
         22    1    3    3    0    0 -0.62469172330E+01 -0.38825867246E+02 -0.20391417144E+02  0.44297650451E+02  0.00000000000E+00 0. -1.
         22    1    4    4    0    0  0.78890792855E+01  0.16134369571E+02 -0.29809409179E+02  0.34801671353E+02  0.00000000000E+00 0. -1.
         22    1    4    4    0    0 -0.16421620525E+01  0.22691497675E+02 -0.65191660944E+02  0.69047472217E+02  0.00000000000E+00 0. -1.
<mgrwt>
<rscale>  0 0.92908807E+02</rscale>
<asrwt>0</asrwt>
<pdfrwt beam="2">  1        2 0.20272252E-01 0.92908807E+02</pdfrwt>
<pdfrwt beam="1">  1       -2 0.25195621E-02 0.92908807E+02</pdfrwt>
<totfact> 0.12716800E+05</totfact>
</mgrwt>
</event>
<event>
 7    1  0.3960685E-009  0.9735324E+02  0.7818608E-02  0.1285962E+00
          2   -1    0    0  501    0  0.00000000000E+00  0.00000000000E+00  0.11771090298E+04  0.11771090298E+04  0.25500000000E-02 0. -1.
         -2   -1    0    0    0  501 -0.00000000000E+00 -0.00000000000E+00 -0.20129082766E+01  0.20129098918E+01  0.25500000000E-02 0.  1.
         23    2    1    2    0    0  0.00000000000E+00  0.00000000000E+00  0.11750961215E+04  0.11791219397E+04  0.97353242625E+02 0.  0.
    9000005    2    3    3    0    0  0.23017323637E+02 -0.27309413569E+02  0.98094896025E+03  0.98171697145E+03  0.15223276952E+02 0.  0.
         22    1    3    3    0    0 -0.23017323637E+02  0.27309413569E+02  0.19414716126E+03  0.19740496823E+03  0.00000000000E+00 0.  1.
         22    1    4    4    0    0  0.19424802314E+02 -0.13174839882E+02  0.50586950864E+03  0.50641372328E+03  0.00000000000E+00 0.  1.
         22    1    4    4    0    0  0.35925213233E+01 -0.14134573687E+02  0.47507945161E+03  0.47530324817E+03  0.00000000000E+00 0.  1.
<mgrwt>
<rscale>  0 0.97353243E+02</rscale>
<asrwt>0</asrwt>
<pdfrwt beam="1">  1        2 0.18109406E+00 0.97353243E+02</pdfrwt>
<pdfrwt beam="2">  1       -2 0.30967770E-03 0.97353243E+02</pdfrwt>
<totfact> 0.20956168E+05</totfact>
</mgrwt>
</event>
<event>
 7    1  0.3960685E-009  0.9209673E+02  0.7818608E-02  0.1297852E+00
         -2   -1    0    0    0  501 -0.00000000000E+00  0.00000000000E+00  0.10065683372E+02  0.10065683695E+02  0.25500000000E-02 0.  1.
          2   -1    0    0  501    0  0.00000000000E+00 -0.00000000000E+00 -0.21066148902E+03  0.21066148903E+03  0.25500000000E-02 0. -1.
         23    2    1    2    0    0  0.35527136788E-14  0.00000000000E+00 -0.20059580565E+03  0.22072717273E+03  0.92096729247E+02 0.  0.
    9000005    2    3    3    0    0 -0.25261318070E+02  0.28775129677E+02 -0.16080488021E+03  0.16550525656E+03  0.82242428377E+01 0.  0.
         22    1    3    3    0    0  0.25261318070E+02 -0.28775129677E+02 -0.39790925437E+02  0.55221916172E+02  0.00000000000E+00 0.  1.
         22    1    4    4    0    0 -0.13638340585E+02  0.16862255771E+02 -0.10736809368E+03  0.10953651237E+03  0.00000000000E+00 0. -1.
         22    1    4    4    0    0 -0.11622977485E+02  0.11912873906E+02 -0.53436786534E+02  0.55968744182E+02  0.00000000000E+00 0. -1.
<mgrwt>
<rscale>  0 0.92096729E+02</rscale>
<asrwt>0</asrwt>
<pdfrwt beam="2">  1        2 0.32409456E-01 0.92096729E+02</pdfrwt>
<pdfrwt beam="1">  1       -2 0.15485669E-02 0.92096729E+02</pdfrwt>
<totfact> 0.15341977E+05</totfact>
</mgrwt>
</event>
<event>
 7    1  0.3960685E-009  0.9167621E+02  0.7818608E-02  0.1298843E+00
         -2   -1    0    0    0  501 -0.00000000000E+00  0.00000000000E+00  0.23126554683E+01  0.23126568742E+01  0.25500000000E-02 0.  1.
          2   -1    0    0  501    0  0.00000000000E+00 -0.00000000000E+00 -0.90853627836E+03  0.90853627836E+03  0.25500000000E-02 0. -1.
         23    2    1    2    0    0  0.35527136788E-14 -0.35527136788E-14 -0.90622362289E+03  0.91084893524E+03  0.91676213582E+02 0.  0.
    9000005    2    3    3    0    0 -0.22372053881E+02  0.29952367275E+02 -0.71481015115E+03  0.71581875741E+03  0.67296485310E+01 0.  0.
         22    1    3    3    0    0  0.22372053881E+02 -0.29952367275E+02 -0.19141347174E+03  0.19503017783E+03  0.00000000000E+00 0.  1.
         22    1    4    4    0    0 -0.41170785197E+01  0.69335772731E+01 -0.20966367106E+03  0.20981868313E+03  0.00000000000E+00 0. -1.
         22    1    4    4    0    0 -0.18254975361E+02  0.23018790002E+02 -0.50514648009E+03  0.50600007428E+03  0.00000000000E+00 0. -1.
<mgrwt>
<rscale>  0 0.91676214E+02</rscale>
<asrwt>0</asrwt>
<pdfrwt beam="2">  1        2 0.13977453E+00 0.91676214E+02</pdfrwt>
<pdfrwt beam="1">  1       -2 0.35579398E-03 0.91676214E+02</pdfrwt>
<totfact> 0.24465196E+05</totfact>
</mgrwt>
</event>
<event>
 7    1  0.3960685E-009  0.8941932E+02  0.7818608E-02  0.1304264E+00
         -2   -1    0    0    0  501 -0.00000000000E+00  0.00000000000E+00  0.19516181064E+02  0.19516181230E+02  0.25500000000E-02 0.  1.
          2   -1    0    0  501    0  0.00000000000E+00 -0.00000000000E+00 -0.10242545630E+03  0.10242545633E+03  0.25500000000E-02 0. -1.
         23    2    1    2    0    0  0.00000000000E+00  0.00000000000E+00 -0.82909275236E+02  0.12194163756E+03  0.89419321464E+02 0.  0.
    9000005    2    3    3    0    0  0.84774163640E+01 -0.24056648830E+02  0.76687437143E+01  0.27840806226E+02  0.81062889182E+01 0.  0.
         22    1    3    3    0    0 -0.84774163640E+01  0.24056648830E+02 -0.90578018950E+02  0.94100831336E+02  0.00000000000E+00 0. -1.
         22    1    4    4    0    0  0.74638651029E+01 -0.22883517151E+02  0.47475803842E+01  0.24533735121E+02  0.00000000000E+00 0. -1.
         22    1    4    4    0    0  0.10135512611E+01 -0.11731316792E+01  0.29211633301E+01  0.33070711055E+01  0.00000000000E+00 0. -1.
<mgrwt>
<rscale>  0 0.89419321E+02</rscale>
<asrwt>0</asrwt>
<pdfrwt beam="2">  1        2 0.15757762E-01 0.89419321E+02</pdfrwt>
<pdfrwt beam="1">  1       -2 0.30024895E-02 0.89419321E+02</pdfrwt>
<totfact> 0.13035843E+05</totfact>
</mgrwt>
</event>
<event>
 7    1  0.3960685E-009  0.9442285E+02  0.7818608E-02  0.1292481E+00
          2   -1    0    0  501    0  0.00000000000E+00  0.00000000000E+00  0.57125247750E+01  0.57125253441E+01  0.25500000000E-02 0. -1.
         -2   -1    0    0    0  501 -0.00000000000E+00 -0.00000000000E+00 -0.39018099601E+03  0.39018099602E+03  0.25500000000E-02 0.  1.
         23    2    1    2    0    0  0.00000000000E+00  0.00000000000E+00 -0.38446847124E+03  0.39589352136E+03  0.94422851488E+02 0.  0.
    9000005    2    3    3    0    0 -0.20468432086E+02  0.17885445127E+02 -0.35396803325E+03  0.35503862475E+03  0.44956253430E+01 0.  0.
         22    1    3    3    0    0  0.20468432086E+02 -0.17885445127E+02 -0.30500437991E+02  0.40854896611E+02  0.00000000000E+00 0. -1.
         22    1    4    4    0    0 -0.19696354941E+02  0.15691592988E+02 -0.32908848184E+03  0.33005060425E+03  0.00000000000E+00 0.  1.
         22    1    4    4    0    0 -0.77207714549E+00  0.21938521394E+01 -0.24879551407E+02  0.24988020500E+02  0.00000000000E+00 0.  1.
<mgrwt>
<rscale>  0 0.94422851E+02</rscale>
<asrwt>0</asrwt>
<pdfrwt beam="1">  1        2 0.87885032E-03 0.94422851E+02</pdfrwt>
<pdfrwt beam="2">  1       -2 0.60027825E-01 0.94422851E+02</pdfrwt>
<totfact> 0.39652711E+04</totfact>
</mgrwt>
</event>
<event>
 7    1  0.3960685E-009  0.9234215E+02  0.7818608E-02  0.1297277E+00
          2   -1    0    0  501    0  0.00000000000E+00  0.00000000000E+00  0.18913398059E+03  0.18913398061E+03  0.25500000000E-02 0. -1.
         -2   -1    0    0    0  501 -0.00000000000E+00 -0.00000000000E+00 -0.11271207606E+02  0.11271207895E+02  0.25500000000E-02 0.  1.
         23    2    1    2    0    0  0.00000000000E+00  0.00000000000E+00  0.17786277298E+03  0.20040518850E+03  0.92342154864E+02 0.  0.
    9000005    2    3    3    0    0  0.26341812849E+02 -0.34650262580E+02  0.12190047270E+03  0.12950870866E+03  0.42718348530E+01 0.  0.
         22    1    3    3    0    0 -0.26341812849E+02  0.34650262580E+02  0.55962300284E+02  0.70896479843E+02  0.00000000000E+00 0.  1.
         22    1    4    4    0    0  0.25995538619E+02 -0.33322328598E+02  0.11625117382E+03  0.12369511319E+03  0.00000000000E+00 0. -1.
         22    1    4    4    0    0  0.34627422964E+00 -0.13279339821E+01  0.56492988754E+01  0.58135954698E+01  0.00000000000E+00 0. -1.
<mgrwt>
<rscale>  0 0.92342155E+02</rscale>
<asrwt>0</asrwt>
<pdfrwt beam="1">  1        2 0.29097536E-01 0.92342155E+02</pdfrwt>
<pdfrwt beam="2">  1       -2 0.17340319E-02 0.92342155E+02</pdfrwt>
<totfact> 0.14648906E+05</totfact>
</mgrwt>
</event>
<event>
 7    1  0.3960685E-009  0.9014262E+02  0.7818608E-02  0.1302507E+00
          2   -1    0    0  501    0  0.00000000000E+00  0.00000000000E+00  0.12244726128E+02  0.12244726394E+02  0.25500000000E-02 0. -1.
         -2   -1    0    0    0  501 -0.00000000000E+00 -0.00000000000E+00 -0.16590185804E+03  0.16590185806E+03  0.25500000000E-02 0.  1.
         23    2    1    2    0    0  0.00000000000E+00  0.00000000000E+00 -0.15365713191E+03  0.17814658445E+03  0.90142616808E+02 0.  0.
    9000005    2    3    3    0    0 -0.12918463136E+02  0.33546789553E+02 -0.12926434667E+03  0.13470372830E+03  0.11981206868E+02 0.  0.
         22    1    3    3    0    0  0.12918463136E+02 -0.33546789553E+02 -0.24392785239E+02  0.43442856154E+02  0.00000000000E+00 0.  1.
         22    1    4    4    0    0 -0.53962793468E+01  0.97140516805E+01 -0.23049739797E+02  0.25588535236E+02  0.00000000000E+00 0.  1.
         22    1    4    4    0    0 -0.75221837889E+01  0.23832737872E+02 -0.10621460687E+03  0.10911519306E+03  0.00000000000E+00 0.  1.
<mgrwt>
<rscale>  0 0.90142617E+02</rscale>
<asrwt>0</asrwt>
<pdfrwt beam="1">  1        2 0.18838042E-02 0.90142617E+02</pdfrwt>
<pdfrwt beam="2">  1       -2 0.25523361E-01 0.90142617E+02</pdfrwt>
<totfact> 0.69244302E+04</totfact>
</mgrwt>
</event>
<event>
 7    1  0.3960685E-009  0.8923872E+02  0.7818608E-02  0.1304706E+00
          2   -1    0    0  501    0  0.00000000000E+00  0.00000000000E+00  0.58047135566E+03  0.58047135566E+03  0.25500000000E-02 0. -1.
         -2   -1    0    0    0  501 -0.00000000000E+00 -0.00000000000E+00 -0.34297764321E+01  0.34297773800E+01  0.25500000000E-02 0.  1.
         23    2    1    2    0    0  0.00000000000E+00  0.00000000000E+00  0.57704157922E+03  0.58390113304E+03  0.89238719254E+02 0.  0.
    9000005    2    3    3    0    0  0.84304717953E+01 -0.42190373423E+02  0.34818020047E+03  0.35103071596E+03  0.11916840491E+02 0.  0.
         22    1    3    3    0    0 -0.84304717953E+01  0.42190373423E+02  0.22886137876E+03  0.23287041708E+03  0.00000000000E+00 0.  1.
         22    1    4    4    0    0  0.20083721590E+00 -0.68415086896E+01  0.29155015468E+02  0.29947646045E+02  0.00000000000E+00 0. -1.
         22    1    4    4    0    0  0.82296345794E+01 -0.35348864734E+02  0.31902518500E+03  0.32108306992E+03  0.00000000000E+00 0. -1.
<mgrwt>
<rscale>  0 0.89238719E+02</rscale>
<asrwt>0</asrwt>
<pdfrwt beam="1">  1        2 0.89303270E-01 0.89238719E+02</pdfrwt>
<pdfrwt beam="2">  1       -2 0.52765808E-03 0.89238719E+02</pdfrwt>
<totfact> 0.23885276E+05</totfact>
</mgrwt>
</event>
<event>
 7    1  0.3960685E-009  0.9201206E+02  0.7818608E-02  0.1298051E+00
          2   -1    0    0  501    0  0.00000000000E+00  0.00000000000E+00  0.70511515971E+02  0.70511516017E+02  0.25500000000E-02 0. -1.
         -2   -1    0    0    0  501 -0.00000000000E+00 -0.00000000000E+00 -0.30017148214E+02  0.30017148322E+02  0.25500000000E-02 0.  1.
         23    2    1    2    0    0 -0.44408920985E-15  0.35527136788E-14  0.40494367757E+02  0.10052866434E+03  0.92012056459E+02 0.  0.
    9000005    2    3    3    0    0  0.25928571494E+01 -0.30564252169E+02  0.56511693881E+02  0.65924457153E+02  0.14545311507E+02 0.  0.
         22    1    3    3    0    0 -0.25928571494E+01  0.30564252169E+02 -0.16017326124E+02  0.34604207186E+02  0.00000000000E+00 0.  1.
         22    1    4    4    0    0 -0.22187412280E+01 -0.17584718404E+02  0.43307646894E+02  0.46794202776E+02  0.00000000000E+00 0. -1.
         22    1    4    4    0    0  0.48115983774E+01 -0.12979533765E+02  0.13204046987E+02  0.19130254377E+02  0.00000000000E+00 0. -1.
<mgrwt>
<rscale>  0 0.92012056E+02</rscale>
<asrwt>0</asrwt>
<pdfrwt beam="1">  1        2 0.10847925E-01 0.92012056E+02</pdfrwt>
<pdfrwt beam="2">  1       -2 0.46180229E-02 0.92012056E+02</pdfrwt>
<totfact> 0.10804733E+05</totfact>
</mgrwt>
</event>
<event>
 7    1  0.3960685E-009  0.9077194E+02  0.7818608E-02  0.1300993E+00
          2   -1    0    0  501    0  0.00000000000E+00  0.00000000000E+00  0.19174719522E+02  0.19174719692E+02  0.25500000000E-02 0. -1.
         -2   -1    0    0    0  501 -0.00000000000E+00 -0.00000000000E+00 -0.10742719558E+03  0.10742719561E+03  0.25500000000E-02 0.  1.
         23    2    1    2    0    0  0.00000000000E+00 -0.88817841970E-15 -0.88252476058E+02  0.12660191530E+03  0.90771941853E+02 0.  0.
    9000005    2    3    3    0    0 -0.43986623316E+02 -0.73088829561E+01 -0.53282712902E+02  0.69935107240E+02  0.79767743861E+01 0.  0.
         22    1    3    3    0    0  0.43986623316E+02  0.73088829561E+01 -0.34969763156E+02  0.56666808062E+02  0.00000000000E+00 0. -1.
         22    1    4    4    0    0 -0.55566358883E+01  0.15797745619E+01 -0.55169424641E+01  0.79880250509E+01  0.00000000000E+00 0.  1.
         22    1    4    4    0    0 -0.38429987428E+02 -0.88886575180E+01 -0.47765770438E+02  0.61947082189E+02  0.00000000000E+00 0.  1.
<mgrwt>
<rscale>  0 0.90771942E+02</rscale>
<asrwt>0</asrwt>
<pdfrwt beam="1">  1        2 0.29499569E-02 0.90771942E+02</pdfrwt>
<pdfrwt beam="2">  1       -2 0.16527261E-01 0.90771942E+02</pdfrwt>
<totfact> 0.78966425E+04</totfact>
</mgrwt>
</event>
<event>
 7    1  0.3960685E-009  0.9388962E+02  0.7818608E-02  0.1293697E+00
         -2   -1    0    0    0  501 -0.00000000000E+00  0.00000000000E+00  0.68144648254E+02  0.68144648301E+02  0.25500000000E-02 0. -1.
          2   -1    0    0  501    0  0.00000000000E+00 -0.00000000000E+00 -0.32340254542E+02  0.32340254643E+02  0.25500000000E-02 0.  1.
         23    2    1    2    0    0 -0.35527136788E-14 -0.17763568394E-14  0.35804393711E+02  0.10048490294E+03  0.93889621954E+02 0.  0.
    9000005    2    3    3    0    0 -0.18477275782E+02 -0.92464573291E+01  0.62946398090E+02  0.66373393227E+02  0.40338074391E+01 0.  0.
         22    1    3    3    0    0  0.18477275782E+02  0.92464573291E+01 -0.27142004379E+02  0.34111509717E+02  0.00000000000E+00 0.  1.
         22    1    4    4    0    0 -0.96497644020E+00 -0.10976869481E+01  0.22972415174E+01  0.27227586664E+01  0.00000000000E+00 0. -1.
         22    1    4    4    0    0 -0.17512299342E+02 -0.81487703811E+01  0.60649156573E+02  0.63650634561E+02  0.00000000000E+00 0. -1.
<mgrwt>
<rscale>  0 0.93889622E+02</rscale>
<asrwt>0</asrwt>
<pdfrwt beam="2">  1        2 0.49754238E-02 0.93889622E+02</pdfrwt>
<pdfrwt beam="1">  1       -2 0.10483792E-01 0.93889622E+02</pdfrwt>
<totfact> 0.82742473E+04</totfact>
</mgrwt>
</event>
<event>
 7    1  0.3960685E-009  0.8702627E+02  0.7818608E-02  0.1310217E+00
         -2   -1    0    0    0  501 -0.00000000000E+00  0.00000000000E+00  0.95461924740E+01  0.95461928146E+01  0.25500000000E-02 0.  1.
          2   -1    0    0  501    0  0.00000000000E+00 -0.00000000000E+00 -0.19834010211E+03  0.19834010213E+03  0.25500000000E-02 0. -1.
         23    2    1    2    0    0  0.00000000000E+00  0.00000000000E+00 -0.18879390964E+03  0.20788629494E+03  0.87026267924E+02 0.  0.
    9000005    2    3    3    0    0 -0.15375959471E+02  0.24552887327E+02 -0.18618284294E+02  0.35262403587E+02  0.75849977524E+01 0.  0.
         22    1    3    3    0    0  0.15375959471E+02 -0.24552887327E+02 -0.17017562534E+03  0.17262389136E+03  0.00000000000E+00 0. -1.
         22    1    4    4    0    0 -0.74092356406E+01  0.16280586530E+02 -0.14618844208E+02  0.23101187773E+02  0.00000000000E+00 0.  1.
         22    1    4    4    0    0 -0.79667238307E+01  0.82723007973E+01 -0.39994400861E+01  0.12161215814E+02  0.00000000000E+00 0.  1.
<mgrwt>
<rscale>  0 0.87026268E+02</rscale>
<asrwt>0</asrwt>
<pdfrwt beam="2">  1        2 0.30513859E-01 0.87026268E+02</pdfrwt>
<pdfrwt beam="1">  1       -2 0.14686452E-02 0.87026268E+02</pdfrwt>
<totfact> 0.17475409E+05</totfact>
</mgrwt>
</event>
<event>
 7    1  0.3960685E-009  0.9175299E+02  0.7818608E-02  0.1298661E+00
          2   -1    0    0  501    0  0.00000000000E+00  0.00000000000E+00  0.23375137126E+02  0.23375137265E+02  0.25500000000E-02 0.  1.
         -2   -1    0    0    0  501 -0.00000000000E+00 -0.00000000000E+00 -0.90038089262E+02  0.90038089298E+02  0.25500000000E-02 0. -1.
         23    2    1    2    0    0  0.00000000000E+00  0.55511151231E-16 -0.66662952136E+02  0.11341322656E+03  0.91752987810E+02 0.  0.
    9000005    2    3    3    0    0 -0.43100067959E+02 -0.34835540827E+00 -0.14484911510E+02  0.45735422719E+02  0.49172167186E+01 0.  0.
         22    1    3    3    0    0  0.43100067959E+02  0.34835540827E+00 -0.52178040626E+02  0.67677803844E+02  0.00000000000E+00 0. -1.
         22    1    4    4    0    0 -0.54083135474E+01  0.19109573691E-01 -0.15712040224E+00  0.54106291153E+01  0.00000000000E+00 0.  1.
         22    1    4    4    0    0 -0.37691754412E+02 -0.36746498196E+00 -0.14327791108E+02  0.40324793604E+02  0.00000000000E+00 0.  1.
<mgrwt>
<rscale>  0 0.91752988E+02</rscale>
<asrwt>0</asrwt>
<pdfrwt beam="1">  1        2 0.35961750E-02 0.91752988E+02</pdfrwt>
<pdfrwt beam="2">  1       -2 0.13852014E-01 0.91752988E+02</pdfrwt>
<totfact> 0.81020529E+04</totfact>
</mgrwt>
</event>
<event>
 7    1  0.3960685E-009  0.9093976E+02  0.7818608E-02  0.1300592E+00
         -2   -1    0    0    0  501 -0.00000000000E+00  0.00000000000E+00  0.81605936183E+01  0.81605940167E+01  0.25500000000E-02 0.  1.
          2   -1    0    0  501    0  0.00000000000E+00 -0.00000000000E+00 -0.25335291111E+03  0.25335291112E+03  0.25500000000E-02 0. -1.
         23    2    1    2    0    0  0.00000000000E+00  0.00000000000E+00 -0.24519231749E+03  0.26151350514E+03  0.90939764754E+02 0.  0.
    9000005    2    3    3    0    0 -0.32759447025E+02 -0.27780344680E+02 -0.82965092213E+02  0.93696338135E+02  0.71322040133E+01 0.  0.
         22    1    3    3    0    0  0.32759447025E+02  0.27780344680E+02 -0.16222722528E+03  0.16781716701E+03  0.00000000000E+00 0. -1.
         22    1    4    4    0    0 -0.17978651941E+02 -0.14714911011E+02 -0.37178283927E+02  0.43840453094E+02  0.00000000000E+00 0. -1.
         22    1    4    4    0    0 -0.14780795084E+02 -0.13065433669E+02 -0.45786808286E+02  0.49855885041E+02  0.00000000000E+00 0. -1.
<mgrwt>
<rscale>  0 0.90939765E+02</rscale>
<asrwt>0</asrwt>
<pdfrwt beam="2">  1        2 0.38977365E-01 0.90939765E+02</pdfrwt>
<pdfrwt beam="1">  1       -2 0.12554762E-02 0.90939765E+02</pdfrwt>
<totfact> 0.16987034E+05</totfact>
</mgrwt>
</event>
<event>
 7    1  0.3960685E-009  0.9631646E+02  0.7818608E-02  0.1288238E+00
         -2   -1    0    0    0  501 -0.00000000000E+00  0.00000000000E+00  0.34272745552E+03  0.34272745553E+03  0.25500000000E-02 0.  1.
          2   -1    0    0  501    0  0.00000000000E+00 -0.00000000000E+00 -0.67669373948E+01  0.67669378752E+01  0.25500000000E-02 0. -1.
         23    2    1    2    0    0  0.88817841970E-15  0.00000000000E+00  0.33596051813E+03  0.34949439341E+03  0.96316464233E+02 0.  0.
    9000005    2    3    3    0    0 -0.59644920751E+01 -0.98025058993E+01  0.33743045870E+03  0.33792611726E+03  0.14250683667E+02 0.  0.
         22    1    3    3    0    0  0.59644920751E+01  0.98025058993E+01 -0.14699405705E+01  0.11568276142E+02  0.00000000000E+00 0. -1.
         22    1    4    4    0    0 -0.94464252841E+01 -0.76761944990E+01  0.30460352914E+03  0.30484663173E+03  0.00000000000E+00 0.  1.
         22    1    4    4    0    0  0.34819332090E+01 -0.21263114003E+01  0.32826929560E+02  0.33079485537E+02  0.00000000000E+00 0.  1.
<mgrwt>
<rscale>  0 0.96316464E+02</rscale>
<asrwt>0</asrwt>
<pdfrwt beam="2">  1        2 0.10410672E-02 0.96316464E+02</pdfrwt>
<pdfrwt beam="1">  1       -2 0.52727309E-01 0.96316464E+02</pdfrwt>
<totfact> 0.40929629E+04</totfact>
</mgrwt>
</event>
<event>
 7    1  0.3960685E-009  0.1214824E+03  0.7818608E-02  0.1240671E+00
         -2   -1    0    0    0  501 -0.00000000000E+00  0.00000000000E+00  0.71853083838E+02  0.71853083884E+02  0.25500000000E-02 0.  1.
          2   -1    0    0  501    0  0.00000000000E+00 -0.00000000000E+00 -0.51347757319E+02  0.51347757382E+02  0.25500000000E-02 0. -1.
         23    2    1    2    0    0  0.44408920985E-15  0.00000000000E+00  0.20505326520E+02  0.12320084127E+03  0.12148242207E+03 0.  0.
    9000005    2    3    3    0    0  0.26963284118E+01 -0.59724894442E+02  0.53249649739E+00  0.60167142802E+02  0.67430199033E+01 0.  0.
         22    1    3    3    0    0 -0.26963284118E+01  0.59724894442E+02  0.19972830022E+02  0.63033698464E+02  0.00000000000E+00 0.  1.
         22    1    4    4    0    0 -0.18914004092E+01 -0.15001591425E+02  0.15342157533E+01  0.15197991932E+02  0.00000000000E+00 0. -1.
         22    1    4    4    0    0  0.45877288210E+01 -0.44723303017E+02 -0.10017192559E+01  0.44969150870E+02  0.00000000000E+00 0. -1.
<mgrwt>
<rscale>  0 0.12148242E+03</rscale>
<asrwt>0</asrwt>
<pdfrwt beam="2">  1        2 0.78996550E-02 0.12148242E+03</pdfrwt>
<pdfrwt beam="1">  1       -2 0.11054321E-01 0.12148242E+03</pdfrwt>
<totfact> 0.43816957E+04</totfact>
</mgrwt>
</event>
<event>
 7    1  0.3960685E-009  0.9017210E+02  0.7818608E-02  0.1302435E+00
         -2   -1    0    0    0  501 -0.00000000000E+00  0.00000000000E+00  0.23958278650E+03  0.23958278651E+03  0.25500000000E-02 0.  1.
          2   -1    0    0  501    0  0.00000000000E+00 -0.00000000000E+00 -0.84845485655E+01  0.84845489487E+01  0.25500000000E-02 0. -1.
         23    2    1    2    0    0 -0.35527136788E-14 -0.11102230246E-15  0.23109823794E+03  0.24806733546E+03  0.90172098495E+02 0.  0.
    9000005    2    3    3    0    0  0.31981760147E+02  0.18031026471E+00  0.20220016750E+03  0.20496322929E+03  0.10107033726E+02 0.  0.
         22    1    3    3    0    0 -0.31981760147E+02 -0.18031026471E+00  0.28898070434E+02  0.43104106170E+02  0.00000000000E+00 0. -1.
         22    1    4    4    0    0  0.18369473153E+02  0.34105617389E+01  0.91950156814E+02  0.93829104298E+02  0.00000000000E+00 0.  1.
         22    1    4    4    0    0  0.13612286995E+02 -0.32302514742E+01  0.11025001069E+03  0.11113412499E+03  0.00000000000E+00 0.  1.
<mgrwt>
<rscale>  0 0.90172098E+02</rscale>
<asrwt>0</asrwt>
<pdfrwt beam="2">  1        2 0.13053154E-02 0.90172098E+02</pdfrwt>
<pdfrwt beam="1">  1       -2 0.36858884E-01 0.90172098E+02</pdfrwt>
<totfact> 0.59018460E+04</totfact>
</mgrwt>
</event>
<event>
 7    1  0.3960685E-009  0.9417524E+02  0.7818608E-02  0.1293045E+00
          2   -1    0    0  501    0  0.00000000000E+00  0.00000000000E+00  0.56248500787E+03  0.56248500787E+03  0.25500000000E-02 0. -1.
         -2   -1    0    0    0  501 -0.00000000000E+00 -0.00000000000E+00 -0.39418717667E+01  0.39418725915E+01  0.25500000000E-02 0.  1.
         23    2    1    2    0    0  0.00000000000E+00  0.00000000000E+00  0.55854313610E+03  0.56642688046E+03  0.94175241055E+02 0.  0.
    9000005    2    3    3    0    0 -0.36132309320E+02  0.16373637615E+02  0.42554146383E+03  0.42763536555E+03  0.14588647807E+02 0.  0.
         22    1    3    3    0    0  0.36132309320E+02 -0.16373637615E+02  0.13300167227E+03  0.13879151491E+03  0.00000000000E+00 0. -1.
         22    1    4    4    0    0 -0.23807856861E+02  0.15212552390E+02  0.34416652215E+03  0.34532424006E+03  0.00000000000E+00 0.  1.
         22    1    4    4    0    0 -0.12324452460E+02  0.11610852248E+01  0.81374941676E+02  0.82311125494E+02  0.00000000000E+00 0.  1.
<mgrwt>
<rscale>  0 0.94175241E+02</rscale>
<asrwt>0</asrwt>
<pdfrwt beam="1">  1        2 0.86536037E-01 0.94175241E+02</pdfrwt>
<pdfrwt beam="2">  1       -2 0.60644270E-03 0.94175241E+02</pdfrwt>
<totfact> 0.20523054E+05</totfact>
</mgrwt>
</event>
<event>
 7    1  0.3960685E-009  0.9247846E+02  0.7818608E-02  0.1296958E+00
          2   -1    0    0  501    0  0.00000000000E+00  0.00000000000E+00  0.72741829686E+02  0.72741829730E+02  0.25500000000E-02 0. -1.
         -2   -1    0    0    0  501 -0.00000000000E+00 -0.00000000000E+00 -0.29392526844E+02  0.29392526955E+02  0.25500000000E-02 0.  1.
         23    2    1    2    0    0  0.00000000000E+00  0.00000000000E+00  0.43349302841E+02  0.10213435669E+03  0.92478455646E+02 0.  0.
    9000005    2    3    3    0    0  0.15864964163E+02 -0.21139394169E+01 -0.24158115811E+02  0.32755560207E+02  0.15269130204E+02 0.  0.
         22    1    3    3    0    0 -0.15864964163E+02  0.21139394169E+01  0.67507418652E+02  0.69378796479E+02  0.00000000000E+00 0. -1.
         22    1    4    4    0    0  0.14031265912E+02  0.12963705410E+01 -0.25087145145E+02  0.28773631179E+02  0.00000000000E+00 0.  1.
         22    1    4    4    0    0  0.18336982506E+01 -0.34103099578E+01  0.92902933421E+00  0.39819290283E+01  0.00000000000E+00 0.  1.
<mgrwt>
<rscale>  0 0.92478456E+02</rscale>
<asrwt>0</asrwt>
<pdfrwt beam="1">  1        2 0.11191051E-01 0.92478456E+02</pdfrwt>
<pdfrwt beam="2">  1       -2 0.45219273E-02 0.92478456E+02</pdfrwt>
<totfact> 0.10746056E+05</totfact>
</mgrwt>
</event>
<event>
 7    1  0.3960685E-009  0.9100544E+02  0.7818608E-02  0.1300435E+00
         -2   -1    0    0    0  501 -0.00000000000E+00  0.00000000000E+00  0.12489270904E+01  0.12489296936E+01  0.25500000000E-02 0. -1.
          2   -1    0    0  501    0  0.00000000000E+00 -0.00000000000E+00 -0.16578191034E+04  0.16578191034E+04  0.25500000000E-02 0.  1.
         23    2    1    2    0    0  0.17763568394E-14  0.00000000000E+00 -0.16565701763E+04  0.16590680331E+04  0.91005436107E+02 0.  0.
    9000005    2    3    3    0    0 -0.14800551501E+02  0.15832113686E+02 -0.15551744396E+04  0.15553819319E+04  0.13255357125E+02 0.  0.
         22    1    3    3    0    0  0.14800551501E+02 -0.15832113686E+02 -0.10139573669E+03  0.10368610113E+03  0.00000000000E+00 0. -1.
         22    1    4    4    0    0 -0.14789480771E+02  0.14550525371E+02 -0.10452707135E+04  0.10454765952E+04  0.00000000000E+00 0. -1.
         22    1    4    4    0    0 -0.11070729982E-01  0.12815883148E+01 -0.50990372610E+03  0.50990533678E+03  0.00000000000E+00 0. -1.
<mgrwt>
<rscale>  0 0.91005436E+02</rscale>
<asrwt>0</asrwt>
<pdfrwt beam="2">  1        2 0.25504733E+00 0.91005436E+02</pdfrwt>
<pdfrwt beam="1">  1       -2 0.19214416E-03 0.91005436E+02</pdfrwt>
<totfact> 0.22656477E+05</totfact>
</mgrwt>
</event>
<event>
 7    1  0.3960685E-009  0.9076027E+02  0.7818608E-02  0.1301021E+00
          2   -1    0    0  501    0  0.00000000000E+00  0.00000000000E+00  0.56825937523E+02  0.56825937580E+02  0.25500000000E-02 0. -1.
         -2   -1    0    0    0  501 -0.00000000000E+00 -0.00000000000E+00 -0.36239733618E+02  0.36239733708E+02  0.25500000000E-02 0.  1.
         23    2    1    2    0    0 -0.35527136788E-14  0.44408920985E-15  0.20586203905E+02  0.93065671288E+02  0.90760274245E+02 0.  0.
    9000005    2    3    3    0    0 -0.22124206684E+02  0.28649842301E+01  0.50476723616E+02  0.55767791661E+02  0.80285928872E+01 0.  0.
         22    1    3    3    0    0  0.22124206684E+02 -0.28649842301E+01 -0.29890519711E+02  0.37297879627E+02  0.00000000000E+00 0.  1.
         22    1    4    4    0    0 -0.21735193671E+02  0.33447037539E+01  0.43298138877E+02  0.48562686472E+02  0.00000000000E+00 0.  1.
         22    1    4    4    0    0 -0.38901301343E+00 -0.47971952380E+00  0.71785847383E+01  0.72051051895E+01  0.00000000000E+00 0.  1.
<mgrwt>
<rscale>  0 0.90760274E+02</rscale>
<asrwt>0</asrwt>
<pdfrwt beam="1">  1        2 0.87424518E-02 0.90760274E+02</pdfrwt>
<pdfrwt beam="2">  1       -2 0.55753437E-02 0.90760274E+02</pdfrwt>
<totfact> 0.10590364E+05</totfact>
</mgrwt>
</event>
<event>
 7    1  0.3960685E-009  0.9059766E+02  0.7818608E-02  0.1301411E+00
         -2   -1    0    0    0  501 -0.00000000000E+00  0.00000000000E+00  0.50411097445E+01  0.50411103894E+01  0.25500000000E-02 0. -1.
          2   -1    0    0  501    0  0.00000000000E+00 -0.00000000000E+00 -0.40705003635E+03  0.40705003636E+03  0.25500000000E-02 0.  1.
         23    2    1    2    0    0  0.00000000000E+00  0.00000000000E+00 -0.40200892661E+03  0.41209114675E+03  0.90597660881E+02 0.  0.
    9000005    2    3    3    0    0  0.33758760428E+02 -0.19251376584E+02 -0.30009826523E+03  0.30302212131E+03  0.15911247856E+02 0.  0.
         22    1    3    3    0    0 -0.33758760428E+02  0.19251376584E+02 -0.10191066138E+03  0.10906902543E+03  0.00000000000E+00 0. -1.
         22    1    4    4    0    0  0.25550391147E+02 -0.58528407592E+01 -0.19585677062E+03  0.19760301827E+03  0.00000000000E+00 0.  1.
         22    1    4    4    0    0  0.82083692814E+01 -0.13398535825E+02 -0.10424149461E+03  0.10541910304E+03  0.00000000000E+00 0.  1.
<mgrwt>
<rscale>  0 0.90597661E+02</rscale>
<asrwt>0</asrwt>
<pdfrwt beam="2">  1        2 0.62623057E-01 0.90597661E+02</pdfrwt>
<pdfrwt beam="1">  1       -2 0.77555572E-03 0.90597661E+02</pdfrwt>
<totfact> 0.20429670E+05</totfact>
</mgrwt>
</event>
<event>
 7    1  0.3960685E-009  0.9192959E+02  0.7818608E-02  0.1298245E+00
         -2   -1    0    0    0  501 -0.00000000000E+00  0.00000000000E+00  0.20162458413E+01  0.20162474538E+01  0.25500000000E-02 0.  1.
          2   -1    0    0  501    0  0.00000000000E+00 -0.00000000000E+00 -0.10478689643E+04  0.10478689643E+04  0.25500000000E-02 0. -1.
         23    2    1    2    0    0  0.17763568394E-14  0.00000000000E+00 -0.10458527185E+04  0.10498852118E+04  0.91929588047E+02 0.  0.
    9000005    2    3    3    0    0 -0.12011456603E+02  0.20093126350E+02 -0.97366271419E+03  0.97399446441E+03  0.99059016051E+01 0.  0.
         22    1    3    3    0    0  0.12011456603E+02 -0.20093126350E+02 -0.72190004283E+02  0.75890747359E+02  0.00000000000E+00 0.  1.
         22    1    4    4    0    0 -0.72110038588E+01  0.18719190025E+02 -0.70492711809E+03  0.70521248463E+03  0.00000000000E+00 0.  1.
         22    1    4    4    0    0 -0.48004527439E+01  0.13739363250E+01 -0.26873559610E+03  0.26878197979E+03  0.00000000000E+00 0.  1.
<mgrwt>
<rscale>  0 0.91929588E+02</rscale>
<asrwt>0</asrwt>
<pdfrwt beam="2">  1        2 0.16121018E+00 0.91929588E+02</pdfrwt>
<pdfrwt beam="1">  1       -2 0.31019263E-03 0.91929588E+02</pdfrwt>
<totfact> 0.24495903E+05</totfact>
</mgrwt>
</event>
<event>
 7    1  0.3960685E-009  0.8946159E+02  0.7818608E-02  0.1304161E+00
          2   -1    0    0  501    0  0.00000000000E+00  0.00000000000E+00  0.30340522598E+03  0.30340522599E+03  0.25500000000E-02 0. -1.
         -2   -1    0    0    0  501 -0.00000000000E+00 -0.00000000000E+00 -0.65946260234E+01  0.65946265164E+01  0.25500000000E-02 0.  1.
         23    2    1    2    0    0  0.00000000000E+00  0.00000000000E+00  0.29681059996E+03  0.30999985251E+03  0.89461591244E+02 0.  0.
    9000005    2    3    3    0    0 -0.20008231242E+01  0.41063113310E+02  0.20888534301E+03  0.21293784461E+03  0.43882314365E+01 0.  0.
         22    1    3    3    0    0  0.20008231242E+01 -0.41063113310E+02  0.87925256952E+02  0.97062007902E+02  0.00000000000E+00 0. -1.
         22    1    4    4    0    0  0.13582660119E+01  0.86294346383E+01  0.45105596666E+02  0.45943736019E+02  0.00000000000E+00 0. -1.
         22    1    4    4    0    0 -0.33590891362E+01  0.32433678672E+02  0.16377974634E+03  0.16699410859E+03  0.00000000000E+00 0. -1.
<mgrwt>
<rscale>  0 0.89461591E+02</rscale>
<asrwt>0</asrwt>
<pdfrwt beam="1">  1        2 0.46677732E-01 0.89461591E+02</pdfrwt>
<pdfrwt beam="2">  1       -2 0.10145578E-02 0.89461591E+02</pdfrwt>
<totfact> 0.18977715E+05</totfact>
</mgrwt>
</event>
<event>
 7    1  0.3960685E-009  0.9274162E+02  0.7818608E-02  0.1296345E+00
         -2   -1    0    0    0  501 -0.00000000000E+00  0.00000000000E+00  0.10761241527E+02  0.10761241829E+02  0.25500000000E-02 0. -1.
          2   -1    0    0  501    0  0.00000000000E+00 -0.00000000000E+00 -0.19981450703E+03  0.19981450704E+03  0.25500000000E-02 0.  1.
         23    2    1    2    0    0 -0.35527136788E-14 -0.71054273576E-14 -0.18905326550E+03  0.21057574887E+03  0.92741623971E+02 0.  0.
    9000005    2    3    3    0    0 -0.27093923527E+02 -0.36790532221E+02 -0.10433072701E+03  0.11431811291E+03  0.98033865161E+01 0.  0.
         22    1    3    3    0    0  0.27093923527E+02  0.36790532221E+02 -0.84722538488E+02  0.96257635963E+02  0.00000000000E+00 0.  1.
         22    1    4    4    0    0 -0.18167967523E+02 -0.29953192635E+02 -0.85305799652E+02  0.92219023240E+02  0.00000000000E+00 0. -1.
         22    1    4    4    0    0 -0.89259560044E+01 -0.68373395856E+01 -0.19024927359E+02  0.22099089670E+02  0.00000000000E+00 0. -1.
<mgrwt>
<rscale>  0 0.92741624E+02</rscale>
<asrwt>0</asrwt>
<pdfrwt beam="2">  1        2 0.30740691E-01 0.92741624E+02</pdfrwt>
<pdfrwt beam="1">  1       -2 0.16555758E-02 0.92741624E+02</pdfrwt>
<totfact> 0.14769118E+05</totfact>
</mgrwt>
</event>
<event>
 7    1  0.3960685E-009  0.9092395E+02  0.7818608E-02  0.1300630E+00
         -2   -1    0    0    0  501 -0.00000000000E+00  0.00000000000E+00  0.28267809529E+01  0.28267821031E+01  0.25500000000E-02 0.  1.
          2   -1    0    0  501    0  0.00000000000E+00 -0.00000000000E+00 -0.73114647276E+03  0.73114647276E+03  0.25500000000E-02 0. -1.
         23    2    1    2    0    0  0.00000000000E+00  0.34694469520E-16 -0.72831969181E+03  0.73397325487E+03  0.90923953868E+02 0.  0.
    9000005    2    3    3    0    0 -0.16128785129E+02 -0.57256564460E-01 -0.70642616418E+03  0.70678010242E+03  0.15493442174E+02 0.  0.
         22    1    3    3    0    0  0.16128785129E+02  0.57256564460E-01 -0.21893527624E+02  0.27193152445E+02  0.00000000000E+00 0.  1.
         22    1    4    4    0    0 -0.80009150784E+01  0.38387663090E+01 -0.13933295588E+03  0.13961526909E+03  0.00000000000E+00 0. -1.
         22    1    4    4    0    0 -0.81278700508E+01 -0.38960228735E+01 -0.56709320830E+03  0.56716483333E+03  0.00000000000E+00 0. -1.
<mgrwt>
<rscale>  0 0.90923954E+02</rscale>
<asrwt>0</asrwt>
<pdfrwt beam="2">  1        2 0.11248392E+00 0.90923954E+02</pdfrwt>
<pdfrwt beam="1">  1       -2 0.43489005E-03 0.90923954E+02</pdfrwt>
<totfact> 0.24123174E+05</totfact>
</mgrwt>
</event>
<event>
 7    1  0.3960685E-009  0.9605766E+02  0.7818608E-02  0.1288812E+00
         -2   -1    0    0    0  501 -0.00000000000E+00  0.00000000000E+00  0.13389418408E+02  0.13389418651E+02  0.25500000000E-02 0.  1.
          2   -1    0    0  501    0  0.00000000000E+00 -0.00000000000E+00 -0.17228293378E+03  0.17228293380E+03  0.25500000000E-02 0. -1.
         23    2    1    2    0    0 -0.71054273576E-14  0.00000000000E+00 -0.15889351538E+03  0.18567235245E+03  0.96057655796E+02 0.  0.
    9000005    2    3    3    0    0 -0.38690738501E+02  0.12641849246E+02 -0.30887574434E+02  0.51350684378E+02  0.51049910421E+01 0.  0.
         22    1    3    3    0    0  0.38690738501E+02 -0.12641849246E+02 -0.12800594094E+03  0.13432166807E+03  0.00000000000E+00 0. -1.
         22    1    4    4    0    0 -0.12244107710E+02  0.28541785886E+01 -0.69770414831E+01  0.14378581880E+02  0.00000000000E+00 0.  1.
         22    1    4    4    0    0 -0.26446630791E+02  0.97876706572E+01 -0.23910532951E+02  0.36972102498E+02  0.00000000000E+00 0.  1.
<mgrwt>
<rscale>  0 0.96057656E+02</rscale>
<asrwt>0</asrwt>
<pdfrwt beam="2">  1        2 0.26505065E-01 0.96057656E+02</pdfrwt>
<pdfrwt beam="1">  1       -2 0.20599107E-02 0.96057656E+02</pdfrwt>
<totfact> 0.12730859E+05</totfact>
</mgrwt>
</event>
<event>
 7    1  0.3960685E-009  0.9156312E+02  0.7818608E-02  0.1299110E+00
          2   -1    0    0  501    0  0.00000000000E+00  0.00000000000E+00  0.60873540656E+02  0.60873540710E+02  0.25500000000E-02 0. -1.
         -2   -1    0    0    0  501 -0.00000000000E+00 -0.00000000000E+00 -0.34431232795E+02  0.34431232890E+02  0.25500000000E-02 0.  1.
         23    2    1    2    0    0 -0.35527136788E-14  0.35527136788E-14  0.26442307861E+02  0.95304773600E+02  0.91563116078E+02 0.  0.
    9000005    2    3    3    0    0  0.30634836685E+02 -0.28582043645E+02 -0.50934965532E+01  0.42864966223E+02  0.74856652678E+01 0.  0.
         22    1    3    3    0    0 -0.30634836685E+02  0.28582043645E+02  0.31535804414E+02  0.52439807377E+02  0.00000000000E+00 0. -1.
         22    1    4    4    0    0  0.17980172722E+02 -0.21142323318E+02 -0.49054974340E+01  0.28184186195E+02  0.00000000000E+00 0. -1.
         22    1    4    4    0    0  0.12654663963E+02 -0.74397203273E+01 -0.18799911918E+00  0.14680780028E+02  0.00000000000E+00 0. -1.
<mgrwt>
<rscale>  0 0.91563116E+02</rscale>
<asrwt>0</asrwt>
<pdfrwt beam="1">  1        2 0.93651600E-02 0.91563116E+02</pdfrwt>
<pdfrwt beam="2">  1       -2 0.52971128E-02 0.91563116E+02</pdfrwt>
<totfact> 0.10521910E+05</totfact>
</mgrwt>
</event>
<event>
 7    1  0.3960685E-009  0.9468005E+02  0.7818608E-02  0.1291898E+00
          2   -1    0    0  501    0  0.00000000000E+00  0.00000000000E+00  0.28466732229E+03  0.28466732230E+03  0.25500000000E-02 0. -1.
         -2   -1    0    0    0  501 -0.00000000000E+00 -0.00000000000E+00 -0.78726210413E+01  0.78726214543E+01  0.25500000000E-02 0.  1.
         23    2    1    2    0    0  0.00000000000E+00  0.35527136788E-14  0.27679470125E+03  0.29253994375E+03  0.94680050978E+02 0.  0.
    9000005    2    3    3    0    0  0.40580279053E+01 -0.26846808271E+02  0.25717742629E+03  0.25904283669E+03  0.15024777662E+02 0.  0.
         22    1    3    3    0    0 -0.40580279053E+01  0.26846808271E+02  0.19617274959E+02  0.33497107063E+02  0.00000000000E+00 0.  1.
         22    1    4    4    0    0 -0.26384648612E+01 -0.13039165296E+02  0.71113909340E+02  0.72347559945E+02  0.00000000000E+00 0. -1.
         22    1    4    4    0    0  0.66964927664E+01 -0.13807642974E+02  0.18606351695E+03  0.18669527675E+03  0.00000000000E+00 0. -1.
<mgrwt>
<rscale>  0 0.94680051E+02</rscale>
<asrwt>0</asrwt>
<pdfrwt beam="1">  1        2 0.43794975E-01 0.94680051E+02</pdfrwt>
<pdfrwt beam="2">  1       -2 0.12111724E-02 0.94680051E+02</pdfrwt>
<totfact> 0.15925997E+05</totfact>
</mgrwt>
</event>
<event>
 7    1  0.3960685E-009  0.9274380E+02  0.7818608E-02  0.1296340E+00
         -2   -1    0    0    0  501 -0.00000000000E+00  0.00000000000E+00  0.30083098949E+02  0.30083099057E+02  0.25500000000E-02 0.  1.
          2   -1    0    0  501    0  0.00000000000E+00 -0.00000000000E+00 -0.71480435293E+02  0.71480435339E+02  0.25500000000E-02 0. -1.
         23    2    1    2    0    0  0.00000000000E+00 -0.71054273576E-14 -0.41397336344E+02  0.10156353440E+03  0.92743797974E+02 0.  0.
    9000005    2    3    3    0    0  0.19475426816E+02 -0.37110536273E+02 -0.42157802360E+02  0.59646205513E+02  0.48893128510E+01 0.  0.
         22    1    3    3    0    0 -0.19475426816E+02  0.37110536273E+02  0.76046601662E+00  0.41917328883E+02  0.00000000000E+00 0. -1.
         22    1    4    4    0    0  0.10132083956E+02 -0.23614392646E+02 -0.23875566714E+02  0.35076222021E+02  0.00000000000E+00 0.  1.
         22    1    4    4    0    0  0.93433428601E+01 -0.13496143626E+02 -0.18282235646E+02  0.24569983492E+02  0.00000000000E+00 0.  1.
<mgrwt>
<rscale>  0 0.92743798E+02</rscale>
<asrwt>0</asrwt>
<pdfrwt beam="2">  1        2 0.10996990E-01 0.92743798E+02</pdfrwt>
<pdfrwt beam="1">  1       -2 0.46281691E-02 0.92743798E+02</pdfrwt>
<totfact> 0.10607792E+05</totfact>
</mgrwt>
</event>
<event>
 7    1  0.3960685E-009  0.9051862E+02  0.7818608E-02  0.1301601E+00
         -2   -1    0    0    0  501 -0.00000000000E+00  0.00000000000E+00  0.50279791348E+01  0.50279797814E+01  0.25500000000E-02 0.  1.
          2   -1    0    0  501    0  0.00000000000E+00 -0.00000000000E+00 -0.40740129090E+03  0.40740129091E+03  0.25500000000E-02 0. -1.
         23    2    1    2    0    0  0.00000000000E+00 -0.17763568394E-14 -0.40237331176E+03  0.41242927069E+03  0.90518624053E+02 0.  0.
    9000005    2    3    3    0    0  0.17453375517E+02 -0.14310654210E+02 -0.37944992570E+03  0.38025945922E+03  0.10275946562E+02 0.  0.
         22    1    3    3    0    0 -0.17453375517E+02  0.14310654210E+02 -0.22923386068E+02  0.32169811465E+02  0.00000000000E+00 0.  1.
         22    1    4    4    0    0  0.11048931864E+02 -0.84035155757E+01 -0.14909741023E+03  0.14974223087E+03  0.00000000000E+00 0.  1.
         22    1    4    4    0    0  0.64044436532E+01 -0.59071386339E+01 -0.23035251547E+03  0.23051722835E+03  0.00000000000E+00 0.  1.
<mgrwt>
<rscale>  0 0.90518624E+02</rscale>
<asrwt>0</asrwt>
<pdfrwt beam="2">  1        2 0.62677096E-01 0.90518624E+02</pdfrwt>
<pdfrwt beam="1">  1       -2 0.77353562E-03 0.90518624E+02</pdfrwt>
<totfact> 0.20483266E+05</totfact>
</mgrwt>
</event>
<event>
 7    1  0.3960685E-009  0.9083926E+02  0.7818608E-02  0.1300832E+00
          2   -1    0    0  501    0  0.00000000000E+00  0.00000000000E+00  0.18810579498E+03  0.18810579499E+03  0.25500000000E-02 0. -1.
         -2   -1    0    0    0  501 -0.00000000000E+00 -0.00000000000E+00 -0.10966928656E+02  0.10966928952E+02  0.25500000000E-02 0.  1.
         23    2    1    2    0    0  0.00000000000E+00  0.00000000000E+00  0.17713886632E+03  0.19907272395E+03  0.90839261654E+02 0.  0.
    9000005    2    3    3    0    0 -0.22685284518E+02 -0.83060660679E+01  0.17263857112E+03  0.17449904852E+03  0.78885251663E+01 0.  0.
         22    1    3    3    0    0  0.22685284518E+02  0.83060660679E+01  0.45002952057E+01  0.24573675430E+02  0.00000000000E+00 0.  1.
         22    1    4    4    0    0 -0.46529997778E+00  0.52595805849E+00  0.11208690975E+01  0.13226804158E+01  0.00000000000E+00 0.  1.
         22    1    4    4    0    0 -0.22219984540E+02 -0.88320241264E+01  0.17151770202E+03  0.17317636810E+03  0.00000000000E+00 0.  1.
<mgrwt>
<rscale>  0 0.90839262E+02</rscale>
<asrwt>0</asrwt>
<pdfrwt beam="1">  1        2 0.28939353E-01 0.90839262E+02</pdfrwt>
<pdfrwt beam="2">  1       -2 0.16872198E-02 0.90839262E+02</pdfrwt>
<totfact> 0.15282478E+05</totfact>
</mgrwt>
</event>
<event>
 7    1  0.3960685E-009  0.1130951E+03  0.7818608E-02  0.1254943E+00
         -2   -1    0    0    0  501 -0.00000000000E+00  0.00000000000E+00  0.82638697422E+01  0.82638701356E+01  0.25500000000E-02 0.  1.
          2   -1    0    0  501    0  0.00000000000E+00 -0.00000000000E+00 -0.38694012296E+03  0.38694012297E+03  0.25500000000E-02 0. -1.
         23    2    1    2    0    0  0.22204460493E-15  0.71054273576E-14 -0.37867625322E+03  0.39520399310E+03  0.11309505477E+03 0.  0.
    9000005    2    3    3    0    0  0.16794987531E+01  0.40081366838E+02 -0.32858561119E+03  0.33102916079E+03  0.15699455146E+01 0.  0.
         22    1    3    3    0    0 -0.16794987531E+01 -0.40081366838E+02 -0.50090642027E+02  0.64174832313E+02  0.00000000000E+00 0.  1.
         22    1    4    4    0    0  0.17204558015E+01  0.32221187732E+02 -0.26825675066E+03  0.27019039431E+03  0.00000000000E+00 0. -1.
         22    1    4    4    0    0 -0.40957048363E-01  0.78601791067E+01 -0.60328860533E+02  0.60838766475E+02  0.00000000000E+00 0. -1.
<mgrwt>
<rscale>  0 0.11309505E+03</rscale>
<asrwt>0</asrwt>
<pdfrwt beam="2">  1        2 0.59529236E-01 0.11309505E+03</pdfrwt>
<pdfrwt beam="1">  1       -2 0.12713649E-02 0.11309505E+03</pdfrwt>
<totfact> 0.11055158E+05</totfact>
</mgrwt>
</event>
<event>
 7    1  0.3960685E-009  0.9068449E+02  0.7818608E-02  0.1301203E+00
         -2   -1    0    0    0  501 -0.00000000000E+00  0.00000000000E+00  0.25061292243E+02  0.25061292373E+02  0.25500000000E-02 0.  1.
          2   -1    0    0  501    0  0.00000000000E+00 -0.00000000000E+00 -0.82035639049E+02  0.82035639089E+02  0.25500000000E-02 0. -1.
         23    2    1    2    0    0  0.00000000000E+00  0.00000000000E+00 -0.56974346806E+02  0.10709693146E+03  0.90684488941E+02 0.  0.
    9000005    2    3    3    0    0 -0.31279508747E+01  0.42946553754E+02 -0.13464377554E+02  0.45881672087E+02  0.83455266199E+01 0.  0.
         22    1    3    3    0    0  0.31279508747E+01 -0.42946553754E+02 -0.43509969252E+02  0.61215259375E+02  0.00000000000E+00 0.  1.
         22    1    4    4    0    0 -0.52007368753E+01  0.22390479216E+02 -0.48234869258E+01  0.23487172024E+02  0.00000000000E+00 0. -1.
         22    1    4    4    0    0  0.20727860006E+01  0.20556074538E+02 -0.86408906287E+01  0.22394500063E+02  0.00000000000E+00 0. -1.
<mgrwt>
<rscale>  0 0.90684489E+02</rscale>
<asrwt>0</asrwt>
<pdfrwt beam="2">  1        2 0.12620867E-01 0.90684489E+02</pdfrwt>
<pdfrwt beam="1">  1       -2 0.38555835E-02 0.90684489E+02</pdfrwt>
<totfact> 0.11743752E+05</totfact>
</mgrwt>
</event>
<event>
 6    1  0.3960685E-009  0.1824122E+03  0.7818608E-02  0.1165489E+00
         -2   -1    0    0    0  501 -0.00000000000E+00  0.00000000000E+00  0.15427829893E+02  0.15427830104E+02  0.25500000000E-02 0.  1.
          2   -1    0    0  501    0  0.00000000000E+00 -0.00000000000E+00 -0.53919150180E+03  0.53919150181E+03  0.25500000000E-02 0. -1.
    9000005    2    1    2    0    0  0.33442712258E+02 -0.84666844548E+02 -0.27762398888E+03  0.29218527709E+03  0.32042748428E+01 0.  0.
         22    1    1    2    0    0 -0.33442712258E+02  0.84666844548E+02 -0.24613968303E+03  0.26243405482E+03  0.00000000000E+00 0. -1.
         22    1    3    3    0    0  0.15356389676E+02 -0.38855351611E+02 -0.12230956629E+03  0.12924854760E+03  0.00000000000E+00 0. -1.
         22    1    3    3    0    0  0.18086322583E+02 -0.45811492937E+02 -0.15531442259E+03  0.16293672949E+03  0.00000000000E+00 0. -1.
<mgrwt>
<rscale>  0 0.18241222E+03</rscale>
<asrwt>0</asrwt>
<pdfrwt beam="2">  1        2 0.82952524E-01 0.18241222E+03</pdfrwt>
<pdfrwt beam="1">  1       -2 0.23735127E-02 0.18241222E+03</pdfrwt>
<totfact> 0.32932356E+04</totfact>
</mgrwt>
</event>
<event>
 7    1  0.3960685E-009  0.1008467E+03  0.7818608E-02  0.1278525E+00
          2   -1    0    0  501    0  0.00000000000E+00  0.00000000000E+00  0.31799959526E+02  0.31799959628E+02  0.25500000000E-02 0. -1.
         -2   -1    0    0    0  501 -0.00000000000E+00 -0.00000000000E+00 -0.79953419597E+02  0.79953419638E+02  0.25500000000E-02 0.  1.
         23    2    1    2    0    0  0.00000000000E+00  0.00000000000E+00 -0.48153460071E+02  0.11175337927E+03  0.10084672558E+03 0.  0.
    9000005    2    3    3    0    0  0.41486808960E+02  0.11552628433E+02 -0.51431913791E+02  0.68563486928E+02  0.14180671429E+02 0.  0.
         22    1    3    3    0    0 -0.41486808960E+02 -0.11552628433E+02  0.32784537197E+01  0.43189892338E+02  0.00000000000E+00 0.  1.
         22    1    4    4    0    0  0.29800160438E+02  0.22859132342E+01 -0.39075341690E+02  0.49195094163E+02  0.00000000000E+00 0. -1.
         22    1    4    4    0    0  0.11686648522E+02  0.92667151986E+01 -0.12356572101E+02  0.19368392766E+02  0.00000000000E+00 0. -1.
<mgrwt>
<rscale>  0 0.10084673E+03</rscale>
<asrwt>0</asrwt>
<pdfrwt beam="1">  1        2 0.48923015E-02 0.10084673E+03</pdfrwt>
<pdfrwt beam="2">  1       -2 0.12300526E-01 0.10084673E+03</pdfrwt>
<totfact> 0.66455901E+04</totfact>
</mgrwt>
</event>
<event>
 7    1  0.3960685E-009  0.9155385E+02  0.7818608E-02  0.1299132E+00
          2   -1    0    0  501    0  0.00000000000E+00  0.00000000000E+00  0.99337686487E+03  0.99337686487E+03  0.25500000000E-02 0. -1.
         -2   -1    0    0    0  501 -0.00000000000E+00 -0.00000000000E+00 -0.21094975049E+01  0.21094990462E+01  0.25500000000E-02 0.  1.
         23    2    1    2    0    0 -0.18041124150E-15 -0.35527136788E-14  0.99126736736E+03  0.99548636392E+03  0.91553848344E+02 0.  0.
    9000005    2    3    3    0    0  0.89778971764E-01  0.31095997215E+02  0.85887297740E+03  0.85948914484E+03  0.95827807463E+01 0.  0.
         22    1    3    3    0    0 -0.89778971764E-01 -0.31095997215E+02  0.13239438996E+03  0.13599721907E+03  0.00000000000E+00 0.  1.
         22    1    4    4    0    0  0.35111538529E+01  0.48444044140E+01  0.13593098128E+03  0.13606258901E+03  0.00000000000E+00 0. -1.
         22    1    4    4    0    0 -0.34213748811E+01  0.26251592801E+02  0.72294199612E+03  0.72342655583E+03  0.00000000000E+00 0. -1.
<mgrwt>
<rscale>  0 0.91553848E+02</rscale>
<asrwt>0</asrwt>
<pdfrwt beam="1">  1        2 0.15282728E+00 0.91553848E+02</pdfrwt>
<pdfrwt beam="2">  1       -2 0.32453805E-03 0.91553848E+02</pdfrwt>
<totfact> 0.24723625E+05</totfact>
</mgrwt>
</event>
<event>
 7    1  0.3960685E-009  0.9273700E+02  0.7818608E-02  0.1296356E+00
         -2   -1    0    0    0  501 -0.00000000000E+00  0.00000000000E+00  0.24519365497E+02  0.24519365629E+02  0.25500000000E-02 0.  1.
          2   -1    0    0  501    0  0.00000000000E+00 -0.00000000000E+00 -0.87687339654E+02  0.87687339692E+02  0.25500000000E-02 0. -1.
         23    2    1    2    0    0  0.00000000000E+00  0.00000000000E+00 -0.63167974158E+02  0.11220670532E+03  0.92737003185E+02 0.  0.
    9000005    2    3    3    0    0 -0.36305549651E+02  0.21856977531E+02 -0.54094312302E+02  0.68869057234E+02  0.45751523064E+01 0.  0.
         22    1    3    3    0    0  0.36305549651E+02 -0.21856977531E+02 -0.90736618559E+01  0.43337648087E+02  0.00000000000E+00 0.  1.
         22    1    4    4    0    0 -0.29403967911E+02  0.18391890756E+02 -0.46764547189E+02  0.58221798738E+02  0.00000000000E+00 0. -1.
         22    1    4    4    0    0 -0.69015817396E+01  0.34650867751E+01 -0.73297651133E+01  0.10647258496E+02  0.00000000000E+00 0. -1.
<mgrwt>
<rscale>  0 0.92737003E+02</rscale>
<asrwt>0</asrwt>
<pdfrwt beam="2">  1        2 0.13490360E-01 0.92737003E+02</pdfrwt>
<pdfrwt beam="1">  1       -2 0.37722101E-02 0.92737003E+02</pdfrwt>
<totfact> 0.11252723E+05</totfact>
</mgrwt>
</event>
<event>
 7    1  0.3960685E-009  0.9156805E+02  0.7818608E-02  0.1299098E+00
         -2   -1    0    0    0  501 -0.00000000000E+00  0.00000000000E+00  0.95795398793E+01  0.95795402187E+01  0.25500000000E-02 0.  1.
          2   -1    0    0  501    0  0.00000000000E+00 -0.00000000000E+00 -0.21881813915E+03  0.21881813916E+03  0.25500000000E-02 0. -1.
         23    2    1    2    0    0  0.00000000000E+00  0.22204460493E-15 -0.20923859927E+03  0.22839767938E+03  0.91568054053E+02 0.  0.
    9000005    2    3    3    0    0 -0.25142438460E+02 -0.16871678757E+01 -0.19911218852E+03  0.20124012165E+03  0.14728686241E+02 0.  0.
         22    1    3    3    0    0  0.25142438460E+02  0.16871678757E+01 -0.10126410749E+02  0.27157557729E+02  0.00000000000E+00 0.  1.
         22    1    4    4    0    0 -0.20706958735E+02  0.77070302816E+00 -0.18648590555E+03  0.18763359265E+03  0.00000000000E+00 0. -1.
         22    1    4    4    0    0 -0.44354797246E+01 -0.24578709039E+01 -0.12626282970E+02  0.13606529000E+02  0.00000000000E+00 0. -1.
<mgrwt>
<rscale>  0 0.91568054E+02</rscale>
<asrwt>0</asrwt>
<pdfrwt beam="2">  1        2 0.33664325E-01 0.91568054E+02</pdfrwt>
<pdfrwt beam="1">  1       -2 0.14737756E-02 0.91568054E+02</pdfrwt>
<totfact> 0.15799511E+05</totfact>
</mgrwt>
</event>
<event>
 7    1  0.3960685E-009  0.8935258E+02  0.7818608E-02  0.1304427E+00
         -2   -1    0    0    0  501 -0.00000000000E+00  0.00000000000E+00  0.17925878163E+02  0.17925878344E+02  0.25500000000E-02 0.  1.
          2   -1    0    0  501    0  0.00000000000E+00 -0.00000000000E+00 -0.11134578485E+03  0.11134578488E+03  0.25500000000E-02 0. -1.
         23    2    1    2    0    0 -0.35527136788E-14 -0.35527136788E-14 -0.93419906684E+02  0.12927166322E+03  0.89352582206E+02 0.  0.
    9000005    2    3    3    0    0 -0.24518718478E+02 -0.18164421068E+02 -0.26223426154E+01  0.33483817491E+02  0.13534238230E+02 0.  0.
         22    1    3    3    0    0  0.24518718478E+02  0.18164421068E+02 -0.90797564069E+02  0.95787845729E+02  0.00000000000E+00 0. -1.
         22    1    4    4    0    0 -0.14769304041E+01 -0.57467660215E+01 -0.41872969892E+01  0.72622378920E+01  0.00000000000E+00 0. -1.
         22    1    4    4    0    0 -0.23041788073E+02 -0.12417655047E+02  0.15649543738E+01  0.26221579599E+02  0.00000000000E+00 0. -1.
<mgrwt>
<rscale>  0 0.89352582E+02</rscale>
<asrwt>0</asrwt>
<pdfrwt beam="2">  1        2 0.17130120E-01 0.89352582E+02</pdfrwt>
<pdfrwt beam="1">  1       -2 0.27578275E-02 0.89352582E+02</pdfrwt>
<totfact> 0.13402828E+05</totfact>
</mgrwt>
</event>
<event>
 7    1  0.3960685E-009  0.8624124E+02  0.7818608E-02  0.1312218E+00
          2   -1    0    0  501    0  0.00000000000E+00  0.00000000000E+00  0.18116217255E+03  0.18116217257E+03  0.25500000000E-02 0. -1.
         -2   -1    0    0    0  501 -0.00000000000E+00 -0.00000000000E+00 -0.10263665834E+02  0.10263666151E+02  0.25500000000E-02 0.  1.
         23    2    1    2    0    0  0.00000000000E+00  0.00000000000E+00  0.17089850672E+03  0.19142583872E+03  0.86241243796E+02 0.  0.
    9000005    2    3    3    0    0 -0.19253350757E+02  0.19174456264E+02  0.15937303310E+03  0.16190994757E+03  0.87587758173E+01 0.  0.
         22    1    3    3    0    0  0.19253350757E+02 -0.19174456264E+02  0.11525473619E+02  0.29515891153E+02  0.00000000000E+00 0.  1.
         22    1    4    4    0    0 -0.23236755482E+00  0.45429636220E+01  0.26269429029E+02  0.26660371616E+02  0.00000000000E+00 0.  1.
         22    1    4    4    0    0 -0.19020983203E+02  0.14631492642E+02  0.13310360407E+03  0.13524957595E+03  0.00000000000E+00 0.  1.
<mgrwt>
<rscale>  0 0.86241244E+02</rscale>
<asrwt>0</asrwt>
<pdfrwt beam="1">  1        2 0.27871102E-01 0.86241244E+02</pdfrwt>
<pdfrwt beam="2">  1       -2 0.15790256E-02 0.86241244E+02</pdfrwt>
<totfact> 0.17338025E+05</totfact>
</mgrwt>
</event>
<event>
 7    1  0.3960685E-009  0.8925745E+02  0.7818608E-02  0.1304660E+00
         -2   -1    0    0    0  501 -0.00000000000E+00  0.00000000000E+00  0.17614038267E+03  0.17614038269E+03  0.25500000000E-02 0. -1.
          2   -1    0    0  501    0  0.00000000000E+00 -0.00000000000E+00 -0.11307590137E+02  0.11307590424E+02  0.25500000000E-02 0.  1.
         23    2    1    2    0    0  0.00000000000E+00  0.88817841970E-15  0.16483279254E+03  0.18744797312E+03  0.89257454198E+02 0.  0.
    9000005    2    3    3    0    0  0.12526672617E+02  0.76386686062E+01  0.17066226145E+03  0.17166033578E+03  0.11242624748E+02 0.  0.
         22    1    3    3    0    0 -0.12526672617E+02 -0.76386686062E+01 -0.58294689131E+01  0.15787637338E+02  0.00000000000E+00 0.  1.
         22    1    4    4    0    0 -0.12212895175E+01 -0.15282727842E+01  0.19183474058E+02  0.19282967685E+02  0.00000000000E+00 0. -1.
         22    1    4    4    0    0  0.13747962134E+02  0.91669413904E+01  0.15147878739E+03  0.15237736809E+03  0.00000000000E+00 0. -1.
<mgrwt>
<rscale>  0 0.89257454E+02</rscale>
<asrwt>0</asrwt>
<pdfrwt beam="2">  1        2 0.17396293E-02 0.89257454E+02</pdfrwt>
<pdfrwt beam="1">  1       -2 0.27098520E-01 0.89257454E+02</pdfrwt>
<totfact> 0.69356526E+04</totfact>
</mgrwt>
</event>
<event>
 7    1  0.3960685E-009  0.9040116E+02  0.7818608E-02  0.1301883E+00
         -2   -1    0    0    0  501 -0.00000000000E+00  0.00000000000E+00  0.13327886552E+02  0.13327886796E+02  0.25500000000E-02 0.  1.
          2   -1    0    0  501    0  0.00000000000E+00 -0.00000000000E+00 -0.15329454863E+03  0.15329454865E+03  0.25500000000E-02 0. -1.
         23    2    1    2    0    0  0.17763568394E-14  0.00000000000E+00 -0.13996666208E+03  0.16662243545E+03  0.90401158737E+02 0.  0.
    9000005    2    3    3    0    0  0.10946708376E+02  0.21298633560E+02  0.58052319224E+00  0.24049739944E+02  0.21426078516E+01 0.  0.
         22    1    3    3    0    0 -0.10946708376E+02 -0.21298633560E+02 -0.14054718527E+03  0.14257269550E+03  0.00000000000E+00 0. -1.
         22    1    4    4    0    0  0.83539678447E+01  0.15967998040E+02 -0.48118179247E+00  0.18027680829E+02  0.00000000000E+00 0. -1.
         22    1    4    4    0    0  0.25927405308E+01  0.53306355192E+01  0.10617049847E+01  0.60220591141E+01  0.00000000000E+00 0. -1.
<mgrwt>
<rscale>  0 0.90401159E+02</rscale>
<asrwt>0</asrwt>
<pdfrwt beam="2">  1        2 0.23583776E-01 0.90401159E+02</pdfrwt>
<pdfrwt beam="1">  1       -2 0.20504442E-02 0.90401159E+02</pdfrwt>
<totfact> 0.14414792E+05</totfact>
</mgrwt>
</event>
<event>
 6    1  0.3960685E-009  0.1803574E+03  0.7818608E-02  0.1167458E+00
         -2   -1    0    0    0  501 -0.00000000000E+00  0.00000000000E+00  0.18521960512E+02  0.18521960687E+02  0.25500000000E-02 0.  1.
          2   -1    0    0  501    0  0.00000000000E+00 -0.00000000000E+00 -0.43905687841E+03  0.43905687842E+03  0.25500000000E-02 0. -1.
    9000005    2    1    2    0    0 -0.19509438350E+02  0.75633392956E+02 -0.32446528371E+03  0.33376283477E+03  0.43452537413E+01 0.  0.
         22    1    1    2    0    0  0.19509438350E+02 -0.75633392956E+02 -0.96069634189E+02  0.12381600433E+03  0.00000000000E+00 0.  1.
         22    1    3    3    0    0 -0.86669612262E+00  0.60061800563E+01 -0.21391075882E+02  0.22235185819E+02  0.00000000000E+00 0.  1.
         22    1    3    3    0    0 -0.18642742227E+02  0.69627212900E+02 -0.30307420783E+03  0.31152764896E+03  0.00000000000E+00 0.  1.
<mgrwt>
<rscale>  0 0.18035736E+03</rscale>
<asrwt>0</asrwt>
<pdfrwt beam="2">  1        2 0.67547204E-01 0.18035736E+03</pdfrwt>
<pdfrwt beam="1">  1       -2 0.28495327E-02 0.18035736E+03</pdfrwt>
<totfact> 0.31541759E+04</totfact>
</mgrwt>
</event>
<event>
 7    1  0.3960685E-009  0.8867803E+02  0.7818608E-02  0.1306085E+00
          2   -1    0    0  501    0  0.00000000000E+00  0.00000000000E+00  0.14217011863E+03  0.14217011865E+03  0.25500000000E-02 0. -1.
         -2   -1    0    0    0  501 -0.00000000000E+00 -0.00000000000E+00 -0.13828140356E+02  0.13828140591E+02  0.25500000000E-02 0.  1.
         23    2    1    2    0    0  0.00000000000E+00  0.00000000000E+00  0.12834197827E+03  0.15599825924E+03  0.88678032793E+02 0.  0.
    9000005    2    3    3    0    0 -0.72258785062E+00  0.10064731512E+02  0.13983477216E+03  0.14070429753E+03  0.11921194854E+02 0.  0.
         22    1    3    3    0    0  0.72258785062E+00 -0.10064731512E+02 -0.11492793882E+02  0.15293961711E+02  0.00000000000E+00 0.  1.
         22    1    4    4    0    0 -0.31484477496E+01  0.42510849064E+01  0.19501828437E+02  0.20206577110E+02  0.00000000000E+00 0.  1.
         22    1    4    4    0    0  0.24258598990E+01  0.58136466059E+01  0.12033294372E+03  0.12049772042E+03  0.00000000000E+00 0.  1.
<mgrwt>
<rscale>  0 0.88678033E+02</rscale>
<asrwt>0</asrwt>
<pdfrwt beam="1">  1        2 0.21872325E-01 0.88678033E+02</pdfrwt>
<pdfrwt beam="2">  1       -2 0.21274063E-02 0.88678033E+02</pdfrwt>
<totfact> 0.14804543E+05</totfact>
</mgrwt>
</event>
<event>
 7    1  0.3960685E-009  0.8943473E+02  0.7818608E-02  0.1304226E+00
          2   -1    0    0  501    0  0.00000000000E+00  0.00000000000E+00  0.47204440127E+03  0.47204440127E+03  0.25500000000E-02 0.  1.
         -2   -1    0    0    0  501 -0.00000000000E+00 -0.00000000000E+00 -0.42361324369E+01  0.42361332044E+01  0.25500000000E-02 0. -1.
         23    2    1    2    0    0  0.35527136788E-14 -0.35527136788E-14  0.46780826883E+03  0.47628053448E+03  0.89434731156E+02 0.  0.
    9000005    2    3    3    0    0 -0.26277653087E+02  0.23134053047E+02  0.38134409798E+03  0.38299735109E+03  0.61603909047E+01 0.  0.
         22    1    3    3    0    0  0.26277653087E+02 -0.23134053047E+02  0.86464170849E+02  0.93283183387E+02  0.00000000000E+00 0. -1.
         22    1    4    4    0    0 -0.24034501851E+02  0.20100109509E+02  0.35568691738E+03  0.35706421674E+03  0.00000000000E+00 0.  1.
         22    1    4    4    0    0 -0.22431512357E+01  0.30339435381E+01  0.25657180600E+02  0.25933134349E+02  0.00000000000E+00 0.  1.
<mgrwt>
<rscale>  0 0.89434731E+02</rscale>
<asrwt>0</asrwt>
<pdfrwt beam="1">  1        2 0.72622225E-01 0.89434731E+02</pdfrwt>
<pdfrwt beam="2">  1       -2 0.65171265E-03 0.89434731E+02</pdfrwt>
<totfact> 0.22251033E+05</totfact>
</mgrwt>
</event>
<event>
 7    1  0.3960685E-009  0.8921188E+02  0.7818608E-02  0.1304772E+00
          2   -1    0    0  501    0  0.00000000000E+00  0.00000000000E+00  0.18726169542E+03  0.18726169544E+03  0.25500000000E-02 0. -1.
         -2   -1    0    0    0  501 -0.00000000000E+00 -0.00000000000E+00 -0.10625183476E+02  0.10625183782E+02  0.25500000000E-02 0.  1.
         23    2    1    2    0    0  0.00000000000E+00  0.00000000000E+00  0.17663651195E+03  0.19788687922E+03  0.89211880462E+02 0.  0.
    9000005    2    3    3    0    0 -0.19412069149E+02  0.38178479898E+02  0.10862814086E+03  0.11751547078E+03  0.13243418430E+02 0.  0.
         22    1    3    3    0    0  0.19412069149E+02 -0.38178479898E+02  0.68008371089E+02  0.80371408437E+02  0.00000000000E+00 0. -1.
         22    1    4    4    0    0 -0.69950275476E+01  0.19303838327E+02  0.67950457862E+02  0.70984739967E+02  0.00000000000E+00 0.  1.
         22    1    4    4    0    0 -0.12417041602E+02  0.18874641571E+02  0.40677682994E+02  0.46530730817E+02  0.00000000000E+00 0.  1.
<mgrwt>
<rscale>  0 0.89211880E+02</rscale>
<asrwt>0</asrwt>
<pdfrwt beam="1">  1        2 0.28809491E-01 0.89211880E+02</pdfrwt>
<pdfrwt beam="2">  1       -2 0.16346437E-02 0.89211880E+02</pdfrwt>
<totfact> 0.16018400E+05</totfact>
</mgrwt>
</event>
<event>
 7    1  0.3960685E-009  0.9111035E+02  0.7818608E-02  0.1300185E+00
          2   -1    0    0  501    0  0.00000000000E+00  0.00000000000E+00  0.10121762875E+03  0.10121762879E+03  0.25500000000E-02 0. -1.
         -2   -1    0    0    0  501 -0.00000000000E+00 -0.00000000000E+00 -0.20503088340E+02  0.20503088498E+02  0.25500000000E-02 0.  1.
         23    2    1    2    0    0 -0.71054273576E-14  0.00000000000E+00  0.80714540414E+02  0.12172071728E+03  0.91110350575E+02 0.  0.
    9000005    2    3    3    0    0 -0.42476044907E+02 -0.15705695470E+02  0.40502465498E+02  0.61157574778E+02  0.69939960086E+01 0.  0.
         22    1    3    3    0    0  0.42476044907E+02  0.15705695470E+02  0.40212074916E+02  0.60563142506E+02  0.00000000000E+00 0. -1.
         22    1    4    4    0    0 -0.36827629567E+02 -0.10922263431E+02  0.34391742187E+02  0.51559306324E+02  0.00000000000E+00 0. -1.
         22    1    4    4    0    0 -0.56484153397E+01 -0.47834320391E+01  0.61107233109E+01  0.95982684535E+01  0.00000000000E+00 0. -1.
<mgrwt>
<rscale>  0 0.91110351E+02</rscale>
<asrwt>0</asrwt>
<pdfrwt beam="1">  1        2 0.15571943E-01 0.91110351E+02</pdfrwt>
<pdfrwt beam="2">  1       -2 0.31543213E-02 0.91110351E+02</pdfrwt>
<totfact> 0.12337753E+05</totfact>
</mgrwt>
</event>
<event>
 7    1  0.3960685E-009  0.9062863E+02  0.7818608E-02  0.1301336E+00
          2   -1    0    0  501    0  0.00000000000E+00  0.00000000000E+00  0.39088615177E+03  0.39088615178E+03  0.25500000000E-02 0. -1.
         -2   -1    0    0    0  501 -0.00000000000E+00 -0.00000000000E+00 -0.52531587676E+01  0.52531593865E+01  0.25500000000E-02 0.  1.
         23    2    1    2    0    0  0.17763568394E-14 -0.35527136788E-14  0.38563299301E+03  0.39613931117E+03  0.90628629904E+02 0.  0.
    9000005    2    3    3    0    0  0.15193725457E+02 -0.19164073509E+02  0.35903881460E+03  0.36000952661E+03  0.99938910589E+01 0.  0.
         22    1    3    3    0    0 -0.15193725457E+02  0.19164073509E+02  0.26594178408E+02  0.36129784554E+02  0.00000000000E+00 0.  1.
         22    1    4    4    0    0  0.46089506532E+01 -0.13542555526E+02  0.17749955980E+03  0.17807508800E+03  0.00000000000E+00 0.  1.
         22    1    4    4    0    0  0.10584774804E+02 -0.56215179836E+01  0.18153925479E+03  0.18193443861E+03  0.00000000000E+00 0.  1.
<mgrwt>
<rscale>  0 0.90628630E+02</rscale>
<asrwt>0</asrwt>
<pdfrwt beam="1">  1        2 0.60136325E-01 0.90628630E+02</pdfrwt>
<pdfrwt beam="2">  1       -2 0.80817840E-03 0.90628630E+02</pdfrwt>
<totfact> 0.20117614E+05</totfact>
</mgrwt>
</event>
<event>
 7    1  0.3960685E-009  0.9189670E+02  0.7818608E-02  0.1298323E+00
          2   -1    0    0  501    0  0.00000000000E+00  0.00000000000E+00  0.44427633469E+02  0.44427633542E+02  0.25500000000E-02 0. -1.
         -2   -1    0    0    0  501 -0.00000000000E+00 -0.00000000000E+00 -0.47521115381E+02  0.47521115449E+02  0.25500000000E-02 0.  1.
         23    2    1    2    0    0  0.00000000000E+00  0.00000000000E+00 -0.30934819122E+01  0.91948748991E+02  0.91896696408E+02 0.  0.
    9000005    2    3    3    0    0 -0.33598103395E+02  0.29571323327E+02 -0.53392731803E+01  0.47134250294E+02  0.13778025901E+02 0.  0.
         22    1    3    3    0    0  0.33598103395E+02 -0.29571323327E+02  0.22457912682E+01  0.44814498697E+02  0.00000000000E+00 0.  1.
         22    1    4    4    0    0 -0.15503768926E+02  0.20479448301E+02  0.15800232091E+01  0.25734628946E+02  0.00000000000E+00 0. -1.
         22    1    4    4    0    0 -0.18094334469E+02  0.90918750254E+01 -0.69192963894E+01  0.21399621349E+02  0.00000000000E+00 0. -1.
<mgrwt>
<rscale>  0 0.91896696E+02</rscale>
<asrwt>0</asrwt>
<pdfrwt beam="1">  1        2 0.68350205E-02 0.91896696E+02</pdfrwt>
<pdfrwt beam="2">  1       -2 0.73109409E-02 0.91896696E+02</pdfrwt>
<totfact> 0.95821672E+04</totfact>
</mgrwt>
</event>
<event>
 7    1  0.3960685E-009  0.9167925E+02  0.7818608E-02  0.1298835E+00
         -2   -1    0    0    0  501 -0.00000000000E+00  0.00000000000E+00  0.24220549107E+02  0.24220549241E+02  0.25500000000E-02 0. -1.
          2   -1    0    0  501    0  0.00000000000E+00 -0.00000000000E+00 -0.86755715366E+02  0.86755715404E+02  0.25500000000E-02 0.  1.
         23    2    1    2    0    0  0.00000000000E+00  0.00000000000E+00 -0.62535166259E+02  0.11097626465E+03  0.91679246809E+02 0.  0.
    9000005    2    3    3    0    0 -0.24936003436E+02 -0.20141688107E+02 -0.69991118013E+02  0.78066036999E+02  0.12963705677E+02 0.  0.
         22    1    3    3    0    0  0.24936003436E+02  0.20141688107E+02  0.74559517537E+01  0.32910227646E+02  0.00000000000E+00 0. -1.
         22    1    4    4    0    0 -0.98872288534E+01 -0.16260408178E+02 -0.37864034172E+02  0.42377390815E+02  0.00000000000E+00 0. -1.
         22    1    4    4    0    0 -0.15048774582E+02 -0.38812799295E+01 -0.32127083841E+02  0.35688646184E+02  0.00000000000E+00 0. -1.
<mgrwt>
<rscale>  0 0.91679247E+02</rscale>
<asrwt>0</asrwt>
<pdfrwt beam="2">  1        2 0.13347033E-01 0.91679247E+02</pdfrwt>
<pdfrwt beam="1">  1       -2 0.37262384E-02 0.91679247E+02</pdfrwt>
<totfact> 0.11580328E+05</totfact>
</mgrwt>
</event>
<event>
 7    1  0.3960685E-009  0.9029632E+02  0.7818608E-02  0.1302136E+00
         -2   -1    0    0    0  501 -0.00000000000E+00  0.00000000000E+00  0.26150633671E+02  0.26150633795E+02  0.25500000000E-02 0.  1.
          2   -1    0    0  501    0  0.00000000000E+00 -0.00000000000E+00 -0.77946736260E+02  0.77946736302E+02  0.25500000000E-02 0. -1.
         23    2    1    2    0    0  0.00000000000E+00  0.22204460493E-15 -0.51796102589E+02  0.10409737010E+03  0.90296324497E+02 0.  0.
    9000005    2    3    3    0    0  0.17305888304E+02  0.92112175560E+00 -0.73605078041E+02  0.76241066581E+02  0.97288480668E+01 0.  0.
         22    1    3    3    0    0 -0.17305888304E+02 -0.92112175560E+00  0.21808975452E+02  0.27856303515E+02  0.00000000000E+00 0.  1.
         22    1    4    4    0    0  0.36464051414E+01 -0.37956192098E+01 -0.15644082580E+02  0.16505766126E+02  0.00000000000E+00 0.  1.
         22    1    4    4    0    0  0.13659483163E+02  0.47167409654E+01 -0.57960995461E+02  0.59735300455E+02  0.00000000000E+00 0.  1.
<mgrwt>
<rscale>  0 0.90296324E+02</rscale>
<asrwt>0</asrwt>
<pdfrwt beam="2">  1        2 0.11991805E-01 0.90296324E+02</pdfrwt>
<pdfrwt beam="1">  1       -2 0.40231745E-02 0.90296324E+02</pdfrwt>
<totfact> 0.11712341E+05</totfact>
</mgrwt>
</event>
<event>
 7    1  0.3960685E-009  0.1103138E+03  0.7818608E-02  0.1259990E+00
          2   -1    0    0  501    0  0.00000000000E+00  0.00000000000E+00  0.44221565369E+03  0.44221565370E+03  0.25500000000E-02 0. -1.
         -2   -1    0    0    0  501 -0.00000000000E+00 -0.00000000000E+00 -0.68796397696E+01  0.68796402422E+01  0.25500000000E-02 0.  1.
         23    2    1    2    0    0  0.17763568394E-14  0.71054273576E-14  0.43533601392E+03  0.44909529394E+03  0.11031381610E+03 0.  0.
    9000005    2    3    3    0    0  0.13134276482E+02  0.53061513390E+02  0.22260381858E+03  0.22945235562E+03  0.10387012493E+02 0.  0.
         22    1    3    3    0    0 -0.13134276482E+02 -0.53061513390E+02  0.21273219534E+03  0.21964293832E+03  0.00000000000E+00 0. -1.
         22    1    4    4    0    0  0.40135625418E+01  0.35687437240E+02  0.13705667558E+03  0.14168357061E+03  0.00000000000E+00 0.  1.
         22    1    4    4    0    0  0.91207139399E+01  0.17374076150E+02  0.85547143005E+02  0.87768785004E+02  0.00000000000E+00 0.  1.
<mgrwt>
<rscale>  0 0.11031382E+03</rscale>
<asrwt>0</asrwt>
<pdfrwt beam="1">  1        2 0.68033165E-01 0.11031382E+03</pdfrwt>
<pdfrwt beam="2">  1       -2 0.10584064E-02 0.11031382E+03</pdfrwt>
<totfact> 0.12414859E+05</totfact>
</mgrwt>
</event>
<event>
 7    1  0.3960685E-009  0.9064951E+02  0.7818608E-02  0.1301286E+00
          2   -1    0    0  501    0  0.00000000000E+00  0.00000000000E+00  0.81531735252E+03  0.81531735252E+03  0.25500000000E-02 0. -1.
         -2   -1    0    0    0  501 -0.00000000000E+00 -0.00000000000E+00 -0.25196728807E+01  0.25196741710E+01  0.25500000000E-02 0.  1.
         23    2    1    2    0    0  0.00000000000E+00  0.00000000000E+00  0.81279767964E+03  0.81783702670E+03  0.90649512995E+02 0.  0.
    9000005    2    3    3    0    0  0.24029014643E+02  0.18371515012E+02  0.70862326413E+03  0.70936023214E+03  0.11406242948E+02 0.  0.
         22    1    3    3    0    0 -0.24029014643E+02 -0.18371515012E+02  0.10417441552E+03  0.10847679455E+03  0.00000000000E+00 0.  1.
         22    1    4    4    0    0  0.10269001525E+02  0.26905355868E+01  0.16837548974E+03  0.16870980090E+03  0.00000000000E+00 0.  1.
         22    1    4    4    0    0  0.13760013118E+02  0.15680979426E+02  0.54024777438E+03  0.54065043124E+03  0.00000000000E+00 0.  1.
<mgrwt>
<rscale>  0 0.90649513E+02</rscale>
<asrwt>0</asrwt>
<pdfrwt beam="1">  1        2 0.12543323E+00 0.90649513E+02</pdfrwt>
<pdfrwt beam="2">  1       -2 0.38764274E-03 0.90649513E+02</pdfrwt>
<totfact> 0.24829604E+05</totfact>
</mgrwt>
</event>
<event>
 7    1  0.3960685E-009  0.1255230E+03  0.7818608E-02  0.1234254E+00
         -2   -1    0    0    0  501 -0.00000000000E+00  0.00000000000E+00  0.14959654443E+03  0.14959654445E+03  0.25500000000E-02 0.  1.
          2   -1    0    0  501    0  0.00000000000E+00 -0.00000000000E+00 -0.26330843065E+02  0.26330843188E+02  0.25500000000E-02 0. -1.
         23    2    1    2    0    0  0.00000000000E+00  0.00000000000E+00  0.12326570137E+03  0.17592738764E+03  0.12552295642E+03 0.  0.
    9000005    2    3    3    0    0  0.52146879556E+02  0.33404709352E+02  0.64409714508E+02  0.90492038731E+02  0.14318732364E+02 0.  0.
         22    1    3    3    0    0 -0.52146879556E+02 -0.33404709352E+02  0.58855986858E+02  0.85435348909E+02  0.00000000000E+00 0. -1.
         22    1    4    4    0    0  0.88941176979E+01  0.26770402510E+00  0.11523053328E+02  0.14558768941E+02  0.00000000000E+00 0. -1.
         22    1    4    4    0    0  0.43252761858E+02  0.33137005327E+02  0.52886661180E+02  0.75933269790E+02  0.00000000000E+00 0. -1.
<mgrwt>
<rscale>  0 0.12552296E+03</rscale>
<asrwt>0</asrwt>
<pdfrwt beam="2">  1        2 0.40508990E-02 0.12552296E+03</pdfrwt>
<pdfrwt beam="1">  1       -2 0.23014853E-01 0.12552296E+03</pdfrwt>
<totfact> 0.31147231E+04</totfact>
</mgrwt>
</event>
<event>
 7    1  0.3960685E-009  0.9113036E+02  0.7818608E-02  0.1300137E+00
         -2   -1    0    0    0  501 -0.00000000000E+00  0.00000000000E+00  0.17522959099E+02  0.17522959284E+02  0.25500000000E-02 0.  1.
          2   -1    0    0  501    0  0.00000000000E+00 -0.00000000000E+00 -0.11848372076E+03  0.11848372078E+03  0.25500000000E-02 0. -1.
         23    2    1    2    0    0  0.00000000000E+00  0.00000000000E+00 -0.10096076166E+03  0.13600668007E+03  0.91130355144E+02 0.  0.
    9000005    2    3    3    0    0  0.27440828359E+02  0.92464753235E+01 -0.10297042376E+03  0.10698022474E+03  0.18341076691E+01 0.  0.
         22    1    3    3    0    0 -0.27440828359E+02 -0.92464753235E+01  0.20096620985E+01  0.29026455324E+02  0.00000000000E+00 0.  1.
         22    1    4    4    0    0  0.14701830667E+02  0.58794494197E+01 -0.55262277866E+02  0.57485920931E+02  0.00000000000E+00 0. -1.
         22    1    4    4    0    0  0.12738997692E+02  0.33670259038E+01 -0.47708145889E+02  0.49494303812E+02  0.00000000000E+00 0. -1.
<mgrwt>
<rscale>  0 0.91130355E+02</rscale>
<asrwt>0</asrwt>
<pdfrwt beam="2">  1        2 0.18228264E-01 0.91130355E+02</pdfrwt>
<pdfrwt beam="1">  1       -2 0.26958400E-02 0.91130355E+02</pdfrwt>
<totfact> 0.12951802E+05</totfact>
</mgrwt>
</event>
<event>
 7    1  0.3960685E-009  0.9076597E+02  0.7818608E-02  0.1301007E+00
          2   -1    0    0  501    0  0.00000000000E+00  0.00000000000E+00  0.16146561381E+03  0.16146561383E+03  0.25500000000E-02 0. -1.
         -2   -1    0    0    0  501 -0.00000000000E+00 -0.00000000000E+00 -0.12755751118E+02  0.12755751373E+02  0.25500000000E-02 0.  1.
         23    2    1    2    0    0  0.00000000000E+00  0.35527136788E-14  0.14870986270E+03  0.17422136521E+03  0.90765967365E+02 0.  0.
    9000005    2    3    3    0    0  0.32680149981E+02 -0.30010353470E+02  0.80945993890E+02  0.93224109491E+02  0.13033309069E+02 0.  0.
         22    1    3    3    0    0 -0.32680149981E+02  0.30010353470E+02  0.67763868806E+02  0.80997255717E+02  0.00000000000E+00 0.  1.
         22    1    4    4    0    0  0.42537388872E+01 -0.16541879227E-01  0.13206911135E+02  0.13875052067E+02  0.00000000000E+00 0. -1.
         22    1    4    4    0    0  0.28426411094E+02 -0.29993811591E+02  0.67739082756E+02  0.79349057424E+02  0.00000000000E+00 0. -1.
<mgrwt>
<rscale>  0 0.90765967E+02</rscale>
<asrwt>0</asrwt>
<pdfrwt beam="1">  1        2 0.24840863E-01 0.90765967E+02</pdfrwt>
<pdfrwt beam="2">  1       -2 0.19624233E-02 0.90765967E+02</pdfrwt>
<totfact> 0.14515077E+05</totfact>
</mgrwt>
</event>
<event>
 6    1  0.3960685E-009  0.5930224E+03  0.7818608E-02  0.9919989E-01
         -2   -1    0    0    0  501 -0.00000000000E+00  0.00000000000E+00  0.10574827141E+03  0.10574827144E+03  0.25500000000E-02 0.  1.
          2   -1    0    0  501    0  0.00000000000E+00 -0.00000000000E+00 -0.83139796395E+03  0.83139796395E+03  0.25500000000E-02 0. -1.
    9000005    2    1    2    0    0  0.32299186385E+02  0.11105241259E+03 -0.79424560397E+03  0.80267960441E+03  0.96224797848E+01 0.  0.
         22    1    1    2    0    0 -0.32299186385E+02 -0.11105241259E+03  0.68595911428E+02  0.13446663098E+03  0.00000000000E+00 0.  1.
         22    1    3    3    0    0  0.24034867540E+02  0.84870741561E+02 -0.57629286661E+03  0.58300444744E+03  0.00000000000E+00 0. -1.
         22    1    3    3    0    0  0.82643188446E+01  0.26181671030E+02 -0.21795273736E+03  0.21967515697E+03  0.00000000000E+00 0. -1.
<mgrwt>
<rscale>  0 0.59302242E+03</rscale>
<asrwt>0</asrwt>
<pdfrwt beam="2">  1        2 0.12790738E+00 0.59302242E+03</pdfrwt>
<pdfrwt beam="1">  1       -2 0.16268965E-01 0.59302242E+03</pdfrwt>
<totfact> 0.10037271E+03</totfact>
</mgrwt>
</event>
<event>
 7    1  0.3960685E-009  0.9251369E+02  0.7818608E-02  0.1296876E+00
         -2   -1    0    0    0  501 -0.00000000000E+00  0.00000000000E+00  0.67628949953E+00  0.67629430700E+00  0.25500000000E-02 0. -1.
          2   -1    0    0  501    0  0.00000000000E+00 -0.00000000000E+00 -0.31638640105E+04  0.31638640105E+04  0.25500000000E-02 0.  1.
         23    2    1    2    0    0  0.00000000000E+00  0.00000000000E+00 -0.31631877210E+04  0.31645403048E+04  0.92513687994E+02 0.  0.
    9000005    2    3    3    0    0 -0.11600974259E+02  0.57159678500E+01 -0.30997987820E+04  0.30998455409E+04  0.11074001833E+02 0.  0.
         22    1    3    3    0    0  0.11600974259E+02 -0.57159678500E+01 -0.63388938922E+02  0.64694763853E+02  0.00000000000E+00 0. -1.
         22    1    4    4    0    0 -0.79772556741E+01  0.50942981301E+01 -0.28833452406E+04  0.28833607761E+04  0.00000000000E+00 0.  1.
         22    1    4    4    0    0 -0.36237185854E+01  0.62166971990E+00 -0.21645354144E+03  0.21648476485E+03  0.00000000000E+00 0.  1.
<mgrwt>
<rscale>  0 0.92513688E+02</rscale>
<asrwt>0</asrwt>
<pdfrwt beam="2">  1        2 0.48673646E+00 0.92513688E+02</pdfrwt>
<pdfrwt beam="1">  1       -2 0.10404744E-03 0.92513688E+02</pdfrwt>
<totfact> 0.84774905E+04</totfact>
</mgrwt>
</event>
<event>
 7    1  0.3960685E-009  0.9852815E+02  0.7818608E-02  0.1283422E+00
          2   -1    0    0  501    0  0.00000000000E+00  0.00000000000E+00  0.52623388981E+03  0.52623388981E+03  0.25500000000E-02 0. -1.
         -2   -1    0    0    0  501 -0.00000000000E+00 -0.00000000000E+00 -0.46119205929E+01  0.46119212979E+01  0.25500000000E-02 0.  1.
         23    2    1    2    0    0  0.35527136788E-14  0.00000000000E+00  0.52162196922E+03  0.53084581111E+03  0.98528150329E+02 0.  0.
    9000005    2    3    3    0    0  0.18575349754E+02 -0.41267445640E+02  0.36312949155E+03  0.36601889837E+03  0.76655489898E+01 0.  0.
         22    1    3    3    0    0 -0.18575349754E+02  0.41267445640E+02  0.15849247766E+03  0.16482691274E+03  0.00000000000E+00 0. -1.
         22    1    4    4    0    0  0.99742155143E+01 -0.14112930785E+02  0.12382861447E+03  0.12502873891E+03  0.00000000000E+00 0. -1.
         22    1    4    4    0    0  0.86011342402E+01 -0.27154514855E+02  0.23930087708E+03  0.24099015947E+03  0.00000000000E+00 0. -1.
<mgrwt>
<rscale>  0 0.98528150E+02</rscale>
<asrwt>0</asrwt>
<pdfrwt beam="1">  1        2 0.80958970E-01 0.98528150E+02</pdfrwt>
<pdfrwt beam="2">  1       -2 0.70952709E-03 0.98528150E+02</pdfrwt>
<totfact> 0.17827465E+05</totfact>
</mgrwt>
</event>
<event>
 7    1  0.3960685E-009  0.9031973E+02  0.7818608E-02  0.1302079E+00
         -2   -1    0    0    0  501 -0.00000000000E+00  0.00000000000E+00  0.26615840356E+02  0.26615840478E+02  0.25500000000E-02 0.  1.
          2   -1    0    0  501    0  0.00000000000E+00 -0.00000000000E+00 -0.76624040610E+02  0.76624040653E+02  0.25500000000E-02 0. -1.
         23    2    1    2    0    0  0.00000000000E+00  0.00000000000E+00 -0.50008200254E+02  0.10323988113E+03  0.90319726324E+02 0.  0.
    9000005    2    3    3    0    0  0.23173089645E+02 -0.22758838591E+02 -0.60782273328E+02  0.69019456407E+02  0.37740951223E+01 0.  0.
         22    1    3    3    0    0 -0.23173089645E+02  0.22758838591E+02  0.10774073074E+02  0.34220424724E+02  0.00000000000E+00 0.  1.
         22    1    4    4    0    0  0.59311420432E+01 -0.61225593794E+01 -0.12657005018E+02  0.15259880580E+02  0.00000000000E+00 0.  1.
         22    1    4    4    0    0  0.17241947602E+02 -0.16636279211E+02 -0.48125268310E+02  0.53759575827E+02  0.00000000000E+00 0.  1.
<mgrwt>
<rscale>  0 0.90319726E+02</rscale>
<asrwt>0</asrwt>
<pdfrwt beam="2">  1        2 0.11788314E-01 0.90319726E+02</pdfrwt>
<pdfrwt beam="1">  1       -2 0.40947447E-02 0.90319726E+02</pdfrwt>
<totfact> 0.11647512E+05</totfact>
</mgrwt>
</event>
<event>
 7    1  0.3960685E-009  0.9156593E+02  0.7818608E-02  0.1299103E+00
         -2   -1    0    0    0  501 -0.00000000000E+00  0.00000000000E+00  0.59713361920E+01  0.59713367364E+01  0.25500000000E-02 0. -1.
          2   -1    0    0  501    0  0.00000000000E+00 -0.00000000000E+00 -0.35102357755E+03  0.35102357756E+03  0.25500000000E-02 0.  1.
         23    2    1    2    0    0  0.00000000000E+00  0.00000000000E+00 -0.34505224136E+03  0.35699491430E+03  0.91565930165E+02 0.  0.
    9000005    2    3    3    0    0 -0.34358734809E+01 -0.19211986515E+02 -0.33390826517E+03  0.33452062104E+03  0.53301683116E+01 0.  0.
         22    1    3    3    0    0  0.34358734809E+01  0.19211986515E+02 -0.11143976188E+02  0.22474293264E+02  0.00000000000E+00 0. -1.
         22    1    4    4    0    0 -0.29322981990E+01 -0.40107695059E+01 -0.93164094848E+02  0.93296480178E+02  0.00000000000E+00 0.  1.
         22    1    4    4    0    0 -0.50357528184E+00 -0.15201217009E+02 -0.24074417033E+03  0.24122414086E+03  0.00000000000E+00 0.  1.
<mgrwt>
<rscale>  0 0.91565930E+02</rscale>
<asrwt>0</asrwt>
<pdfrwt beam="2">  1        2 0.54003611E-01 0.91565930E+02</pdfrwt>
<pdfrwt beam="1">  1       -2 0.91866742E-03 0.91565930E+02</pdfrwt>
<totfact> 0.18825355E+05</totfact>
</mgrwt>
</event>
<event>
 7    1  0.3960685E-009  0.9185991E+02  0.7818608E-02  0.1298409E+00
          2   -1    0    0  501    0  0.00000000000E+00  0.00000000000E+00  0.54765868917E+02  0.54765868976E+02  0.25500000000E-02 0. -1.
         -2   -1    0    0    0  501 -0.00000000000E+00 -0.00000000000E+00 -0.38519624057E+02  0.38519624142E+02  0.25500000000E-02 0.  1.
         23    2    1    2    0    0  0.00000000000E+00  0.00000000000E+00  0.16246244859E+02  0.93285493118E+02  0.91859908307E+02 0.  0.
    9000005    2    3    3    0    0  0.15529769389E+02  0.41533043575E+02 -0.40122297183E+01  0.44535382983E+02  0.10653188579E+01 0.  0.
         22    1    3    3    0    0 -0.15529769389E+02 -0.41533043575E+02  0.20258474578E+02  0.48750110134E+02  0.00000000000E+00 0. -1.
         22    1    4    4    0    0  0.53841158038E+01  0.13006007112E+02 -0.13615297142E+01  0.14142089207E+02  0.00000000000E+00 0. -1.
         22    1    4    4    0    0  0.10145653585E+02  0.28527036464E+02 -0.26507000041E+01  0.30393293777E+02  0.00000000000E+00 0. -1.
<mgrwt>
<rscale>  0 0.91859908E+02</rscale>
<asrwt>0</asrwt>
<pdfrwt beam="1">  1        2 0.84255183E-02 0.91859908E+02</pdfrwt>
<pdfrwt beam="2">  1       -2 0.59260960E-02 0.91859908E+02</pdfrwt>
<totfact> 0.10135226E+05</totfact>
</mgrwt>
</event>
<event>
 7    1  0.3960685E-009  0.9048409E+02  0.7818608E-02  0.1301684E+00
          2   -1    0    0  501    0  0.00000000000E+00  0.00000000000E+00  0.56116706957E+03  0.56116706958E+03  0.25500000000E-02 0. -1.
         -2   -1    0    0    0  501 -0.00000000000E+00 -0.00000000000E+00 -0.36474738062E+01  0.36474746975E+01  0.25500000000E-02 0.  1.
         23    2    1    2    0    0  0.00000000000E+00  0.00000000000E+00  0.55751959577E+03  0.56481454428E+03  0.90484085684E+02 0.  0.
    9000005    2    3    3    0    0  0.31942864115E+02 -0.19031360001E+01  0.47546099698E+03  0.47673740689E+03  0.13835714256E+02 0.  0.
         22    1    3    3    0    0 -0.31942864115E+02  0.19031360001E+01  0.82058598792E+02  0.88077137387E+02  0.00000000000E+00 0.  1.
         22    1    4    4    0    0  0.19249248750E+02 -0.35884951882E+01  0.19409669040E+03  0.19508187025E+03  0.00000000000E+00 0. -1.
         22    1    4    4    0    0  0.12693615365E+02  0.16853591881E+01  0.28136430657E+03  0.28165553664E+03  0.00000000000E+00 0. -1.
<mgrwt>
<rscale>  0 0.90484086E+02</rscale>
<asrwt>0</asrwt>
<pdfrwt beam="1">  1        2 0.86333360E-01 0.90484086E+02</pdfrwt>
<pdfrwt beam="2">  1       -2 0.56115012E-03 0.90484086E+02</pdfrwt>
<totfact> 0.22798145E+05</totfact>
</mgrwt>
</event>
<event>
 7    1  0.3960685E-009  0.9042516E+02  0.7818608E-02  0.1301825E+00
          2   -1    0    0  501    0  0.00000000000E+00  0.00000000000E+00  0.18264102847E+03  0.18264102849E+03  0.25500000000E-02 0. -1.
         -2   -1    0    0    0  501 -0.00000000000E+00 -0.00000000000E+00 -0.11192323246E+02  0.11192323537E+02  0.25500000000E-02 0.  1.
         23    2    1    2    0    0  0.00000000000E+00  0.00000000000E+00  0.17144870523E+03  0.19383335203E+03  0.90425161511E+02 0.  0.
    9000005    2    3    3    0    0  0.87754119090E+01  0.38469032102E+02  0.45660712166E+02  0.62002045111E+02  0.14229500253E+02 0.  0.
         22    1    3    3    0    0 -0.87754119090E+01 -0.38469032102E+02  0.12578799306E+03  0.13183130692E+03  0.00000000000E+00 0. -1.
         22    1    4    4    0    0 -0.11849541348E+01  0.20074801820E+01  0.91792304822E+01  0.94706053253E+01  0.00000000000E+00 0. -1.
         22    1    4    4    0    0  0.99603660438E+01  0.36461551920E+02  0.36481481683E+02  0.52531439786E+02  0.00000000000E+00 0. -1.
<mgrwt>
<rscale>  0 0.90425162E+02</rscale>
<asrwt>0</asrwt>
<pdfrwt beam="1">  1        2 0.28098617E-01 0.90425162E+02</pdfrwt>
<pdfrwt beam="2">  1       -2 0.17218961E-02 0.90425162E+02</pdfrwt>
<totfact> 0.15309896E+05</totfact>
</mgrwt>
</event>
<event>
 7    1  0.3960685E-009  0.9069161E+02  0.7818608E-02  0.1301185E+00
         -2   -1    0    0    0  501 -0.00000000000E+00  0.00000000000E+00  0.54766204346E+02  0.54766204406E+02  0.25500000000E-02 0.  1.
          2   -1    0    0  501    0  0.00000000000E+00 -0.00000000000E+00 -0.37545819057E+02  0.37545819143E+02  0.25500000000E-02 0. -1.
         23    2    1    2    0    0  0.00000000000E+00 -0.35527136788E-14  0.17220385290E+02  0.92312023549E+02  0.90691609436E+02 0.  0.
    9000005    2    3    3    0    0  0.22150882696E+02  0.28687595343E+02 -0.17265265546E+02  0.42283033510E+02  0.13271239491E+02 0.  0.
         22    1    3    3    0    0 -0.22150882696E+02 -0.28687595343E+02  0.34485650836E+02  0.50028990039E+02  0.00000000000E+00 0.  1.
         22    1    4    4    0    0  0.17694358891E+02  0.18832381042E+02 -0.57268527306E+01  0.26467824892E+02  0.00000000000E+00 0. -1.
         22    1    4    4    0    0  0.44565238048E+01  0.98552143005E+01 -0.11538412816E+02  0.15815208618E+02  0.00000000000E+00 0. -1.
<mgrwt>
<rscale>  0 0.90691609E+02</rscale>
<asrwt>0</asrwt>
<pdfrwt beam="2">  1        2 0.57762799E-02 0.90691609E+02</pdfrwt>
<pdfrwt beam="1">  1       -2 0.84255698E-02 0.90691609E+02</pdfrwt>
<totfact> 0.95303799E+04</totfact>
</mgrwt>
</event>
<event>
 7    1  0.3960685E-009  0.9200908E+02  0.7818608E-02  0.1298058E+00
          2   -1    0    0  501    0  0.00000000000E+00  0.00000000000E+00  0.16179829751E+03  0.16179829753E+03  0.25500000000E-02 0. -1.
         -2   -1    0    0    0  501 -0.00000000000E+00 -0.00000000000E+00 -0.13080592905E+02  0.13080593153E+02  0.25500000000E-02 0.  1.
         23    2    1    2    0    0  0.71054273576E-14  0.44408920985E-15  0.14871770460E+03  0.17487889068E+03  0.92009079679E+02 0.  0.
    9000005    2    3    3    0    0  0.33591920993E+02  0.31592314645E+01  0.13265631623E+03  0.13751090845E+03  0.13158792040E+02 0.  0.
         22    1    3    3    0    0 -0.33591920993E+02 -0.31592314645E+01  0.16061388372E+02  0.37367982229E+02  0.00000000000E+00 0.  1.
         22    1    4    4    0    0  0.32345741186E+02  0.35590623111E+01  0.10742002429E+03  0.11224070347E+03  0.00000000000E+00 0.  1.
         22    1    4    4    0    0  0.12461798067E+01 -0.39983084664E+00  0.25236291939E+02  0.25270204979E+02  0.00000000000E+00 0.  1.
<mgrwt>
<rscale>  0 0.92009080E+02</rscale>
<asrwt>0</asrwt>
<pdfrwt beam="1">  1        2 0.24892046E-01 0.92009080E+02</pdfrwt>
<pdfrwt beam="2">  1       -2 0.20123989E-02 0.92009080E+02</pdfrwt>
<totfact> 0.13999724E+05</totfact>
</mgrwt>
</event>
<event>
 7    1  0.3960685E-009  0.9030033E+02  0.7818608E-02  0.1302126E+00
         -2   -1    0    0    0  501 -0.00000000000E+00  0.00000000000E+00  0.49792260411E+02  0.49792260476E+02  0.25500000000E-02 0. -1.
          2   -1    0    0  501    0  0.00000000000E+00 -0.00000000000E+00 -0.40940851073E+02  0.40940851152E+02  0.25500000000E-02 0.  1.
         23    2    1    2    0    0  0.17763568394E-14  0.00000000000E+00  0.88514093381E+01  0.90733111628E+02  0.90300332771E+02 0.  0.
    9000005    2    3    3    0    0 -0.12332331272E+02  0.32019397555E+02 -0.24912893133E+02  0.42594184181E+02  0.40353521947E+01 0.  0.
         22    1    3    3    0    0  0.12332331272E+02 -0.32019397555E+02  0.33764302472E+02  0.48138927448E+02  0.00000000000E+00 0. -1.
         22    1    4    4    0    0 -0.46921762965E+01  0.11142736260E+02 -0.11157278031E+02  0.16451806673E+02  0.00000000000E+00 0. -1.
         22    1    4    4    0    0 -0.76401549760E+01  0.20876661295E+02 -0.13755615103E+02  0.26142377508E+02  0.00000000000E+00 0. -1.
<mgrwt>
<rscale>  0 0.90300333E+02</rscale>
<asrwt>0</asrwt>
<pdfrwt beam="2">  1        2 0.62985925E-02 0.90300333E+02</pdfrwt>
<pdfrwt beam="1">  1       -2 0.76603478E-02 0.90300333E+02</pdfrwt>
<totfact> 0.98677788E+04</totfact>
</mgrwt>
</event>
<event>
 7    1  0.3960685E-009  0.9092659E+02  0.7818608E-02  0.1300623E+00
          2   -1    0    0  501    0  0.00000000000E+00  0.00000000000E+00  0.74221553952E+02  0.74221553996E+02  0.25500000000E-02 0. -1.
         -2   -1    0    0    0  501 -0.00000000000E+00 -0.00000000000E+00 -0.27847854223E+02  0.27847854340E+02  0.25500000000E-02 0.  1.
         23    2    1    2    0    0  0.00000000000E+00 -0.71054273576E-14  0.46373699729E+02  0.10206940834E+03  0.90926586275E+02 0.  0.
    9000005    2    3    3    0    0  0.12991614568E+02  0.40030807706E+02  0.41082193297E+02  0.59651868863E+02  0.99675091177E+01 0.  0.
         22    1    3    3    0    0 -0.12991614568E+02 -0.40030807706E+02  0.52915064312E+01  0.42417539473E+02  0.00000000000E+00 0. -1.
         22    1    4    4    0    0  0.31562920278E+01  0.22679534086E+02  0.17855958432E+02  0.29037195065E+02  0.00000000000E+00 0. -1.
         22    1    4    4    0    0  0.98353225402E+01  0.17351273619E+02  0.23226234865E+02  0.30614673797E+02  0.00000000000E+00 0. -1.
<mgrwt>
<rscale>  0 0.90926586E+02</rscale>
<asrwt>0</asrwt>
<pdfrwt beam="1">  1        2 0.11418700E-01 0.90926586E+02</pdfrwt>
<pdfrwt beam="2">  1       -2 0.42842854E-02 0.90926586E+02</pdfrwt>
<totfact> 0.11330667E+05</totfact>
</mgrwt>
</event>
<event>
 7    1  0.3960685E-009  0.9071553E+02  0.7818608E-02  0.1301128E+00
         -2   -1    0    0    0  501 -0.00000000000E+00  0.00000000000E+00  0.55648365810E+03  0.55648365810E+03  0.25500000000E-02 0. -1.
          2   -1    0    0  501    0  0.00000000000E+00 -0.00000000000E+00 -0.36970120971E+01  0.36970129765E+01  0.25500000000E-02 0.  1.
         23    2    1    2    0    0  0.00000000000E+00  0.35527136788E-14  0.55278664600E+03  0.56018067108E+03  0.90715534806E+02 0.  0.
    9000005    2    3    3    0    0 -0.10066536484E+02 -0.23153903040E+02  0.50880600458E+03  0.50946839246E+03  0.60872193871E+01 0.  0.
         22    1    3    3    0    0  0.10066536484E+02  0.23153903040E+02  0.43980641422E+02  0.50712278618E+02  0.00000000000E+00 0.  1.
         22    1    4    4    0    0  0.22353264668E+00  0.29120980990E+00  0.72168422708E+01  0.72261734244E+01  0.00000000000E+00 0. -1.
         22    1    4    4    0    0 -0.10290069130E+02 -0.23445112849E+02  0.50158916231E+03  0.50224221904E+03  0.00000000000E+00 0. -1.
<mgrwt>
<rscale>  0 0.90715535E+02</rscale>
<asrwt>0</asrwt>
<pdfrwt beam="2">  1        2 0.56877116E-03 0.90715535E+02</pdfrwt>
<pdfrwt beam="1">  1       -2 0.85612870E-01 0.90715535E+02</pdfrwt>
<totfact> 0.33757411E+04</totfact>
</mgrwt>
</event>
<event>
 7    1  0.3960685E-009  0.9204220E+02  0.7818608E-02  0.1297980E+00
         -2   -1    0    0    0  501 -0.00000000000E+00  0.00000000000E+00  0.10358099450E+02  0.10358099764E+02  0.25500000000E-02 0. -1.
          2   -1    0    0  501    0  0.00000000000E+00 -0.00000000000E+00 -0.20447202669E+03  0.20447202671E+03  0.25500000000E-02 0.  1.
         23    2    1    2    0    0  0.00000000000E+00  0.17763568394E-14 -0.19411392724E+03  0.21483012647E+03  0.92042199510E+02 0.  0.
    9000005    2    3    3    0    0  0.12236303163E+02  0.12264099124E+02 -0.19606016363E+03  0.19739673671E+03  0.15024934605E+02 0.  0.
         22    1    3    3    0    0 -0.12236303163E+02 -0.12264099124E+02  0.19462363884E+01  0.17433389759E+02  0.00000000000E+00 0. -1.
         22    1    4    4    0    0  0.14668362279E+02  0.10709811890E+02 -0.18718485329E+03  0.18806389931E+03  0.00000000000E+00 0.  1.
         22    1    4    4    0    0 -0.24320591169E+01  0.15542872334E+01 -0.88753103449E+01  0.93328374072E+01  0.00000000000E+00 0.  1.
<mgrwt>
<rscale>  0 0.92042200E+02</rscale>
<asrwt>0</asrwt>
<pdfrwt beam="2">  1        2 0.31457232E-01 0.92042200E+02</pdfrwt>
<pdfrwt beam="1">  1       -2 0.15935539E-02 0.92042200E+02</pdfrwt>
<totfact> 0.15200497E+05</totfact>
</mgrwt>
</event>
<event>
 7    1  0.3960685E-009  0.9499324E+02  0.7818608E-02  0.1291191E+00
          2   -1    0    0  501    0  0.00000000000E+00  0.00000000000E+00  0.67727950434E+02  0.67727950482E+02  0.25500000000E-02 0. -1.
         -2   -1    0    0    0  501 -0.00000000000E+00 -0.00000000000E+00 -0.33308681926E+02  0.33308682024E+02  0.25500000000E-02 0.  1.
         23    2    1    2    0    0  0.00000000000E+00  0.00000000000E+00  0.34419268508E+02  0.10103663251E+03  0.94993236936E+02 0.  0.
    9000005    2    3    3    0    0  0.29790743370E+02  0.92498831264E+01 -0.18987419153E+02  0.39187436753E+02  0.14215638740E+02 0.  0.
         22    1    3    3    0    0 -0.29790743370E+02 -0.92498831264E+01  0.53406687661E+02  0.61849195753E+02  0.00000000000E+00 0. -1.
         22    1    4    4    0    0  0.28818289704E+02  0.97712365353E+01 -0.20944268410E+02  0.36940942924E+02  0.00000000000E+00 0. -1.
         22    1    4    4    0    0  0.97245366616E+00 -0.52135340893E+00  0.19568492567E+01  0.22464938289E+01  0.00000000000E+00 0. -1.
<mgrwt>
<rscale>  0 0.94993237E+02</rscale>
<asrwt>0</asrwt>
<pdfrwt beam="1">  1        2 0.10419684E-01 0.94993237E+02</pdfrwt>
<pdfrwt beam="2">  1       -2 0.51244127E-02 0.94993237E+02</pdfrwt>
<totfact> 0.97667913E+04</totfact>
</mgrwt>
</event>
<event>
 7    1  0.3960685E-009  0.9091644E+02  0.7818608E-02  0.1300647E+00
         -2   -1    0    0    0  501 -0.00000000000E+00  0.00000000000E+00  0.16813599322E+02  0.16813599515E+02  0.25500000000E-02 0.  1.
          2   -1    0    0  501    0  0.00000000000E+00 -0.00000000000E+00 -0.12290347913E+03  0.12290347916E+03  0.25500000000E-02 0. -1.
         23    2    1    2    0    0 -0.35527136788E-14  0.35527136788E-14 -0.10608987981E+03  0.13971707867E+03  0.90916442270E+02 0.  0.
    9000005    2    3    3    0    0 -0.29180560448E+02  0.16647855072E+02 -0.98886754528E+02  0.10535807403E+03  0.13895227769E+02 0.  0.
         22    1    3    3    0    0  0.29180560448E+02 -0.16647855072E+02 -0.72031252819E+01  0.34359004648E+02  0.00000000000E+00 0.  1.
         22    1    4    4    0    0 -0.59522524317E+00  0.56842889997E+01 -0.17013353254E+02  0.17947691313E+02  0.00000000000E+00 0. -1.
         22    1    4    4    0    0 -0.28585335205E+02  0.10963566072E+02 -0.81873401274E+02  0.87410382713E+02  0.00000000000E+00 0. -1.
<mgrwt>
<rscale>  0 0.90916442E+02</rscale>
<asrwt>0</asrwt>
<pdfrwt beam="2">  1        2 0.18908227E-01 0.90916442E+02</pdfrwt>
<pdfrwt beam="1">  1       -2 0.25867077E-02 0.90916442E+02</pdfrwt>
<totfact> 0.13189277E+05</totfact>
</mgrwt>
</event>
<event>
 7    1  0.3960685E-009  0.8870229E+02  0.7818608E-02  0.1306025E+00
          2   -1    0    0  501    0  0.00000000000E+00  0.00000000000E+00  0.25455005496E+03  0.25455005498E+03  0.25500000000E-02 0.  1.
         -2   -1    0    0    0  501 -0.00000000000E+00 -0.00000000000E+00 -0.77274543758E+01  0.77274547965E+01  0.25500000000E-02 0. -1.
         23    2    1    2    0    0 -0.88817841970E-15  0.00000000000E+00  0.24682260059E+03  0.26227750977E+03  0.88702288424E+02 0.  0.
    9000005    2    3    3    0    0  0.47600647245E+01  0.34424183709E+02  0.20410891643E+03  0.20721262573E+03  0.83030028440E+01 0.  0.
         22    1    3    3    0    0 -0.47600647245E+01 -0.34424183709E+02  0.42713684160E+02  0.55064884043E+02  0.00000000000E+00 0. -1.
         22    1    4    4    0    0  0.14872297539E+01  0.30821504626E+02  0.17506856945E+03  0.17776721016E+03  0.00000000000E+00 0.  1.
         22    1    4    4    0    0  0.32728349706E+01  0.36026790830E+01  0.29040346977E+02  0.29445415566E+02  0.00000000000E+00 0.  1.
<mgrwt>
<rscale>  0 0.88702288E+02</rscale>
<asrwt>0</asrwt>
<pdfrwt beam="1">  1        2 0.39161539E-01 0.88702288E+02</pdfrwt>
<pdfrwt beam="2">  1       -2 0.11888394E-02 0.88702288E+02</pdfrwt>
<totfact> 0.18187331E+05</totfact>
</mgrwt>
</event>
<event>
 7    1  0.3960685E-009  0.9163336E+02  0.7818608E-02  0.1298944E+00
          2   -1    0    0  501    0  0.00000000000E+00  0.00000000000E+00  0.74060852706E+02  0.74060852750E+02  0.25500000000E-02 0. -1.
         -2   -1    0    0    0  501 -0.00000000000E+00 -0.00000000000E+00 -0.28343828946E+02  0.28343829060E+02  0.25500000000E-02 0.  1.
         23    2    1    2    0    0  0.17763568394E-14  0.00000000000E+00  0.45717023761E+02  0.10240468181E+03  0.91633359620E+02 0.  0.
    9000005    2    3    3    0    0 -0.12612595083E+02 -0.10824583984E+02 -0.22721928971E+02  0.31976424526E+02  0.15164316540E+02 0.  0.
         22    1    3    3    0    0  0.12612595083E+02  0.10824583984E+02  0.68438952732E+02  0.70428257285E+02  0.00000000000E+00 0. -1.
         22    1    4    4    0    0  0.63596053190E-01 -0.71092416205E+01 -0.15187737829E+02  0.16769398953E+02  0.00000000000E+00 0. -1.
         22    1    4    4    0    0 -0.12676191136E+02 -0.37153423632E+01 -0.75341911422E+01  0.15207025573E+02  0.00000000000E+00 0. -1.
<mgrwt>
<rscale>  0 0.91633360E+02</rscale>
<asrwt>0</asrwt>
<pdfrwt beam="1">  1        2 0.11393977E-01 0.91633360E+02</pdfrwt>
<pdfrwt beam="2">  1       -2 0.43605890E-02 0.91633360E+02</pdfrwt>
<totfact> 0.11081583E+05</totfact>
</mgrwt>
</event>
<event>
 7    1  0.3960685E-009  0.9320528E+02  0.7818608E-02  0.1295270E+00
          2   -1    0    0  501    0  0.00000000000E+00  0.00000000000E+00  0.27476557220E+03  0.27476557221E+03  0.25500000000E-02 0. -1.
         -2   -1    0    0    0  501 -0.00000000000E+00 -0.00000000000E+00 -0.79042139423E+01  0.79042143537E+01  0.25500000000E-02 0.  1.
         23    2    1    2    0    0  0.00000000000E+00  0.00000000000E+00  0.26686135826E+03  0.28266978656E+03  0.93205277242E+02 0.  0.
    9000005    2    3    3    0    0 -0.33691454666E+02 -0.91643755226E+01  0.22477590897E+03  0.22798628870E+03  0.15311390830E+02 0.  0.
         22    1    3    3    0    0  0.33691454666E+02  0.91643755226E+01  0.42085449289E+02  0.54683497859E+02  0.00000000000E+00 0.  1.
         22    1    4    4    0    0 -0.20256892045E+02 -0.84026825645E+01  0.17693759774E+03  0.17829150357E+03  0.00000000000E+00 0. -1.
         22    1    4    4    0    0 -0.13434562621E+02 -0.76169295817E+00  0.47838311225E+02  0.49694785137E+02  0.00000000000E+00 0. -1.
<mgrwt>
<rscale>  0 0.93205277E+02</rscale>
<asrwt>0</asrwt>
<pdfrwt beam="1">  1        2 0.42271629E-01 0.93205277E+02</pdfrwt>
<pdfrwt beam="2">  1       -2 0.12160329E-02 0.93205277E+02</pdfrwt>
<totfact> 0.16391961E+05</totfact>
</mgrwt>
</event>
<event>
 7    1  0.3960685E-009  0.8888212E+02  0.7818608E-02  0.1305582E+00
          2   -1    0    0  501    0  0.00000000000E+00  0.00000000000E+00  0.44727305174E+02  0.44727305247E+02  0.25500000000E-02 0.  1.
         -2   -1    0    0    0  501 -0.00000000000E+00 -0.00000000000E+00 -0.44156643635E+02  0.44156643709E+02  0.25500000000E-02 0. -1.
         23    2    1    2    0    0  0.00000000000E+00  0.00000000000E+00  0.57066153901E+00  0.88883948955E+02  0.88882117028E+02 0.  0.
    9000005    2    3    3    0    0 -0.21850723286E+02 -0.36412152617E+02 -0.10199348010E+02  0.45074223185E+02  0.11151678330E+02 0.  0.
         22    1    3    3    0    0  0.21850723286E+02  0.36412152617E+02  0.10770009549E+02  0.43809725770E+02  0.00000000000E+00 0.  1.
         22    1    4    4    0    0 -0.11056300952E+02 -0.23683235425E+02 -0.13216372944E+01  0.26170291478E+02  0.00000000000E+00 0.  1.
         22    1    4    4    0    0 -0.10794422335E+02 -0.12728917192E+02 -0.88777107160E+01  0.18903931707E+02  0.00000000000E+00 0.  1.
<mgrwt>
<rscale>  0 0.88882117E+02</rscale>
<asrwt>0</asrwt>
<pdfrwt beam="1">  1        2 0.68811239E-02 0.88882117E+02</pdfrwt>
<pdfrwt beam="2">  1       -2 0.67933298E-02 0.88882117E+02</pdfrwt>
<totfact> 0.10562289E+05</totfact>
</mgrwt>
</event>
<event>
 7    1  0.3960685E-009  0.9073715E+02  0.7818608E-02  0.1301076E+00
          2   -1    0    0  501    0  0.00000000000E+00  0.00000000000E+00  0.51922066118E+02  0.51922066181E+02  0.25500000000E-02 0. -1.
         -2   -1    0    0    0  501 -0.00000000000E+00 -0.00000000000E+00 -0.39642250088E+02  0.39642250170E+02  0.25500000000E-02 0.  1.
         23    2    1    2    0    0  0.00000000000E+00  0.17763568394E-14  0.12279816031E+02  0.91564316351E+02  0.90737148660E+02 0.  0.
    9000005    2    3    3    0    0 -0.42818103314E+02 -0.13514585677E+02  0.99052757810E+01  0.46601304454E+02  0.75850570971E+01 0.  0.
         22    1    3    3    0    0  0.42818103314E+02  0.13514585677E+02  0.23745402495E+01  0.44963011896E+02  0.00000000000E+00 0.  1.
         22    1    4    4    0    0 -0.11008678509E+02 -0.23493170980E+01 -0.65034749589E+00  0.11275337920E+02  0.00000000000E+00 0.  1.
         22    1    4    4    0    0 -0.31809424804E+02 -0.11165268579E+02  0.10555623277E+02  0.35325966534E+02  0.00000000000E+00 0.  1.
<mgrwt>
<rscale>  0 0.90737149E+02</rscale>
<asrwt>0</asrwt>
<pdfrwt beam="1">  1        2 0.79880101E-02 0.90737149E+02</pdfrwt>
<pdfrwt beam="2">  1       -2 0.60988077E-02 0.90737149E+02</pdfrwt>
<totfact> 0.10349360E+05</totfact>
</mgrwt>
</event>
<event>
 7    1  0.3960685E-009  0.9035331E+02  0.7818608E-02  0.1301998E+00
          2   -1    0    0  501    0  0.00000000000E+00  0.00000000000E+00  0.46672524114E+03  0.46672524115E+03  0.25500000000E-02 0.  1.
         -2   -1    0    0    0  501 -0.00000000000E+00 -0.00000000000E+00 -0.43728726088E+01  0.43728733523E+01  0.25500000000E-02 0. -1.
         23    2    1    2    0    0  0.35527136788E-14 -0.35527136788E-14  0.46235236854E+03  0.47109811450E+03  0.90353310943E+02 0.  0.
    9000005    2    3    3    0    0  0.31471234952E+02  0.26866195431E+02  0.31890423253E+03  0.32180109910E+03  0.11991945930E+02 0.  0.
         22    1    3    3    0    0 -0.31471234952E+02 -0.26866195431E+02  0.14344813600E+03  0.14929701541E+03  0.00000000000E+00 0. -1.
         22    1    4    4    0    0  0.23673317879E+02  0.19402935869E+02  0.19043399315E+03  0.19287821455E+03  0.00000000000E+00 0. -1.
         22    1    4    4    0    0  0.77979170724E+01  0.74632595615E+01  0.12847023938E+03  0.12892288455E+03  0.00000000000E+00 0. -1.
<mgrwt>
<rscale>  0 0.90353311E+02</rscale>
<asrwt>0</asrwt>
<pdfrwt beam="1">  1        2 0.71803844E-01 0.90353311E+02</pdfrwt>
<pdfrwt beam="2">  1       -2 0.67275005E-03 0.90353311E+02</pdfrwt>
<totfact> 0.21575732E+05</totfact>
</mgrwt>
</event>
<event>
 7    1  0.3960685E-009  0.9082024E+02  0.7818608E-02  0.1300877E+00
          2   -1    0    0  501    0  0.00000000000E+00  0.00000000000E+00  0.41684238005E+03  0.41684238006E+03  0.25500000000E-02 0. -1.
         -2   -1    0    0    0  501 -0.00000000000E+00 -0.00000000000E+00 -0.49469026681E+01  0.49469033253E+01  0.25500000000E-02 0.  1.
         23    2    1    2    0    0 -0.35527136788E-14  0.17763568394E-14  0.41189547738E+03  0.42178928338E+03  0.90820236121E+02 0.  0.
    9000005    2    3    3    0    0 -0.27117284054E+02  0.13260212078E+02  0.36344118086E+03  0.36470163874E+03  0.25715832432E+01 0.  0.
         22    1    3    3    0    0  0.27117284054E+02 -0.13260212078E+02  0.48454296525E+02  0.57087644640E+02  0.00000000000E+00 0.  1.
         22    1    4    4    0    0 -0.24483083790E+02  0.12774798137E+02  0.33215187945E+03  0.33329789661E+03  0.00000000000E+00 0. -1.
         22    1    4    4    0    0 -0.26342002637E+01  0.48541394071E+00  0.31289301405E+02  0.31403742136E+02  0.00000000000E+00 0. -1.
<mgrwt>
<rscale>  0 0.90820236E+02</rscale>
<asrwt>0</asrwt>
<pdfrwt beam="1">  1        2 0.64129591E-01 0.90820236E+02</pdfrwt>
<pdfrwt beam="2">  1       -2 0.76106207E-03 0.90820236E+02</pdfrwt>
<totfact> 0.20468802E+05</totfact>
</mgrwt>
</event>
<event>
 7    1  0.3960685E-009  0.9089351E+02  0.7818608E-02  0.1300702E+00
         -2   -1    0    0    0  501 -0.00000000000E+00  0.00000000000E+00  0.60453491452E+01  0.60453496830E+01  0.25500000000E-02 0.  1.
          2   -1    0    0  501    0  0.00000000000E+00 -0.00000000000E+00 -0.34165227569E+03  0.34165227570E+03  0.25500000000E-02 0. -1.
         23    2    1    2    0    0  0.00000000000E+00  0.35527136788E-14 -0.33560692655E+03  0.34769762539E+03  0.90893506654E+02 0.  0.
    9000005    2    3    3    0    0  0.20974448433E+02 -0.25364195417E+02 -0.28518252591E+03  0.28748226127E+03  0.15287496934E+02 0.  0.
         22    1    3    3    0    0 -0.20974448433E+02  0.25364195417E+02 -0.50424400639E+02  0.60215364120E+02  0.00000000000E+00 0.  1.
         22    1    4    4    0    0  0.14631150647E+02 -0.21832792840E+02 -0.25840126427E+03  0.25973439277E+03  0.00000000000E+00 0. -1.
         22    1    4    4    0    0  0.63432977867E+01 -0.35314025774E+01 -0.26781261642E+02  0.27747868497E+02  0.00000000000E+00 0. -1.
<mgrwt>
<rscale>  0 0.90893507E+02</rscale>
<asrwt>0</asrwt>
<pdfrwt beam="2">  1        2 0.52561873E-01 0.90893507E+02</pdfrwt>
<pdfrwt beam="1">  1       -2 0.93005403E-03 0.90893507E+02</pdfrwt>
<totfact> 0.19008859E+05</totfact>
</mgrwt>
</event>
<event>
 7    1  0.3960685E-009  0.9039661E+02  0.7818608E-02  0.1301894E+00
          2   -1    0    0  501    0  0.00000000000E+00  0.00000000000E+00  0.73964153305E+01  0.73964157701E+01  0.25500000000E-02 0. -1.
         -2   -1    0    0    0  501 -0.00000000000E+00 -0.00000000000E+00 -0.27619954825E+03  0.27619954826E+03  0.25500000000E-02 0.  1.
         23    2    1    2    0    0  0.71054273576E-14  0.00000000000E+00 -0.26880313292E+03  0.28359596403E+03  0.90396606949E+02 0.  0.
    9000005    2    3    3    0    0 -0.43650412351E+02 -0.10081096970E+02 -0.12774915115E+03  0.13559862356E+03  0.77559059128E+01 0.  0.
         22    1    3    3    0    0  0.43650412351E+02  0.10081096970E+02 -0.14105398177E+03  0.14799734047E+03  0.00000000000E+00 0. -1.
         22    1    4    4    0    0 -0.42288352619E+02 -0.11147536803E+02 -0.12258375987E+03  0.13015126019E+03  0.00000000000E+00 0.  1.
         22    1    4    4    0    0 -0.13620597324E+01  0.10664398322E+01 -0.51653912779E+01  0.54473633699E+01  0.00000000000E+00 0.  1.
<mgrwt>
<rscale>  0 0.90396607E+02</rscale>
<asrwt>0</asrwt>
<pdfrwt beam="1">  1        2 0.11379103E-02 0.90396607E+02</pdfrwt>
<pdfrwt beam="2">  1       -2 0.42492230E-01 0.90396607E+02</pdfrwt>
<totfact> 0.54553675E+04</totfact>
</mgrwt>
</event>
<event>
 7    1  0.3960685E-009  0.9171106E+02  0.7818608E-02  0.1298760E+00
         -2   -1    0    0    0  501 -0.00000000000E+00  0.00000000000E+00  0.14891469849E+02  0.14891470067E+02  0.25500000000E-02 0.  1.
          2   -1    0    0  501    0  0.00000000000E+00 -0.00000000000E+00 -0.14120364213E+03  0.14120364215E+03  0.25500000000E-02 0. -1.
         23    2    1    2    0    0 -0.88817841970E-15 -0.35527136788E-14 -0.12631217228E+03  0.15609511222E+03  0.91711063632E+02 0.  0.
    9000005    2    3    3    0    0  0.48216607206E+01  0.24670711834E+02 -0.13865476651E+01  0.28665507652E+02  0.13707530048E+02 0.  0.
         22    1    3    3    0    0 -0.48216607206E+01 -0.24670711834E+02 -0.12492562462E+03  0.12742960457E+03  0.00000000000E+00 0. -1.
         22    1    4    4    0    0  0.75856552105E+01  0.10326320083E+02 -0.47671836459E+01  0.13671177394E+02  0.00000000000E+00 0. -1.
         22    1    4    4    0    0 -0.27639944899E+01  0.14344391752E+02  0.33806359807E+01  0.14994330258E+02  0.00000000000E+00 0. -1.
<mgrwt>
<rscale>  0 0.91711064E+02</rscale>
<asrwt>0</asrwt>
<pdfrwt beam="2">  1        2 0.21723636E-01 0.91711064E+02</pdfrwt>
<pdfrwt beam="1">  1       -2 0.22909955E-02 0.91711064E+02</pdfrwt>
<totfact> 0.13482382E+05</totfact>
</mgrwt>
</event>
<event>
 7    1  0.3960685E-009  0.9548647E+02  0.7818608E-02  0.1290084E+00
         -2   -1    0    0    0  501 -0.00000000000E+00  0.00000000000E+00  0.69307213287E+01  0.69307217978E+01  0.25500000000E-02 0.  1.
          2   -1    0    0  501    0  0.00000000000E+00 -0.00000000000E+00 -0.32888589989E+03  0.32888589990E+03  0.25500000000E-02 0. -1.
         23    2    1    2    0    0  0.00000000000E+00  0.35527136788E-14 -0.32195517856E+03  0.33581662169E+03  0.95486472371E+02 0.  0.
    9000005    2    3    3    0    0 -0.39814688674E+02  0.22452988202E+02 -0.11501608293E+03  0.12388942803E+03  0.55267470165E+01 0.  0.
         22    1    3    3    0    0  0.39814688674E+02 -0.22452988202E+02 -0.20693909563E+03  0.21192719366E+03  0.00000000000E+00 0. -1.
         22    1    4    4    0    0 -0.24199038742E+01  0.27602574850E-01 -0.68786039176E+01  0.72919056849E+01  0.00000000000E+00 0.  1.
         22    1    4    4    0    0 -0.37394784800E+02  0.22425385627E+02 -0.10813747901E+03  0.11659752234E+03  0.00000000000E+00 0.  1.
<mgrwt>
<rscale>  0 0.95486472E+02</rscale>
<asrwt>0</asrwt>
<pdfrwt beam="2">  1        2 0.50597818E-01 0.95486472E+02</pdfrwt>
<pdfrwt beam="1">  1       -2 0.10662651E-02 0.95486472E+02</pdfrwt>
<totfact> 0.16431477E+05</totfact>
</mgrwt>
</event>
<event>
 7    1  0.3960685E-009  0.9296410E+02  0.7818608E-02  0.1295828E+00
          2   -1    0    0  501    0  0.00000000000E+00  0.00000000000E+00  0.45102796788E+01  0.45102803997E+01  0.25500000000E-02 0. -1.
         -2   -1    0    0    0  501 -0.00000000000E+00 -0.00000000000E+00 -0.47903475421E+03  0.47903475421E+03  0.25500000000E-02 0.  1.
         23    2    1    2    0    0  0.00000000000E+00  0.00000000000E+00 -0.47452447453E+03  0.48354503461E+03  0.92964098302E+02 0.  0.
    9000005    2    3    3    0    0 -0.53767766361E+01 -0.13941493297E+02 -0.46608795187E+03  0.46638549275E+03  0.73602995143E+01 0.  0.
         22    1    3    3    0    0  0.53767766361E+01  0.13941493297E+02 -0.84365226593E+01  0.17159541862E+02  0.00000000000E+00 0. -1.
         22    1    4    4    0    0 -0.70332339930E+01 -0.12582446713E+02 -0.38651329263E+03  0.38678199250E+03  0.00000000000E+00 0.  1.
         22    1    4    4    0    0  0.16564573569E+01 -0.13590465843E+01 -0.79574659244E+02  0.79603500252E+02  0.00000000000E+00 0.  1.
<mgrwt>
<rscale>  0 0.92964098E+02</rscale>
<asrwt>0</asrwt>
<pdfrwt beam="1">  1        2 0.69388962E-03 0.92964098E+02</pdfrwt>
<pdfrwt beam="2">  1       -2 0.73697614E-01 0.92964098E+02</pdfrwt>
<totfact> 0.35677013E+04</totfact>
</mgrwt>
</event>
<event>
 7    1  0.3960685E-009  0.9302991E+02  0.7818608E-02  0.1295676E+00
         -2   -1    0    0    0  501 -0.00000000000E+00  0.00000000000E+00  0.47934598963E+03  0.47934598963E+03  0.25500000000E-02 0.  1.
          2   -1    0    0  501    0  0.00000000000E+00 -0.00000000000E+00 -0.45137352352E+01  0.45137359555E+01  0.25500000000E-02 0. -1.
         23    2    1    2    0    0  0.00000000000E+00  0.00000000000E+00  0.47483225439E+03  0.48385972559E+03  0.93029910440E+02 0.  0.
    9000005    2    3    3    0    0  0.56797222778E+01 -0.40673470705E+02  0.34929801522E+03  0.35177855484E+03  0.72427714426E+01 0.  0.
         22    1    3    3    0    0 -0.56797222778E+01  0.40673470705E+02  0.12553423917E+03  0.13208117075E+03  0.00000000000E+00 0. -1.
         22    1    4    4    0    0  0.33867927093E+01 -0.55518455144E+01  0.53185705544E+02  0.53581831134E+02  0.00000000000E+00 0.  1.
         22    1    4    4    0    0  0.22929295684E+01 -0.35121625190E+02  0.29611230968E+03  0.29819672370E+03  0.00000000000E+00 0.  1.
<mgrwt>
<rscale>  0 0.93029910E+02</rscale>
<asrwt>0</asrwt>
<pdfrwt beam="2">  1        2 0.69442122E-03 0.93029910E+02</pdfrwt>
<pdfrwt beam="1">  1       -2 0.73745499E-01 0.93029910E+02</pdfrwt>
<totfact> 0.35594049E+04</totfact>
</mgrwt>
</event>
<event>
 7    1  0.3960685E-009  0.9513285E+02  0.7818608E-02  0.1290877E+00
         -2   -1    0    0    0  501 -0.00000000000E+00  0.00000000000E+00  0.51712923570E+03  0.51712923571E+03  0.25500000000E-02 0.  1.
          2   -1    0    0  501    0  0.00000000000E+00 -0.00000000000E+00 -0.43752399174E+01  0.43752406605E+01  0.25500000000E-02 0. -1.
         23    2    1    2    0    0  0.00000000000E+00  0.00000000000E+00  0.51275399579E+03  0.52150447637E+03  0.95132847533E+02 0.  0.
    9000005    2    3    3    0    0  0.45363198013E+02  0.74205231171E+01  0.30834555059E+03  0.31199147829E+03  0.12199182735E+02 0.  0.
         22    1    3    3    0    0 -0.45363198013E+02 -0.74205231171E+01  0.20440844519E+03  0.20951299808E+03  0.00000000000E+00 0. -1.
         22    1    4    4    0    0  0.20131821851E+02  0.68774023315E+01  0.17403225796E+03  0.17532773804E+03  0.00000000000E+00 0.  1.
         22    1    4    4    0    0  0.25231376162E+02  0.54312078559E+00  0.13431329263E+03  0.13666374025E+03  0.00000000000E+00 0.  1.
<mgrwt>
<rscale>  0 0.95132848E+02</rscale>
<asrwt>0</asrwt>
<pdfrwt beam="2">  1        2 0.67311361E-03 0.95132848E+02</pdfrwt>
<pdfrwt beam="1">  1       -2 0.79558377E-01 0.95132848E+02</pdfrwt>
<totfact> 0.31665704E+04</totfact>
</mgrwt>
</event>
<event>
 7    1  0.3960685E-009  0.9254638E+02  0.7818608E-02  0.1296800E+00
          2   -1    0    0  501    0  0.00000000000E+00  0.00000000000E+00  0.33377829016E+02  0.33377829113E+02  0.25500000000E-02 0. -1.
         -2   -1    0    0    0  501 -0.00000000000E+00 -0.00000000000E+00 -0.64150611047E+02  0.64150611097E+02  0.25500000000E-02 0.  1.
         23    2    1    2    0    0  0.00000000000E+00  0.00000000000E+00 -0.30772782031E+02  0.97528440211E+02  0.92546380458E+02 0.  0.
    9000005    2    3    3    0    0 -0.10114192669E+02 -0.22875671203E+02 -0.56257978944E+02  0.61820059010E+02  0.55826763165E+01 0.  0.
         22    1    3    3    0    0  0.10114192669E+02  0.22875671203E+02  0.25485196912E+02  0.35708381201E+02  0.00000000000E+00 0. -1.
         22    1    4    4    0    0 -0.77611947120E+01 -0.17516572265E+02 -0.36628627125E+02  0.41336700066E+02  0.00000000000E+00 0. -1.
         22    1    4    4    0    0 -0.23529979566E+01 -0.53590989373E+01 -0.19629351819E+02  0.20483358944E+02  0.00000000000E+00 0. -1.
<mgrwt>
<rscale>  0 0.92546380E+02</rscale>
<asrwt>0</asrwt>
<pdfrwt beam="1">  1        2 0.51350506E-02 0.92546380E+02</pdfrwt>
<pdfrwt beam="2">  1       -2 0.98693248E-02 0.92546380E+02</pdfrwt>
<totfact> 0.87086931E+04</totfact>
</mgrwt>
</event>
<event>
 7    1  0.3960685E-009  0.8984789E+02  0.7818608E-02  0.1303220E+00
          2   -1    0    0  501    0  0.00000000000E+00  0.00000000000E+00  0.11447851297E+02  0.11447851581E+02  0.25500000000E-02 0. -1.
         -2   -1    0    0    0  501 -0.00000000000E+00 -0.00000000000E+00 -0.17629168717E+03  0.17629168719E+03  0.25500000000E-02 0.  1.
         23    2    1    2    0    0  0.00000000000E+00 -0.71054273576E-14 -0.16484383587E+03  0.18773953877E+03  0.89847894754E+02 0.  0.
    9000005    2    3    3    0    0 -0.89857402051E+01 -0.41277530582E+02 -0.59468168374E+02  0.74211527429E+02  0.13649530965E+02 0.  0.
         22    1    3    3    0    0  0.89857402051E+01  0.41277530582E+02 -0.10537566750E+03  0.11352801134E+03  0.00000000000E+00 0.  1.
         22    1    4    4    0    0 -0.34015541931E+01 -0.36448498249E+02 -0.52894185254E+02  0.64326187741E+02  0.00000000000E+00 0.  1.
         22    1    4    4    0    0 -0.55841860120E+01 -0.48290323325E+01 -0.65739831199E+01  0.98853396879E+01  0.00000000000E+00 0.  1.
<mgrwt>
<rscale>  0 0.89847895E+02</rscale>
<asrwt>0</asrwt>
<pdfrwt beam="1">  1        2 0.17612080E-02 0.89847895E+02</pdfrwt>
<pdfrwt beam="2">  1       -2 0.27121796E-01 0.89847895E+02</pdfrwt>
<totfact> 0.68180761E+04</totfact>
</mgrwt>
</event>
<event>
 7    1  0.3960685E-009  0.8699456E+02  0.7818608E-02  0.1310297E+00
          2   -1    0    0  501    0  0.00000000000E+00  0.00000000000E+00  0.98243143703E+01  0.98243147013E+01  0.25500000000E-02 0. -1.
         -2   -1    0    0    0  501 -0.00000000000E+00 -0.00000000000E+00 -0.19258477782E+03  0.19258477783E+03  0.25500000000E-02 0.  1.
         23    2    1    2    0    0  0.11102230246E-15  0.00000000000E+00 -0.18276046345E+03  0.20240909254E+03  0.86994561564E+02 0.  0.
    9000005    2    3    3    0    0 -0.28025915562E+00  0.42873095743E+02 -0.87388785605E+02  0.97843621092E+02  0.99193475129E+01 0.  0.
         22    1    3    3    0    0  0.28025915562E+00 -0.42873095743E+02 -0.95371677842E+02  0.10456547144E+03  0.00000000000E+00 0.  1.
         22    1    4    4    0    0 -0.46375703355E+01  0.16084717745E+02 -0.36994149672E+02  0.40605323709E+02  0.00000000000E+00 0.  1.
         22    1    4    4    0    0  0.43573111799E+01  0.26788377998E+02 -0.50394635933E+02  0.57238297383E+02  0.00000000000E+00 0.  1.
<mgrwt>
<rscale>  0 0.86994562E+02</rscale>
<asrwt>0</asrwt>
<pdfrwt beam="1">  1        2 0.15114331E-02 0.86994562E+02</pdfrwt>
<pdfrwt beam="2">  1       -2 0.29628425E-01 0.86994562E+02</pdfrwt>
<totfact> 0.71382824E+04</totfact>
</mgrwt>
</event>
<event>
 7    1  0.3960685E-009  0.9203654E+02  0.7818608E-02  0.1297994E+00
          2   -1    0    0  501    0  0.00000000000E+00  0.00000000000E+00  0.31822697247E+02  0.31822697349E+02  0.25500000000E-02 0. -1.
         -2   -1    0    0    0  501 -0.00000000000E+00 -0.00000000000E+00 -0.66546244377E+02  0.66546244426E+02  0.25500000000E-02 0.  1.
         23    2    1    2    0    0  0.00000000000E+00  0.00000000000E+00 -0.34723547130E+02  0.98368941775E+02  0.92036536118E+02 0.  0.
    9000005    2    3    3    0    0 -0.31025372255E+02 -0.17080996008E+02 -0.48121026137E+02  0.60503039014E+02  0.95210516925E+01 0.  0.
         22    1    3    3    0    0  0.31025372255E+02  0.17080996008E+02  0.13397479007E+02  0.37865902761E+02  0.00000000000E+00 0. -1.
         22    1    4    4    0    0 -0.21589850979E+02 -0.14410751990E+02 -0.28379591934E+02  0.38460274005E+02  0.00000000000E+00 0. -1.
         22    1    4    4    0    0 -0.94355212761E+01 -0.26702440176E+01 -0.19741434203E+02  0.22042765009E+02  0.00000000000E+00 0. -1.
<mgrwt>
<rscale>  0 0.92036536E+02</rscale>
<asrwt>0</asrwt>
<pdfrwt beam="1">  1        2 0.48957996E-02 0.92036536E+02</pdfrwt>
<pdfrwt beam="2">  1       -2 0.10237884E-01 0.92036536E+02</pdfrwt>
<totfact> 0.87402547E+04</totfact>
</mgrwt>
</event>
<event>
 7    1  0.3960685E-009  0.9247325E+02  0.7818608E-02  0.1296971E+00
          2   -1    0    0  501    0  0.00000000000E+00  0.00000000000E+00  0.56466528100E+02  0.56466528158E+02  0.25500000000E-02 0. -1.
         -2   -1    0    0    0  501 -0.00000000000E+00 -0.00000000000E+00 -0.37860052066E+02  0.37860052152E+02  0.25500000000E-02 0.  1.
         23    2    1    2    0    0 -0.71054273576E-14  0.17763568394E-14  0.18606476034E+02  0.94326580310E+02  0.92473254526E+02 0.  0.
    9000005    2    3    3    0    0 -0.37574859322E+02  0.86111238197E+01 -0.14947432265E+02  0.43219963628E+02  0.12590393884E+02 0.  0.
         22    1    3    3    0    0  0.37574859322E+02 -0.86111238197E+01  0.33553908299E+02  0.51106616682E+02  0.00000000000E+00 0. -1.
         22    1    4    4    0    0 -0.18596971222E+02  0.10680034522E+02 -0.72816812197E+01  0.22648032087E+02  0.00000000000E+00 0.  1.
         22    1    4    4    0    0 -0.18977888100E+02 -0.20689107022E+01 -0.76657510458E+01  0.20571931541E+02  0.00000000000E+00 0.  1.
<mgrwt>
<rscale>  0 0.92473255E+02</rscale>
<asrwt>0</asrwt>
<pdfrwt beam="1">  1        2 0.86871581E-02 0.92473255E+02</pdfrwt>
<pdfrwt beam="2">  1       -2 0.58246234E-02 0.92473255E+02</pdfrwt>
<totfact> 0.10026788E+05</totfact>
</mgrwt>
</event>
<event>
 7    1  0.3960685E-009  0.9153093E+02  0.7818608E-02  0.1299186E+00
         -2   -1    0    0    0  501 -0.00000000000E+00  0.00000000000E+00  0.16817153127E+02  0.16817153320E+02  0.25500000000E-02 0.  1.
          2   -1    0    0  501    0  0.00000000000E+00 -0.00000000000E+00 -0.12454412784E+03  0.12454412787E+03  0.25500000000E-02 0. -1.
         23    2    1    2    0    0  0.00000000000E+00  0.88817841970E-15 -0.10772697471E+03  0.14136128119E+03  0.91530927768E+02 0.  0.
    9000005    2    3    3    0    0  0.32672278695E+02 -0.68588501662E+01 -0.87563385317E+01  0.36911731418E+02  0.13087430269E+02 0.  0.
         22    1    3    3    0    0 -0.32672278695E+02  0.68588501662E+01 -0.98970636183E+02  0.10444954977E+03  0.00000000000E+00 0. -1.
         22    1    4    4    0    0  0.97181692336E+01 -0.83907752064E+01 -0.36248973738E+01  0.13341206946E+02  0.00000000000E+00 0.  1.
         22    1    4    4    0    0  0.22954109462E+02  0.15319250402E+01 -0.51314411580E+01  0.23570524472E+02  0.00000000000E+00 0.  1.
<mgrwt>
<rscale>  0 0.91530928E+02</rscale>
<asrwt>0</asrwt>
<pdfrwt beam="2">  1        2 0.19160634E-01 0.91530928E+02</pdfrwt>
<pdfrwt beam="1">  1       -2 0.25872544E-02 0.91530928E+02</pdfrwt>
<totfact> 0.13004423E+05</totfact>
</mgrwt>
</event>
<event>
 7    1  0.3960685E-009  0.8725506E+02  0.7818608E-02  0.1309638E+00
          2   -1    0    0  501    0  0.00000000000E+00  0.00000000000E+00  0.16481145250E+03  0.16481145252E+03  0.25500000000E-02 0.  1.
         -2   -1    0    0    0  501 -0.00000000000E+00 -0.00000000000E+00 -0.11548720218E+02  0.11548720499E+02  0.25500000000E-02 0. -1.
         23    2    1    2    0    0  0.00000000000E+00  0.00000000000E+00  0.15326273228E+03  0.17636017302E+03  0.87255060142E+02 0.  0.
    9000005    2    3    3    0    0  0.25799600597E+02  0.33988989651E+02  0.62879786721E+02  0.76410447372E+02  0.79886219741E+01 0.  0.
         22    1    3    3    0    0 -0.25799600597E+02 -0.33988989651E+02  0.90382945557E+02  0.99949725643E+02  0.00000000000E+00 0. -1.
         22    1    4    4    0    0  0.33326737388E+01  0.97966381268E+01  0.13488974665E+02  0.17000978511E+02  0.00000000000E+00 0. -1.
         22    1    4    4    0    0  0.22466926859E+02  0.24192351524E+02  0.49390812057E+02  0.59409468861E+02  0.00000000000E+00 0. -1.
<mgrwt>
<rscale>  0 0.87255060E+02</rscale>
<asrwt>0</asrwt>
<pdfrwt beam="1">  1        2 0.25355608E-01 0.87255060E+02</pdfrwt>
<pdfrwt beam="2">  1       -2 0.17767262E-02 0.87255060E+02</pdfrwt>
<totfact> 0.16258998E+05</totfact>
</mgrwt>
</event>
<event>
 7    1  0.3960685E-009  0.9240831E+02  0.7818608E-02  0.1297122E+00
          2   -1    0    0  501    0  0.00000000000E+00  0.00000000000E+00  0.15466778978E+03  0.15466778980E+03  0.25500000000E-02 0.  1.
         -2   -1    0    0    0  501 -0.00000000000E+00 -0.00000000000E+00 -0.13802639476E+02  0.13802639712E+02  0.25500000000E-02 0. -1.
         23    2    1    2    0    0  0.35527136788E-14  0.00000000000E+00  0.14086515030E+03  0.16847042951E+03  0.92408306174E+02 0.  0.
    9000005    2    3    3    0    0 -0.23467434537E+02 -0.38541365520E+02  0.61647477777E+02  0.77302469239E+02  0.11794189002E+02 0.  0.
         22    1    3    3    0    0  0.23467434537E+02  0.38541365520E+02  0.79217672525E+02  0.91167960272E+02  0.00000000000E+00 0.  1.
         22    1    4    4    0    0 -0.17565592084E+02 -0.25729679530E+02  0.33070367020E+02  0.45433639617E+02  0.00000000000E+00 0. -1.
         22    1    4    4    0    0 -0.59018424529E+01 -0.12811685989E+02  0.28577110757E+02  0.31868829622E+02  0.00000000000E+00 0. -1.
<mgrwt>
<rscale>  0 0.92408306E+02</rscale>
<asrwt>0</asrwt>
<pdfrwt beam="1">  1        2 0.23795043E-01 0.92408306E+02</pdfrwt>
<pdfrwt beam="2">  1       -2 0.21234832E-02 0.92408306E+02</pdfrwt>
<totfact> 0.13622418E+05</totfact>
</mgrwt>
</event>
<event>
 7    1  0.3960685E-009  0.9012438E+02  0.7818608E-02  0.1302551E+00
          2   -1    0    0  501    0  0.00000000000E+00  0.00000000000E+00  0.39559059889E+03  0.39559059889E+03  0.25500000000E-02 0. -1.
         -2   -1    0    0    0  501 -0.00000000000E+00 -0.00000000000E+00 -0.51330868458E+01  0.51330874791E+01  0.25500000000E-02 0.  1.
         23    2    1    2    0    0  0.00000000000E+00  0.00000000000E+00  0.39045751204E+03  0.40072368637E+03  0.90124381340E+02 0.  0.
    9000005    2    3    3    0    0 -0.40220960160E+02  0.18195277637E+02  0.23283504215E+03  0.23703606687E+03  0.50146165952E+01 0.  0.
         22    1    3    3    0    0  0.40220960160E+02 -0.18195277637E+02  0.15762246989E+03  0.16368761950E+03  0.00000000000E+00 0.  1.
         22    1    4    4    0    0 -0.27045139760E+02  0.14223749682E+02  0.16804491693E+03  0.17080061109E+03  0.00000000000E+00 0. -1.
         22    1    4    4    0    0 -0.13175820399E+02  0.39715279554E+01  0.64790125219E+02  0.66235455787E+02  0.00000000000E+00 0. -1.
<mgrwt>
<rscale>  0 0.90124381E+02</rscale>
<asrwt>0</asrwt>
<pdfrwt beam="1">  1        2 0.60860099E-01 0.90124381E+02</pdfrwt>
<pdfrwt beam="2">  1       -2 0.78970563E-03 0.90124381E+02</pdfrwt>
<totfact> 0.20505297E+05</totfact>
</mgrwt>
</event>
<event>
 7    1  0.3960685E-009  0.8961767E+02  0.7818608E-02  0.1303780E+00
          2   -1    0    0  501    0  0.00000000000E+00  0.00000000000E+00  0.14279532966E+04  0.14279532966E+04  0.25500000000E-02 0. -1.
         -2   -1    0    0    0  501 -0.00000000000E+00 -0.00000000000E+00 -0.14060893886E+01  0.14060917008E+01  0.25500000000E-02 0.  1.
         23    2    1    2    0    0  0.00000000000E+00  0.00000000000E+00  0.14265472072E+04  0.14293593883E+04  0.89617668612E+02 0.  0.
    9000005    2    3    3    0    0 -0.23858832618E+02  0.15119298457E+02  0.12652192851E+04  0.12655774127E+04  0.10416864603E+02 0.  0.
         22    1    3    3    0    0  0.23858832618E+02 -0.15119298457E+02  0.16132792213E+03  0.16378197562E+03  0.00000000000E+00 0.  1.
         22    1    4    4    0    0 -0.20428983580E+01  0.58566992671E+01  0.20784068347E+03  0.20793322020E+03  0.00000000000E+00 0.  1.
         22    1    4    4    0    0 -0.21815934260E+02  0.92625991900E+01  0.10573786016E+04  0.10576441925E+04  0.00000000000E+00 0.  1.
<mgrwt>
<rscale>  0 0.89617669E+02</rscale>
<asrwt>0</asrwt>
<pdfrwt beam="1">  1        2 0.21968554E+00 0.89617669E+02</pdfrwt>
<pdfrwt beam="2">  1       -2 0.21632121E-03 0.89617669E+02</pdfrwt>
<totfact> 0.25113769E+05</totfact>
</mgrwt>
</event>
<event>
 7    1  0.3960685E-009  0.9058988E+02  0.7818608E-02  0.1301429E+00
         -2   -1    0    0    0  501 -0.00000000000E+00  0.00000000000E+00  0.35954159684E+02  0.35954159774E+02  0.25500000000E-02 0.  1.
          2   -1    0    0  501    0  0.00000000000E+00 -0.00000000000E+00 -0.57062428381E+02  0.57062428438E+02  0.25500000000E-02 0. -1.
         23    2    1    2    0    0 -0.35527136788E-14  0.00000000000E+00 -0.21108268697E+02  0.93016588212E+02  0.90589881748E+02 0.  0.
    9000005    2    3    3    0    0  0.20227457255E+02  0.34866893830E+02 -0.31710690499E+02  0.51336117240E+02  0.22313065574E+01 0.  0.
         22    1    3    3    0    0 -0.20227457255E+02 -0.34866893830E+02  0.10602421802E+02  0.41680470972E+02  0.00000000000E+00 0.  1.
         22    1    4    4    0    0  0.17961782258E+02  0.31206094136E+02 -0.29151532955E+02  0.46327721796E+02  0.00000000000E+00 0.  1.
         22    1    4    4    0    0  0.22656749972E+01  0.36607996937E+01 -0.25591575439E+01  0.50083954441E+01  0.00000000000E+00 0.  1.
<mgrwt>
<rscale>  0 0.90589882E+02</rscale>
<asrwt>0</asrwt>
<pdfrwt beam="2">  1        2 0.87788351E-02 0.90589882E+02</pdfrwt>
<pdfrwt beam="1">  1       -2 0.55314092E-02 0.90589882E+02</pdfrwt>
<totfact> 0.10658417E+05</totfact>
</mgrwt>
</event>
<event>
 7    1  0.3960685E-009  0.8796379E+02  0.7818608E-02  0.1307859E+00
          2   -1    0    0  501    0  0.00000000000E+00  0.00000000000E+00  0.63317213573E+03  0.63317213573E+03  0.25500000000E-02 0. -1.
         -2   -1    0    0    0  501 -0.00000000000E+00 -0.00000000000E+00 -0.30551039246E+01  0.30551049888E+01  0.25500000000E-02 0.  1.
         23    2    1    2    0    0 -0.17763568394E-14  0.00000000000E+00  0.63011703180E+03  0.63622724072E+03  0.87963788390E+02 0.  0.
    9000005    2    3    3    0    0  0.13903640557E+02  0.10158596943E+01  0.61607895666E+03  0.61644313737E+03  0.15953607102E+02 0.  0.
         22    1    3    3    0    0 -0.13903640557E+02 -0.10158596943E+01  0.14038075139E+02  0.19784103347E+02  0.00000000000E+00 0.  1.
         22    1    4    4    0    0  0.15010035123E+02 -0.26720326017E+01  0.56991635638E+03  0.57012024537E+03  0.00000000000E+00 0.  1.
         22    1    4    4    0    0 -0.11063945655E+01  0.36878922959E+01  0.46162600279E+02  0.46322891997E+02  0.00000000000E+00 0.  1.
<mgrwt>
<rscale>  0 0.87963788E+02</rscale>
<asrwt>0</asrwt>
<pdfrwt beam="1">  1        2 0.97411177E-01 0.87963788E+02</pdfrwt>
<pdfrwt beam="2">  1       -2 0.47001569E-03 0.87963788E+02</pdfrwt>
<totfact> 0.25417584E+05</totfact>
</mgrwt>
</event>
<event>
 6    1  0.3960685E-009  0.1499947E+03  0.7818608E-02  0.1200479E+00
          2   -1    0    0  501    0  0.00000000000E+00  0.00000000000E+00  0.84536416130E+02  0.84536416169E+02  0.25500000000E-02 0. -1.
         -2   -1    0    0    0  501 -0.00000000000E+00 -0.00000000000E+00 -0.66534710233E+02  0.66534710282E+02  0.25500000000E-02 0.  1.
    9000005    2    1    2    0    0 -0.50103223680E+02  0.87202096169E+00  0.64519416868E+02  0.82697221504E+02  0.12844525992E+02 0.  0.
         22    1    1    2    0    0  0.50103223680E+02 -0.87202096169E+00 -0.46517710970E+02  0.68373904946E+02  0.00000000000E+00 0.  1.
         22    1    3    3    0    0 -0.27803375661E+02  0.31774838343E+01  0.26387518349E+02  0.38463297132E+02  0.00000000000E+00 0. -1.
         22    1    3    3    0    0 -0.22299848018E+02 -0.23054628726E+01  0.38131898519E+02  0.44233924372E+02  0.00000000000E+00 0. -1.
<mgrwt>
<rscale>  0 0.14999475E+03</rscale>
<asrwt>0</asrwt>
<pdfrwt beam="1">  1        2 0.13005602E-01 0.14999475E+03</pdfrwt>
<pdfrwt beam="2">  1       -2 0.10236109E-01 0.14999475E+03</pdfrwt>
<totfact> 0.27529364E+04</totfact>
</mgrwt>
</event>
<event>
 7    1  0.3960685E-009  0.9079147E+02  0.7818608E-02  0.1300946E+00
         -2   -1    0    0    0  501 -0.00000000000E+00  0.00000000000E+00  0.13396662283E+02  0.13396662526E+02  0.25500000000E-02 0. -1.
          2   -1    0    0  501    0  0.00000000000E+00 -0.00000000000E+00 -0.15382730933E+03  0.15382730935E+03  0.25500000000E-02 0.  1.
         23    2    1    2    0    0  0.00000000000E+00  0.00000000000E+00 -0.14043064704E+03  0.16722397187E+03  0.90791465128E+02 0.  0.
    9000005    2    3    3    0    0 -0.33746834028E+02 -0.14631287912E+02 -0.24901436003E+02  0.45980737025E+02  0.11883739708E+02 0.  0.
         22    1    3    3    0    0  0.33746834028E+02  0.14631287912E+02 -0.11552921104E+03  0.12124323485E+03  0.00000000000E+00 0.  1.
         22    1    4    4    0    0 -0.44647532714E+01 -0.25231410378E+00  0.68181520436E+00  0.45235556982E+01  0.00000000000E+00 0.  1.
         22    1    4    4    0    0 -0.29282080757E+02 -0.14378973808E+02 -0.25583251207E+02  0.41457181326E+02  0.00000000000E+00 0.  1.
<mgrwt>
<rscale>  0 0.90791465E+02</rscale>
<asrwt>0</asrwt>
<pdfrwt beam="2">  1        2 0.23665739E-01 0.90791465E+02</pdfrwt>
<pdfrwt beam="1">  1       -2 0.20610251E-02 0.90791465E+02</pdfrwt>
<totfact> 0.14264508E+05</totfact>
</mgrwt>
</event>
<event>
 7    1  0.3960685E-009  0.8818417E+02  0.7818608E-02  0.1307310E+00
          2   -1    0    0  501    0  0.00000000000E+00  0.00000000000E+00  0.64502392929E+03  0.64502392929E+03  0.25500000000E-02 0. -1.
         -2   -1    0    0    0  501 -0.00000000000E+00 -0.00000000000E+00 -0.30140143996E+01  0.30140154783E+01  0.25500000000E-02 0.  1.
         23    2    1    2    0    0  0.88817841970E-15 -0.35527136788E-14  0.64200991489E+03  0.64803794477E+03  0.88184165519E+02 0.  0.
    9000005    2    3    3    0    0  0.78407422001E+01 -0.31331998497E+02  0.53952175012E+03  0.54058099858E+03  0.10046183372E+02 0.  0.
         22    1    3    3    0    0 -0.78407422001E+01  0.31331998497E+02  0.10248816477E+03  0.10745694619E+03  0.00000000000E+00 0.  1.
         22    1    4    4    0    0 -0.58756813091E+00 -0.17974452198E+02  0.30128355208E+03  0.30181982195E+03  0.00000000000E+00 0. -1.
         22    1    4    4    0    0  0.84283103310E+01 -0.13357546299E+02  0.23823819804E+03  0.23876117662E+03  0.00000000000E+00 0. -1.
<mgrwt>
<rscale>  0 0.88184166E+02</rscale>
<asrwt>0</asrwt>
<pdfrwt beam="1">  1        2 0.99234391E-01 0.88184166E+02</pdfrwt>
<pdfrwt beam="2">  1       -2 0.46369488E-03 0.88184166E+02</pdfrwt>
<totfact> 0.25374631E+05</totfact>
</mgrwt>
</event>
<event>
 7    1  0.3960685E-009  0.9840982E+02  0.7818608E-02  0.1283676E+00
          2   -1    0    0  501    0  0.00000000000E+00  0.00000000000E+00  0.12193618119E+03  0.12193618122E+03  0.25500000000E-02 0. -1.
         -2   -1    0    0    0  501 -0.00000000000E+00 -0.00000000000E+00 -0.19855659974E+02  0.19855660137E+02  0.25500000000E-02 0.  1.
         23    2    1    2    0    0 -0.35527136788E-14  0.00000000000E+00  0.10208052122E+03  0.14179184135E+03  0.98409824015E+02 0.  0.
    9000005    2    3    3    0    0  0.27261874604E+02  0.20696835428E+02  0.84417943000E+00  0.34925730252E+02  0.68938516876E+01 0.  0.
         22    1    3    3    0    0 -0.27261874604E+02 -0.20696835428E+02  0.10123634179E+03  0.10686611110E+03  0.00000000000E+00 0. -1.
         22    1    4    4    0    0  0.27528651245E+02  0.20231442481E+02  0.30443812346E+00  0.34164756502E+02  0.00000000000E+00 0. -1.
         22    1    4    4    0    0 -0.26677664115E+00  0.46539294713E+00  0.53974130654E+00  0.76097375085E+00  0.00000000000E+00 0. -1.
<mgrwt>
<rscale>  0 0.98409824E+02</rscale>
<asrwt>0</asrwt>
<pdfrwt beam="1">  1        2 0.18759412E-01 0.98409824E+02</pdfrwt>
<pdfrwt beam="2">  1       -2 0.30547169E-02 0.98409824E+02</pdfrwt>
<totfact> 0.10582305E+05</totfact>
</mgrwt>
</event>
<event>
 7    1  0.3960685E-009  0.9078801E+02  0.7818608E-02  0.1300955E+00
          2   -1    0    0  501    0  0.00000000000E+00  0.00000000000E+00  0.56493394822E+03  0.56493394822E+03  0.25500000000E-02 0. -1.
         -2   -1    0    0    0  501 -0.00000000000E+00 -0.00000000000E+00 -0.36475334903E+01  0.36475343817E+01  0.25500000000E-02 0.  1.
         23    2    1    2    0    0  0.00000000000E+00  0.00000000000E+00  0.56128641473E+03  0.56858148260E+03  0.90788011344E+02 0.  0.
    9000005    2    3    3    0    0  0.18945365440E+02  0.20786496599E+02  0.50203928830E+03  0.50299773994E+03  0.13125321776E+02 0.  0.
         22    1    3    3    0    0 -0.18945365440E+02 -0.20786496599E+02  0.59247126427E+02  0.65583742668E+02  0.00000000000E+00 0.  1.
         22    1    4    4    0    0  0.20037464552E+02  0.15263961658E+02  0.43121611013E+03  0.43195118028E+03  0.00000000000E+00 0. -1.
         22    1    4    4    0    0 -0.10920991118E+01  0.55225349410E+01  0.70823178171E+02  0.71046559656E+02  0.00000000000E+00 0. -1.
<mgrwt>
<rscale>  0 0.90788011E+02</rscale>
<asrwt>0</asrwt>
<pdfrwt beam="1">  1        2 0.86912920E-01 0.90788011E+02</pdfrwt>
<pdfrwt beam="2">  1       -2 0.56115904E-03 0.90788011E+02</pdfrwt>
<totfact> 0.22642607E+05</totfact>
</mgrwt>
</event>
<event>
 7    1  0.3960685E-009  0.9419871E+02  0.7818608E-02  0.1292991E+00
         -2   -1    0    0    0  501 -0.00000000000E+00  0.00000000000E+00  0.15897487069E+03  0.15897487071E+03  0.25500000000E-02 0.  1.
          2   -1    0    0  501    0  0.00000000000E+00 -0.00000000000E+00 -0.13954086870E+02  0.13954087103E+02  0.25500000000E-02 0. -1.
         23    2    1    2    0    0  0.00000000000E+00  0.00000000000E+00  0.14502078382E+03  0.17292895781E+03  0.94198708648E+02 0.  0.
    9000005    2    3    3    0    0  0.28615063696E+02  0.15996406688E+02  0.14158208885E+02  0.38022618394E+02  0.13059775397E+02 0.  0.
         22    1    3    3    0    0 -0.28615063696E+02 -0.15996406688E+02  0.13086257493E+03  0.13490633942E+03  0.00000000000E+00 0. -1.
         22    1    4    4    0    0  0.14713232924E+01 -0.16885217011E+01  0.30303606386E+01  0.37681538405E+01  0.00000000000E+00 0.  1.
         22    1    4    4    0    0  0.27143740403E+02  0.17684928389E+02  0.11127848246E+02  0.34254464553E+02  0.00000000000E+00 0.  1.
<mgrwt>
<rscale>  0 0.94198709E+02</rscale>
<asrwt>0</asrwt>
<pdfrwt beam="2">  1        2 0.21467826E-02 0.94198709E+02</pdfrwt>
<pdfrwt beam="1">  1       -2 0.24457673E-01 0.94198709E+02</pdfrwt>
<totfact> 0.62937506E+04</totfact>
</mgrwt>
</event>
<event>
 7    1  0.3960685E-009  0.8998249E+02  0.7818608E-02  0.1302894E+00
          2   -1    0    0  501    0  0.00000000000E+00  0.00000000000E+00  0.34574917386E+03  0.34574917387E+03  0.25500000000E-02 0. -1.
         -2   -1    0    0    0  501 -0.00000000000E+00 -0.00000000000E+00 -0.58545679253E+01  0.58545684806E+01  0.25500000000E-02 0.  1.
         23    2    1    2    0    0  0.00000000000E+00  0.35527136788E-14  0.33989460594E+03  0.35160374235E+03  0.89982489914E+02 0.  0.
    9000005    2    3    3    0    0  0.32549735943E+02 -0.30152416564E+02  0.18213912508E+03  0.18772743145E+03  0.99133293759E+01 0.  0.
         22    1    3    3    0    0 -0.32549735943E+02  0.30152416564E+02  0.15775548086E+03  0.16387631091E+03  0.00000000000E+00 0. -1.
         22    1    4    4    0    0  0.11642986832E+02 -0.17152194615E+02  0.89913895242E+02  0.92272777568E+02  0.00000000000E+00 0. -1.
         22    1    4    4    0    0  0.20906749111E+02 -0.13000221949E+02  0.92225229836E+02  0.95454653880E+02  0.00000000000E+00 0. -1.
<mgrwt>
<rscale>  0 0.89982490E+02</rscale>
<asrwt>0</asrwt>
<pdfrwt beam="1">  1        2 0.53192194E-01 0.89982490E+02</pdfrwt>
<pdfrwt beam="2">  1       -2 0.90070257E-03 0.89982490E+02</pdfrwt>
<totfact> 0.19610112E+05</totfact>
</mgrwt>
</event>
<event>
 7    1  0.3960685E-009  0.9214008E+02  0.7818608E-02  0.1297750E+00
          2   -1    0    0  501    0  0.00000000000E+00  0.00000000000E+00  0.27983616980E+03  0.27983616981E+03  0.25500000000E-02 0. -1.
         -2   -1    0    0    0  501 -0.00000000000E+00 -0.00000000000E+00 -0.75846113674E+01  0.75846117961E+01  0.25500000000E-02 0.  1.
         23    2    1    2    0    0 -0.44408920985E-15  0.71054273576E-14  0.27225155843E+03  0.28742078161E+03  0.92140081566E+02 0.  0.
    9000005    2    3    3    0    0  0.39933234859E+01 -0.39802678231E+02  0.20530985311E+03  0.20943750303E+03  0.10570338837E+02 0.  0.
         22    1    3    3    0    0 -0.39933234859E+01  0.39802678231E+02  0.66941705323E+02  0.77983278582E+02  0.00000000000E+00 0.  1.
         22    1    4    4    0    0 -0.24854708864E+01 -0.12354683596E+02  0.48426273123E+02  0.50039181657E+02  0.00000000000E+00 0. -1.
         22    1    4    4    0    0  0.64787943723E+01 -0.27447994635E+02  0.15688357999E+03  0.15939832137E+03  0.00000000000E+00 0. -1.
<mgrwt>
<rscale>  0 0.92140082E+02</rscale>
<asrwt>0</asrwt>
<pdfrwt beam="1">  1        2 0.43051709E-01 0.92140082E+02</pdfrwt>
<pdfrwt beam="2">  1       -2 0.11668636E-02 0.92140082E+02</pdfrwt>
<totfact> 0.17020580E+05</totfact>
</mgrwt>
</event>
<event>
 7    1  0.4499165E-009  0.9096935E+02  0.7818608E-02  0.1300521E+00
          2   -1    0    0  501    0  0.00000000000E+00  0.00000000000E+00  0.30833095535E+02  0.30833095641E+02  0.25500000000E-02 0.  1.
         -2   -1    0    0    0  501 -0.00000000000E+00 -0.00000000000E+00 -0.67098534992E+02  0.67098535040E+02  0.25500000000E-02 0. -1.
         23    2    1    2    0    0  0.00000000000E+00  0.35527136788E-14 -0.36265439456E+02  0.97931630681E+02  0.90969347523E+02 0.  0.
    9000005    2    3    3    0    0 -0.12414838949E+02 -0.24643021133E+02 -0.55747737784E+02  0.64153432611E+02  0.15698596468E+02 0.  0.
         22    1    3    3    0    0  0.12414838949E+02  0.24643021133E+02  0.19482298328E+02  0.33778198070E+02  0.00000000000E+00 0.  1.
         22    1    4    4    0    0 -0.41001384180E+01 -0.80887978243E+01 -0.55155273609E+01  0.10614180485E+02  0.00000000000E+00 0.  1.
         22    1    4    4    0    0 -0.83147005310E+01 -0.16554223309E+02 -0.50232210423E+02  0.53539252127E+02  0.00000000000E+00 0.  1.
<mgrwt>
<rscale>  0 0.90969348E+02</rscale>
<asrwt>0</asrwt>
<pdfrwt beam="1">  1        2 0.47435532E-02 0.90969348E+02</pdfrwt>
<pdfrwt beam="2">  1       -2 0.10322852E-01 0.90969348E+02</pdfrwt>
<totfact> 0.89716940E+04</totfact>
</mgrwt>
</event>
<event>
 7    1  0.3960685E-009  0.9517142E+02  0.7818608E-02  0.1290790E+00
          2   -1    0    0  501    0  0.00000000000E+00  0.00000000000E+00  0.66950906706E+02  0.66950906755E+02  0.25500000000E-02 0. -1.
         -2   -1    0    0    0  501 -0.00000000000E+00 -0.00000000000E+00 -0.33821795684E+02  0.33821795780E+02  0.25500000000E-02 0.  1.
         23    2    1    2    0    0 -0.35527136788E-14 -0.35527136788E-14  0.33129111022E+02  0.10077270253E+03  0.95171422071E+02 0.  0.
    9000005    2    3    3    0    0 -0.28969389317E+02 -0.27417772513E+02  0.43693861374E+02  0.59510447180E+02  0.64327315205E+01 0.  0.
         22    1    3    3    0    0  0.28969389317E+02  0.27417772513E+02 -0.10564750352E+02  0.41262255355E+02  0.00000000000E+00 0.  1.
         22    1    4    4    0    0 -0.10331584352E+02 -0.58792429672E+01  0.11799815969E+02  0.16749411631E+02  0.00000000000E+00 0.  1.
         22    1    4    4    0    0 -0.18637804965E+02 -0.21538529546E+02  0.31894045405E+02  0.42761035549E+02  0.00000000000E+00 0.  1.
<mgrwt>
<rscale>  0 0.95171422E+02</rscale>
<asrwt>0</asrwt>
<pdfrwt beam="1">  1        2 0.10300139E-01 0.95171422E+02</pdfrwt>
<pdfrwt beam="2">  1       -2 0.52033532E-02 0.95171422E+02</pdfrwt>
<totfact> 0.96837667E+04</totfact>
</mgrwt>
</event>
<event>
 7    1  0.3960685E-009  0.9217802E+02  0.7818608E-02  0.1297661E+00
          2   -1    0    0  501    0  0.00000000000E+00  0.00000000000E+00  0.72012493204E+03  0.72012493205E+03  0.25500000000E-02 0. -1.
         -2   -1    0    0    0  501 -0.00000000000E+00 -0.00000000000E+00 -0.29497607077E+01  0.29497618099E+01  0.25500000000E-02 0.  1.
         23    2    1    2    0    0  0.00000000000E+00  0.00000000000E+00  0.71717517133E+03  0.72307469386E+03  0.92178015368E+02 0.  0.
    9000005    2    3    3    0    0 -0.10133748364E+02  0.10845779898E+01  0.71113022203E+03  0.71122519693E+03  0.55873874857E+01 0.  0.
         22    1    3    3    0    0  0.10133748364E+02 -0.10845779898E+01  0.60449493062E+01  0.11849496928E+02  0.00000000000E+00 0.  1.
         22    1    4    4    0    0 -0.93419444179E+01  0.94198754296E+00  0.47074583929E+03  0.47083946783E+03  0.00000000000E+00 0.  1.
         22    1    4    4    0    0 -0.79180394652E+00  0.14259044682E+00  0.24038438274E+03  0.24038572909E+03  0.00000000000E+00 0.  1.
<mgrwt>
<rscale>  0 0.92178015E+02</rscale>
<asrwt>0</asrwt>
<pdfrwt beam="1">  1        2 0.11078844E+00 0.92178015E+02</pdfrwt>
<pdfrwt beam="2">  1       -2 0.45380945E-03 0.92178015E+02</pdfrwt>
<totfact> 0.23189614E+05</totfact>
</mgrwt>
</event>
<event>
 7    1  0.3960685E-009  0.1030172E+03  0.7818608E-02  0.1274076E+00
          2   -1    0    0  501    0  0.00000000000E+00  0.00000000000E+00  0.29870588322E+03  0.29870588323E+03  0.25500000000E-02 0. -1.
         -2   -1    0    0    0  501 -0.00000000000E+00 -0.00000000000E+00 -0.88821028257E+01  0.88821031917E+01  0.25500000000E-02 0.  1.
         23    2    1    2    0    0  0.00000000000E+00  0.00000000000E+00  0.28982378039E+03  0.30758798642E+03  0.10301721074E+03 0.  0.
    9000005    2    3    3    0    0 -0.12921659044E+02  0.43943372080E+02  0.76860182544E+02  0.89754372782E+02  0.70972213325E+01 0.  0.
         22    1    3    3    0    0  0.12921659044E+02 -0.43943372080E+02  0.21296359785E+03  0.21783361364E+03  0.00000000000E+00 0. -1.
         22    1    4    4    0    0 -0.11429843234E+02  0.30443322319E+02  0.49797816349E+02  0.59474866148E+02  0.00000000000E+00 0.  1.
         22    1    4    4    0    0 -0.14918158102E+01  0.13500049761E+02  0.27062366195E+02  0.30279506634E+02  0.00000000000E+00 0.  1.
<mgrwt>
<rscale>  0 0.10301721E+03</rscale>
<asrwt>0</asrwt>
<pdfrwt beam="1">  1        2 0.45954751E-01 0.10301721E+03</pdfrwt>
<pdfrwt beam="2">  1       -2 0.13664774E-02 0.10301721E+03</pdfrwt>
<totfact> 0.12919413E+05</totfact>
</mgrwt>
</event>
<event>
 7    1  0.3960685E-009  0.9095771E+02  0.7818608E-02  0.1300549E+00
         -2   -1    0    0    0  501 -0.00000000000E+00  0.00000000000E+00  0.68353656262E+02  0.68353656309E+02  0.25500000000E-02 0.  1.
          2   -1    0    0  501    0  0.00000000000E+00 -0.00000000000E+00 -0.30259187434E+02  0.30259187541E+02  0.25500000000E-02 0. -1.
         23    2    1    2    0    0 -0.71054273576E-14  0.35527136788E-14  0.38094468828E+02  0.98612843850E+02  0.90957706749E+02 0.  0.
    9000005    2    3    3    0    0  0.33814463806E+02 -0.26545692703E+02  0.32016516214E+02  0.55195873994E+02  0.13169488675E+02 0.  0.
         22    1    3    3    0    0 -0.33814463806E+02  0.26545692703E+02  0.60779526143E+01  0.43416969856E+02  0.00000000000E+00 0. -1.
         22    1    4    4    0    0  0.28903699139E+01  0.10432914356E+00  0.63418628136E+01  0.69702472522E+01  0.00000000000E+00 0.  1.
         22    1    4    4    0    0  0.30924093892E+02 -0.26650021846E+02  0.25674653400E+02  0.48225626742E+02  0.00000000000E+00 0.  1.
<mgrwt>
<rscale>  0 0.90957707E+02</rscale>
<asrwt>0</asrwt>
<pdfrwt beam="2">  1        2 0.46552597E-02 0.90957707E+02</pdfrwt>
<pdfrwt beam="1">  1       -2 0.10515947E-01 0.90957707E+02</pdfrwt>
<totfact> 0.89304289E+04</totfact>
</mgrwt>
</event>
<event>
 7    1  0.3960685E-009  0.8979643E+02  0.7818608E-02  0.1303345E+00
          2   -1    0    0  501    0  0.00000000000E+00  0.00000000000E+00  0.79013321652E+01  0.79013325767E+01  0.25500000000E-02 0. -1.
         -2   -1    0    0    0  501 -0.00000000000E+00 -0.00000000000E+00 -0.25512780800E+03  0.25512780801E+03  0.25500000000E-02 0.  1.
         23    2    1    2    0    0  0.00000000000E+00 -0.71054273576E-14 -0.24722647583E+03  0.26302914059E+03  0.89796427799E+02 0.  0.
    9000005    2    3    3    0    0  0.29906645544E+02 -0.31669817807E+02 -0.14241937727E+03  0.14953062643E+03  0.13369532898E+02 0.  0.
         22    1    3    3    0    0 -0.29906645544E+02  0.31669817807E+02 -0.10480709856E+03  0.11349851416E+03  0.00000000000E+00 0.  1.
         22    1    4    4    0    0  0.88852651724E+01 -0.24755194340E+01 -0.37391357717E+02  0.38512202814E+02  0.00000000000E+00 0. -1.
         22    1    4    4    0    0  0.21021380371E+02 -0.29194298373E+02 -0.10502801955E+03  0.11101842361E+03  0.00000000000E+00 0. -1.
<mgrwt>
<rscale>  0 0.89796428E+02</rscale>
<asrwt>0</asrwt>
<pdfrwt beam="1">  1        2 0.12155898E-02 0.89796428E+02</pdfrwt>
<pdfrwt beam="2">  1       -2 0.39250426E-01 0.89796428E+02</pdfrwt>
<totfact> 0.57826181E+04</totfact>
</mgrwt>
</event>
<event>
 7    1  0.3960685E-009  0.8667911E+02  0.7818608E-02  0.1311099E+00
         -2   -1    0    0    0  501 -0.00000000000E+00  0.00000000000E+00  0.21192229095E+02  0.21192229248E+02  0.25500000000E-02 0. -1.
          2   -1    0    0  501    0  0.00000000000E+00 -0.00000000000E+00 -0.88632352921E+02  0.88632352958E+02  0.25500000000E-02 0.  1.
         23    2    1    2    0    0  0.00000000000E+00  0.00000000000E+00 -0.67440123826E+02  0.10982458221E+03  0.86679112565E+02 0.  0.
    9000005    2    3    3    0    0 -0.35322288611E+02  0.16834522778E+02 -0.12338378724E+02  0.42243020052E+02  0.10058425509E+02 0.  0.
         22    1    3    3    0    0  0.35322288611E+02 -0.16834522778E+02 -0.55101745102E+02  0.67581562154E+02  0.00000000000E+00 0. -1.
         22    1    4    4    0    0 -0.14525322565E+02  0.82862798802E+01 -0.10358123591E+02  0.19670743611E+02  0.00000000000E+00 0. -1.
         22    1    4    4    0    0 -0.20796966046E+02  0.85482428979E+01 -0.19802551326E+01  0.22572276442E+02  0.00000000000E+00 0. -1.
<mgrwt>
<rscale>  0 0.86679113E+02</rscale>
<asrwt>0</asrwt>
<pdfrwt beam="2">  1        2 0.13635746E-01 0.86679113E+02</pdfrwt>
<pdfrwt beam="1">  1       -2 0.32603430E-02 0.86679113E+02</pdfrwt>
<totfact> 0.13600982E+05</totfact>
</mgrwt>
</event>
<event>
 7    1  0.3960685E-009  0.9075832E+02  0.7818608E-02  0.1301026E+00
          2   -1    0    0  501    0  0.00000000000E+00  0.00000000000E+00  0.14852501472E+04  0.14852501472E+04  0.25500000000E-02 0. -1.
         -2   -1    0    0    0  501 -0.00000000000E+00 -0.00000000000E+00 -0.13864777931E+01  0.13864801381E+01  0.25500000000E-02 0.  1.
         23    2    1    2    0    0  0.00000000000E+00  0.17763568394E-14  0.14838636694E+04  0.14866366274E+04  0.90758318430E+02 0.  0.
    9000005    2    3    3    0    0  0.18888471684E+02  0.87018504408E+01  0.14011038884E+04  0.14013038792E+04  0.11311897844E+02 0.  0.
         22    1    3    3    0    0 -0.18888471684E+02 -0.87018504408E+01  0.82759781033E+02  0.85332748229E+02  0.00000000000E+00 0.  1.
         22    1    4    4    0    0  0.10716592752E+01 -0.21798597720E+01  0.86019154505E+02  0.86053443766E+02  0.00000000000E+00 0.  1.
         22    1    4    4    0    0  0.17816812409E+02  0.10881710213E+02  0.13150847339E+04  0.13152504354E+04  0.00000000000E+00 0.  1.
<mgrwt>
<rscale>  0 0.90758318E+02</rscale>
<asrwt>0</asrwt>
<pdfrwt beam="1">  1        2 0.22850099E+00 0.90758318E+02</pdfrwt>
<pdfrwt beam="2">  1       -2 0.21330356E-03 0.90758318E+02</pdfrwt>
<totfact> 0.23971956E+05</totfact>
</mgrwt>
</event>
<event>
 7    1  0.3960685E-009  0.9295366E+02  0.7818608E-02  0.1295853E+00
          2   -1    0    0  501    0  0.00000000000E+00  0.00000000000E+00  0.38722873878E+02  0.38722873962E+02  0.25500000000E-02 0. -1.
         -2   -1    0    0    0  501 -0.00000000000E+00 -0.00000000000E+00 -0.55783457162E+02  0.55783457220E+02  0.25500000000E-02 0.  1.
         23    2    1    2    0    0 -0.35527136788E-14 -0.17763568394E-14 -0.17060583284E+02  0.94506331183E+02  0.92953661206E+02 0.  0.
    9000005    2    3    3    0    0  0.31623457907E+02  0.10516500862E+02  0.23912912293E+02  0.41690924149E+02  0.74609584954E+01 0.  0.
         22    1    3    3    0    0 -0.31623457907E+02 -0.10516500862E+02 -0.40973495577E+02  0.52815407034E+02  0.00000000000E+00 0.  1.
         22    1    4    4    0    0  0.29789418751E+01  0.14300710828E+01  0.55920257884E+01  0.64953791587E+01  0.00000000000E+00 0.  1.
         22    1    4    4    0    0  0.28644516032E+02  0.90864297794E+01  0.18320886504E+02  0.35195544990E+02  0.00000000000E+00 0.  1.
<mgrwt>
<rscale>  0 0.92953661E+02</rscale>
<asrwt>0</asrwt>
<pdfrwt beam="1">  1        2 0.59573652E-02 0.92953661E+02</pdfrwt>
<pdfrwt beam="2">  1       -2 0.85820703E-02 0.92953661E+02</pdfrwt>
<totfact> 0.89419571E+04</totfact>
</mgrwt>
</event>
<event>
 7    1  0.3960685E-009  0.7925409E+02  0.7818608E-02  0.1331182E+00
          2   -1    0    0  501    0  0.00000000000E+00  0.00000000000E+00  0.39410173387E+03  0.39410173388E+03  0.25500000000E-02 0. -1.
         -2   -1    0    0    0  501 -0.00000000000E+00 -0.00000000000E+00 -0.39845101881E+01  0.39845110040E+01  0.25500000000E-02 0.  1.
         23    2    1    2    0    0  0.00000000000E+00  0.00000000000E+00  0.39011722368E+03  0.39808624488E+03  0.79254086022E+02 0.  0.
    9000005    2    3    3    0    0 -0.27917513916E+02 -0.15807319078E+02  0.31152925844E+03  0.31320204612E+03  0.39728964249E+01 0.  0.
         22    1    3    3    0    0  0.27917513916E+02  0.15807319078E+02  0.78587965242E+02  0.84884198768E+02  0.00000000000E+00 0.  1.
         22    1    4    4    0    0 -0.26988030735E+02 -0.14395905066E+02  0.29867864784E+03  0.30024078764E+03  0.00000000000E+00 0.  1.
         22    1    4    4    0    0 -0.92948318120E+00 -0.14114140124E+01  0.12850610598E+02  0.12961258475E+02  0.00000000000E+00 0.  1.
<mgrwt>
<rscale>  0 0.79254086E+02</rscale>
<asrwt>0</asrwt>
<pdfrwt beam="1">  1        2 0.60631024E-01 0.79254086E+02</pdfrwt>
<pdfrwt beam="2">  1       -2 0.61300175E-03 0.79254086E+02</pdfrwt>
<totfact> 0.28726373E+05</totfact>
</mgrwt>
</event>
<event>
 7    1  0.3960685E-009  0.9037348E+02  0.7818608E-02  0.1301950E+00
         -2   -1    0    0    0  501 -0.00000000000E+00  0.00000000000E+00  0.53499166202E+02  0.53499166263E+02  0.25500000000E-02 0. -1.
          2   -1    0    0  501    0  0.00000000000E+00 -0.00000000000E+00 -0.38165858359E+02  0.38165858445E+02  0.25500000000E-02 0.  1.
         23    2    1    2    0    0  0.00000000000E+00  0.00000000000E+00  0.15333307842E+02  0.91665024707E+02  0.90373482976E+02 0.  0.
    9000005    2    3    3    0    0 -0.16342391591E+02  0.37863753644E+02  0.24596770189E+02  0.49397432659E+02  0.11591705944E+02 0.  0.
         22    1    3    3    0    0  0.16342391591E+02 -0.37863753644E+02 -0.92634623462E+01  0.42267592048E+02  0.00000000000E+00 0.  1.
         22    1    4    4    0    0 -0.21380180234E+01  0.95733297806E+01  0.89201532308E+00  0.98496424043E+01  0.00000000000E+00 0.  1.
         22    1    4    4    0    0 -0.14204373568E+02  0.28290423863E+02  0.23704754866E+02  0.39547790255E+02  0.00000000000E+00 0.  1.
<mgrwt>
<rscale>  0 0.90373483E+02</rscale>
<asrwt>0</asrwt>
<pdfrwt beam="2">  1        2 0.58716706E-02 0.90373483E+02</pdfrwt>
<pdfrwt beam="1">  1       -2 0.82306409E-02 0.90373483E+02</pdfrwt>
<totfact> 0.96687711E+04</totfact>
</mgrwt>
</event>
<event>
 7    1  0.3960685E-009  0.9233492E+02  0.7818608E-02  0.1297294E+00
          2   -1    0    0  501    0  0.00000000000E+00  0.00000000000E+00  0.17471970588E+03  0.17471970590E+03  0.25500000000E-02 0. -1.
         -2   -1    0    0    0  501 -0.00000000000E+00 -0.00000000000E+00 -0.12199163466E+02  0.12199163733E+02  0.25500000000E-02 0.  1.
         23    2    1    2    0    0  0.00000000000E+00  0.00000000000E+00  0.16252054242E+03  0.18691886963E+03  0.92334918193E+02 0.  0.
    9000005    2    3    3    0    0 -0.26882751801E+02  0.26284844015E+02  0.29092263842E+02  0.48294626109E+02  0.85109180641E+01 0.  0.
         22    1    3    3    0    0  0.26882751801E+02 -0.26284844015E+02  0.13342827857E+03  0.13862424352E+03  0.00000000000E+00 0. -1.
         22    1    4    4    0    0 -0.23129903510E+02  0.20606613831E+02  0.27214204132E+02  0.41233940831E+02  0.00000000000E+00 0.  1.
         22    1    4    4    0    0 -0.37528482912E+01  0.56782301843E+01  0.18780597104E+01  0.70606852782E+01  0.00000000000E+00 0.  1.
<mgrwt>
<rscale>  0 0.92334918E+02</rscale>
<asrwt>0</asrwt>
<pdfrwt beam="1">  1        2 0.26879955E-01 0.92334918E+02</pdfrwt>
<pdfrwt beam="2">  1       -2 0.18767944E-02 0.92334918E+02</pdfrwt>
<totfact> 0.14243780E+05</totfact>
</mgrwt>
</event>
<event>
 7    1  0.3960685E-009  0.9239417E+02  0.7818608E-02  0.1297155E+00
          2   -1    0    0  501    0  0.00000000000E+00  0.00000000000E+00  0.60239976275E+03  0.60239976275E+03  0.25500000000E-02 0. -1.
         -2   -1    0    0    0  501 -0.00000000000E+00 -0.00000000000E+00 -0.35427807245E+01  0.35427816423E+01  0.25500000000E-02 0.  1.
         23    2    1    2    0    0  0.00000000000E+00  0.00000000000E+00  0.59885698202E+03  0.60594254440E+03  0.92394167513E+02 0.  0.
    9000005    2    3    3    0    0 -0.25106993977E+02  0.36908832981E+02  0.36519283195E+03  0.36805274191E+03  0.10217299987E+02 0.  0.
         22    1    3    3    0    0  0.25106993977E+02 -0.36908832981E+02  0.23366415007E+03  0.23788980249E+03  0.00000000000E+00 0. -1.
         22    1    4    4    0    0 -0.11525605279E+02  0.11194939676E+02  0.16095986618E+03  0.16175983671E+03  0.00000000000E+00 0.  1.
         22    1    4    4    0    0 -0.13581388697E+02  0.25713893305E+02  0.20423296577E+03  0.20629290519E+03  0.00000000000E+00 0.  1.
<mgrwt>
<rscale>  0 0.92394168E+02</rscale>
<asrwt>0</asrwt>
<pdfrwt beam="1">  1        2 0.92676949E-01 0.92394168E+02</pdfrwt>
<pdfrwt beam="2">  1       -2 0.54504289E-03 0.92394168E+02</pdfrwt>
<totfact> 0.22024714E+05</totfact>
</mgrwt>
</event>
<event>
 7    1  0.3960685E-009  0.9128696E+02  0.7818608E-02  0.1299765E+00
          2   -1    0    0  501    0  0.00000000000E+00  0.00000000000E+00  0.53338487456E+02  0.53338487517E+02  0.25500000000E-02 0. -1.
         -2   -1    0    0    0  501 -0.00000000000E+00 -0.00000000000E+00 -0.39058608427E+02  0.39058608510E+02  0.25500000000E-02 0.  1.
         23    2    1    2    0    0  0.00000000000E+00  0.00000000000E+00  0.14279879030E+02  0.92397096027E+02  0.91286956402E+02 0.  0.
    9000005    2    3    3    0    0 -0.82310976859E+01  0.23523518053E+02  0.44858850795E+02  0.52948643777E+02  0.13043600440E+02 0.  0.
         22    1    3    3    0    0  0.82310976859E+01 -0.23523518053E+02 -0.30578971766E+02  0.39448452250E+02  0.00000000000E+00 0.  1.
         22    1    4    4    0    0 -0.34298887163E+01  0.66685885728E+01  0.40206503984E+01  0.85088095399E+01  0.00000000000E+00 0. -1.
         22    1    4    4    0    0 -0.48012089696E+01  0.16854929480E+02  0.40838200397E+02  0.44439834237E+02  0.00000000000E+00 0. -1.
<mgrwt>
<rscale>  0 0.91286956E+02</rscale>
<asrwt>0</asrwt>
<pdfrwt beam="1">  1        2 0.82059212E-02 0.91286956E+02</pdfrwt>
<pdfrwt beam="2">  1       -2 0.60090167E-02 0.91286956E+02</pdfrwt>
<totfact> 0.10245334E+05</totfact>
</mgrwt>
</event>
<event>
 7    1  0.8103429E-009  0.9187994E+02  0.7818608E-02  0.1298362E+00
          2   -1    0    0  501    0  0.00000000000E+00  0.00000000000E+00  0.78966266425E+03  0.78966266425E+03  0.25500000000E-02 0. -1.
         -2   -1    0    0    0  501 -0.00000000000E+00 -0.00000000000E+00 -0.26726356227E+01  0.26726368392E+01  0.25500000000E-02 0.  1.
         23    2    1    2    0    0  0.00000000000E+00  0.17763568394E-14  0.78699002862E+03  0.79233530109E+03  0.91879944491E+02 0.  0.
    9000005    2    3    3    0    0 -0.23455420360E+02  0.11313935435E+02  0.71711327944E+03  0.71776371162E+03  0.15972735925E+02 0.  0.
         22    1    3    3    0    0  0.23455420360E+02 -0.11313935435E+02  0.69876749187E+02  0.74571589471E+02  0.00000000000E+00 0.  1.
         22    1    4    4    0    0 -0.17865288390E+02  0.14670632194E+02  0.62061226269E+03  0.62104265279E+03  0.00000000000E+00 0.  1.
         22    1    4    4    0    0 -0.55901319700E+01 -0.33566967594E+01  0.96501016741E+02  0.96721058827E+02  0.00000000000E+00 0.  1.
<mgrwt>
<rscale>  0 0.91879944E+02</rscale>
<asrwt>0</asrwt>
<pdfrwt beam="1">  1        2 0.12148660E+00 0.91879944E+02</pdfrwt>
<pdfrwt beam="2">  1       -2 0.41117467E-03 0.91879944E+02</pdfrwt>
<totfact> 0.23829719E+05</totfact>
</mgrwt>
</event>
<event>
 7    1  0.3960685E-009  0.8995570E+02  0.7818608E-02  0.1302959E+00
         -2   -1    0    0    0  501 -0.00000000000E+00  0.00000000000E+00  0.73295218239E+02  0.73295218283E+02  0.25500000000E-02 0.  1.
          2   -1    0    0  501    0  0.00000000000E+00 -0.00000000000E+00 -0.27600806157E+02  0.27600806275E+02  0.25500000000E-02 0. -1.
         23    2    1    2    0    0  0.00000000000E+00  0.17763568394E-14  0.45694412081E+02  0.10089602456E+03  0.89955702855E+02 0.  0.
    9000005    2    3    3    0    0 -0.36239428104E+02 -0.15264142997E+02  0.22526011172E+01  0.42300110446E+02  0.15425139261E+02 0.  0.
         22    1    3    3    0    0  0.36239428104E+02  0.15264142997E+02  0.43441810964E+02  0.58595914112E+02  0.00000000000E+00 0.  1.
         22    1    4    4    0    0 -0.32963209216E+02 -0.75950804872E+01  0.80918228236E+00  0.33836565804E+02  0.00000000000E+00 0. -1.
         22    1    4    4    0    0 -0.32762188881E+01 -0.76690625096E+01  0.14434188349E+01  0.84635446423E+01  0.00000000000E+00 0. -1.
<mgrwt>
<rscale>  0 0.89955703E+02</rscale>
<asrwt>0</asrwt>
<pdfrwt beam="2">  1        2 0.42462780E-02 0.89955703E+02</pdfrwt>
<pdfrwt beam="1">  1       -2 0.11276187E-01 0.89955703E+02</pdfrwt>
<totfact> 0.90053512E+04</totfact>
</mgrwt>
</event>
<event>
 7    1  0.3960685E-009  0.9003950E+02  0.7818608E-02  0.1302756E+00
         -2   -1    0    0    0  501 -0.00000000000E+00  0.00000000000E+00  0.25261348222E+02  0.25261348351E+02  0.25500000000E-02 0.  1.
          2   -1    0    0  501    0  0.00000000000E+00 -0.00000000000E+00 -0.80232376153E+02  0.80232376193E+02  0.25500000000E-02 0. -1.
         23    2    1    2    0    0  0.35527136788E-14  0.00000000000E+00 -0.54971027930E+02  0.10549372454E+03  0.90039502478E+02 0.  0.
    9000005    2    3    3    0    0 -0.20085760320E+02  0.59553929975E+01 -0.73422213005E+02  0.77576871139E+02  0.13727530721E+02 0.  0.
         22    1    3    3    0    0  0.20085760320E+02 -0.59553929975E+01  0.18451185075E+02  0.27916853405E+02  0.00000000000E+00 0.  1.
         22    1    4    4    0    0 -0.14696417091E+02  0.36794981305E+01 -0.67768164546E+02  0.69440964191E+02  0.00000000000E+00 0. -1.
         22    1    4    4    0    0 -0.53893432290E+01  0.22758948670E+01 -0.56540484588E+01  0.81359069476E+01  0.00000000000E+00 0. -1.
<mgrwt>
<rscale>  0 0.90039502E+02</rscale>
<asrwt>0</asrwt>
<pdfrwt beam="2">  1        2 0.12343442E-01 0.90039502E+02</pdfrwt>
<pdfrwt beam="1">  1       -2 0.38863613E-02 0.90039502E+02</pdfrwt>
<totfact> 0.11902436E+05</totfact>
</mgrwt>
</event>
<event>
 7    1  0.3960685E-009  0.9053488E+02  0.7818608E-02  0.1301562E+00
          2   -1    0    0  501    0  0.00000000000E+00  0.00000000000E+00  0.26484105913E+02  0.26484106036E+02  0.25500000000E-02 0. -1.
         -2   -1    0    0    0  501 -0.00000000000E+00 -0.00000000000E+00 -0.77372486392E+02  0.77372486434E+02  0.25500000000E-02 0.  1.
         23    2    1    2    0    0  0.00000000000E+00  0.00000000000E+00 -0.50888380479E+02  0.10385659247E+03  0.90534880194E+02 0.  0.
    9000005    2    3    3    0    0 -0.22846550847E+02  0.13743070341E+02 -0.66919138762E+02  0.72746753526E+02  0.10152937897E+02 0.  0.
         22    1    3    3    0    0  0.22846550847E+02 -0.13743070341E+02  0.16030758283E+02  0.31109838944E+02  0.00000000000E+00 0. -1.
         22    1    4    4    0    0 -0.32094193129E+01  0.31596330151E+01 -0.23550186028E+02  0.23976966344E+02  0.00000000000E+00 0. -1.
         22    1    4    4    0    0 -0.19637131534E+02  0.10583437326E+02 -0.43368952734E+02  0.48769787182E+02  0.00000000000E+00 0. -1.
<mgrwt>
<rscale>  0 0.90534880E+02</rscale>
<asrwt>0</asrwt>
<pdfrwt beam="1">  1        2 0.40744779E-02 0.90534880E+02</pdfrwt>
<pdfrwt beam="2">  1       -2 0.11903459E-01 0.90534880E+02</pdfrwt>
<totfact> 0.87363165E+04</totfact>
</mgrwt>
</event>
<event>
 7    1  0.3960685E-009  0.9296376E+02  0.7818608E-02  0.1295829E+00
         -2   -1    0    0    0  501 -0.00000000000E+00  0.00000000000E+00  0.16680712848E+01  0.16680732339E+01  0.25500000000E-02 0. -1.
          2   -1    0    0  501    0  0.00000000000E+00 -0.00000000000E+00 -0.12952467509E+04  0.12952467509E+04  0.25500000000E-02 0.  1.
         23    2    1    2    0    0  0.35527136788E-14 -0.35527136788E-14 -0.12935786796E+04  0.12969148241E+04  0.92963760195E+02 0.  0.
    9000005    2    3    3    0    0  0.23542822360E+02 -0.24061787739E+02 -0.10922117219E+04  0.10927534033E+04  0.70937133638E+01 0.  0.
         22    1    3    3    0    0 -0.23542822360E+02  0.24061787739E+02 -0.20136695764E+03  0.20416142080E+03  0.00000000000E+00 0. -1.
         22    1    4    4    0    0  0.13700090896E+02 -0.15794787036E+02 -0.77359758559E+03  0.77388008904E+03  0.00000000000E+00 0. -1.
         22    1    4    4    0    0  0.98427314646E+01 -0.82670007031E+01 -0.31861413636E+03  0.31887331426E+03  0.00000000000E+00 0. -1.
<mgrwt>
<rscale>  0 0.92963760E+02</rscale>
<asrwt>0</asrwt>
<pdfrwt beam="2">  1        2 0.19926793E+00 0.92963760E+02</pdfrwt>
<pdfrwt beam="1">  1       -2 0.25662754E-03 0.92963760E+02</pdfrwt>
<totfact> 0.23360805E+05</totfact>
</mgrwt>
</event>
<event>
 7    1  0.3960685E-009  0.9621477E+02  0.7818608E-02  0.1288463E+00
          2   -1    0    0  501    0  0.00000000000E+00  0.00000000000E+00  0.26338949305E+03  0.26338949306E+03  0.25500000000E-02 0. -1.
         -2   -1    0    0    0  501 -0.00000000000E+00 -0.00000000000E+00 -0.87866839461E+01  0.87866843161E+01  0.25500000000E-02 0.  1.
         23    2    1    2    0    0 -0.35527136788E-14  0.00000000000E+00  0.25460280910E+03  0.27217617737E+03  0.96214765647E+02 0.  0.
    9000005    2    3    3    0    0 -0.23801277399E+02  0.18958878131E+02  0.23155554642E+03  0.23400398615E+03  0.14627186721E+02 0.  0.
         22    1    3    3    0    0  0.23801277399E+02 -0.18958878131E+02  0.23047262684E+02  0.38172191227E+02  0.00000000000E+00 0.  1.
         22    1    4    4    0    0 -0.19367644708E+02  0.19141078495E+02  0.21901975618E+03  0.22070600387E+03  0.00000000000E+00 0. -1.
         22    1    4    4    0    0 -0.44336326908E+01 -0.18220036342E+00  0.12535790239E+02  0.13297982280E+02  0.00000000000E+00 0. -1.
<mgrwt>
<rscale>  0 0.96214766E+02</rscale>
<asrwt>0</asrwt>
<pdfrwt beam="1">  1        2 0.40521464E-01 0.96214766E+02</pdfrwt>
<pdfrwt beam="2">  1       -2 0.13517974E-02 0.96214766E+02</pdfrwt>
<totfact> 0.14813515E+05</totfact>
</mgrwt>
</event>
<event>
 7    1  0.3960685E-009  0.9049197E+02  0.7818608E-02  0.1301665E+00
          2   -1    0    0  501    0  0.00000000000E+00  0.00000000000E+00  0.10714344634E+02  0.10714344937E+02  0.25500000000E-02 0.  1.
         -2   -1    0    0    0  501 -0.00000000000E+00 -0.00000000000E+00 -0.19107086080E+03  0.19107086082E+03  0.25500000000E-02 0. -1.
         23    2    1    2    0    0 -0.71054273576E-14  0.00000000000E+00 -0.18035651617E+03  0.20178520575E+03  0.90491968361E+02 0.  0.
    9000005    2    3    3    0    0  0.34037043545E+02 -0.16202220418E+02 -0.14561771544E+03  0.15052297252E+03  0.56226264713E+01 0.  0.
         22    1    3    3    0    0 -0.34037043545E+02  0.16202220418E+02 -0.34738800731E+02  0.51262233233E+02  0.00000000000E+00 0.  1.
         22    1    4    4    0    0  0.22809527384E+02 -0.13582745123E+02 -0.98417896041E+02  0.10193550788E+03  0.00000000000E+00 0.  1.
         22    1    4    4    0    0  0.11227516162E+02 -0.26194752952E+01 -0.47199819394E+02  0.48587464647E+02  0.00000000000E+00 0.  1.
<mgrwt>
<rscale>  0 0.90491968E+02</rscale>
<asrwt>0</asrwt>
<pdfrwt beam="1">  1        2 0.16483609E-02 0.90491968E+02</pdfrwt>
<pdfrwt beam="2">  1       -2 0.29395514E-01 0.90491968E+02</pdfrwt>
<totfact> 0.64779337E+04</totfact>
</mgrwt>
</event>
<event>
 7    1  0.3960685E-009  0.9595773E+02  0.7818608E-02  0.1289033E+00
          2   -1    0    0  501    0  0.00000000000E+00  0.00000000000E+00  0.65971967218E+03  0.65971967218E+03  0.25500000000E-02 0. -1.
         -2   -1    0    0    0  501 -0.00000000000E+00 -0.00000000000E+00 -0.34893173854E+01  0.34893183172E+01  0.25500000000E-02 0.  1.
         23    2    1    2    0    0  0.00000000000E+00  0.00000000000E+00  0.65623035479E+03  0.66320899050E+03  0.95957733034E+02 0.  0.
    9000005    2    3    3    0    0  0.38687807337E+02 -0.16055817265E+02  0.48532176448E+03  0.48724228357E+03  0.10643877006E+02 0.  0.
         22    1    3    3    0    0 -0.38687807337E+02  0.16055817265E+02  0.17090859032E+03  0.17596670693E+03  0.00000000000E+00 0.  1.
         22    1    4    4    0    0  0.87863672541E+01  0.72861760018E+00  0.11414349937E+03  0.11448349043E+03  0.00000000000E+00 0.  1.
         22    1    4    4    0    0  0.29901440083E+02 -0.16784434865E+02  0.37117826511E+03  0.37275879313E+03  0.00000000000E+00 0.  1.
<mgrwt>
<rscale>  0 0.95957733E+02</rscale>
<asrwt>0</asrwt>
<pdfrwt beam="1">  1        2 0.10149545E+00 0.95957733E+02</pdfrwt>
<pdfrwt beam="2">  1       -2 0.53681753E-03 0.95957733E+02</pdfrwt>
<totfact> 0.20417340E+05</totfact>
</mgrwt>
</event>
<event>
 7    1  0.3960685E-009  0.8238364E+02  0.7818608E-02  0.1322420E+00
          2   -1    0    0  501    0  0.00000000000E+00  0.00000000000E+00  0.75717285228E+02  0.75717285271E+02  0.25500000000E-02 0. -1.
         -2   -1    0    0    0  501 -0.00000000000E+00 -0.00000000000E+00 -0.22409227555E+02  0.22409227700E+02  0.25500000000E-02 0.  1.
         23    2    1    2    0    0  0.00000000000E+00 -0.35527136788E-14  0.53308057673E+02  0.98126512971E+02  0.82383636331E+02 0.  0.
    9000005    2    3    3    0    0  0.24905530960E+02  0.31683025542E+02  0.20276356135E+02  0.46019000207E+02  0.90839518958E+01 0.  0.
         22    1    3    3    0    0 -0.24905530960E+02 -0.31683025542E+02  0.33031701538E+02  0.52107512764E+02  0.00000000000E+00 0. -1.
         22    1    4    4    0    0  0.13211042230E+02  0.12850101604E+02  0.49974815619E+01  0.19095328486E+02  0.00000000000E+00 0. -1.
         22    1    4    4    0    0  0.11694488730E+02  0.18832923938E+02  0.15278874573E+02  0.26923671721E+02  0.00000000000E+00 0. -1.
<mgrwt>
<rscale>  0 0.82383636E+02</rscale>
<asrwt>0</asrwt>
<pdfrwt beam="1">  1        2 0.11648813E-01 0.82383636E+02</pdfrwt>
<pdfrwt beam="2">  1       -2 0.34475735E-02 0.82383636E+02</pdfrwt>
<totfact> 0.14962918E+05</totfact>
</mgrwt>
</event>
<event>
 7    1  0.3960685E-009  0.9177724E+02  0.7818608E-02  0.1298604E+00
         -2   -1    0    0    0  501 -0.00000000000E+00  0.00000000000E+00  0.12747587364E+01  0.12747612869E+01  0.25500000000E-02 0.  1.
          2   -1    0    0  501    0  0.00000000000E+00 -0.00000000000E+00 -0.16518915001E+04  0.16518915001E+04  0.25500000000E-02 0. -1.
         23    2    1    2    0    0 -0.88817841970E-15  0.00000000000E+00 -0.16506167414E+04  0.16531662614E+04  0.91777235330E+02 0.  0.
    9000005    2    3    3    0    0 -0.70773886603E+01 -0.87697101702E+01 -0.16260347603E+04  0.16261242378E+04  0.12806163482E+02 0.  0.
         22    1    3    3    0    0  0.70773886603E+01  0.87697101702E+01 -0.24581981097E+02  0.27042023618E+02  0.00000000000E+00 0.  1.
         22    1    4    4    0    0  0.68696064312E+00 -0.54395353177E+01 -0.23550355651E+03  0.23556736953E+03  0.00000000000E+00 0.  1.
         22    1    4    4    0    0 -0.77643493034E+01 -0.33301748524E+01 -0.13905312038E+04  0.13905568683E+04  0.00000000000E+00 0.  1.
<mgrwt>
<rscale>  0 0.91777235E+02</rscale>
<asrwt>0</asrwt>
<pdfrwt beam="2">  1        2 0.25413544E+00 0.91777235E+02</pdfrwt>
<pdfrwt beam="1">  1       -2 0.19611825E-03 0.91777235E+02</pdfrwt>
<totfact> 0.22200156E+05</totfact>
</mgrwt>
</event>
<event>
 7    1  0.3960685E-009  0.9011944E+02  0.7818608E-02  0.1302563E+00
         -2   -1    0    0    0  501 -0.00000000000E+00  0.00000000000E+00  0.38746596134E+01  0.38746604525E+01  0.25500000000E-02 0.  1.
          2   -1    0    0  501    0  0.00000000000E+00 -0.00000000000E+00 -0.52401457393E+03  0.52401457393E+03  0.25500000000E-02 0. -1.
         23    2    1    2    0    0  0.17763568394E-14  0.00000000000E+00 -0.52013991431E+03  0.52788923439E+03  0.90119439181E+02 0.  0.
    9000005    2    3    3    0    0 -0.14144607494E+02  0.35177349790E+02 -0.39787826060E+03  0.39988365705E+03  0.12740214324E+02 0.  0.
         22    1    3    3    0    0  0.14144607494E+02 -0.35177349790E+02 -0.12226165372E+03  0.12800557734E+03  0.00000000000E+00 0.  1.
         22    1    4    4    0    0 -0.14713198170E+02  0.30571210218E+02 -0.30331944739E+03  0.30521101595E+03  0.00000000000E+00 0. -1.
         22    1    4    4    0    0  0.56859067609E+00  0.46061395723E+01 -0.94558813208E+02  0.94672641098E+02  0.00000000000E+00 0. -1.
<mgrwt>
<rscale>  0 0.90119439E+02</rscale>
<asrwt>0</asrwt>
<pdfrwt beam="2">  1        2 0.80617571E-01 0.90119439E+02</pdfrwt>
<pdfrwt beam="1">  1       -2 0.59610196E-03 0.90119439E+02</pdfrwt>
<totfact> 0.22560858E+05</totfact>
</mgrwt>
</event>
<event>
 7    1  0.3960685E-009  0.9310735E+02  0.7818608E-02  0.1295497E+00
         -2   -1    0    0    0  501 -0.00000000000E+00  0.00000000000E+00  0.74416687841E+01  0.74416692210E+01  0.25500000000E-02 0.  1.
          2   -1    0    0  501    0  0.00000000000E+00 -0.00000000000E+00 -0.29123101573E+03  0.29123101574E+03  0.25500000000E-02 0. -1.
         23    2    1    2    0    0 -0.17763568394E-14  0.35527136788E-14 -0.28378934695E+03  0.29867268496E+03  0.93107353644E+02 0.  0.
    9000005    2    3    3    0    0  0.12060773762E+02 -0.21099763210E+02 -0.26831102416E+03  0.26985878645E+03  0.15565881473E+02 0.  0.
         22    1    3    3    0    0 -0.12060773762E+02  0.21099763210E+02 -0.15478322781E+02  0.28813898510E+02  0.00000000000E+00 0.  1.
         22    1    4    4    0    0  0.72295099100E+01 -0.22021080527E+02 -0.24068256507E+03  0.24179596963E+03  0.00000000000E+00 0. -1.
         22    1    4    4    0    0  0.48312638515E+01  0.92131731784E+00 -0.27628459096E+02  0.28062816823E+02  0.00000000000E+00 0. -1.
<mgrwt>
<rscale>  0 0.93107354E+02</rscale>
<asrwt>0</asrwt>
<pdfrwt beam="2">  1        2 0.44804763E-01 0.93107354E+02</pdfrwt>
<pdfrwt beam="1">  1       -2 0.11448724E-02 0.93107354E+02</pdfrwt>
<totfact> 0.16800193E+05</totfact>
</mgrwt>
</event>
<event>
 7    1  0.3960685E-009  0.9372863E+02  0.7818608E-02  0.1294065E+00
          2   -1    0    0  501    0  0.00000000000E+00  0.00000000000E+00  0.28043417089E+03  0.28043417091E+03  0.25500000000E-02 0. -1.
         -2   -1    0    0    0  501 -0.00000000000E+00 -0.00000000000E+00 -0.78316567251E+01  0.78316571402E+01  0.25500000000E-02 0.  1.
         23    2    1    2    0    0  0.00000000000E+00  0.00000000000E+00  0.27260251417E+03  0.28826582805E+03  0.93728634300E+02 0.  0.
    9000005    2    3    3    0    0  0.42709238146E+02 -0.23080482275E+01  0.19344496277E+03  0.19829180928E+03  0.83235747313E+01 0.  0.
         22    1    3    3    0    0 -0.42709238146E+02  0.23080482275E+01  0.79157551397E+02  0.89974018765E+02  0.00000000000E+00 0.  1.
         22    1    4    4    0    0  0.16169779699E+01 -0.18376062090E+01  0.12731529368E+02  0.12964692606E+02  0.00000000000E+00 0.  1.
         22    1    4    4    0    0  0.41092260176E+02 -0.47044201845E+00  0.18071343340E+03  0.18532711667E+03  0.00000000000E+00 0.  1.
<mgrwt>
<rscale>  0 0.93728634E+02</rscale>
<asrwt>0</asrwt>
<pdfrwt beam="1">  1        2 0.43143718E-01 0.93728634E+02</pdfrwt>
<pdfrwt beam="2">  1       -2 0.12048703E-02 0.93728634E+02</pdfrwt>
<totfact> 0.16271697E+05</totfact>
</mgrwt>
</event>
<event>
 7    1  0.3960685E-009  0.8970133E+02  0.7818608E-02  0.1303577E+00
         -2   -1    0    0    0  501 -0.00000000000E+00  0.00000000000E+00  0.54496263840E+01  0.54496269806E+01  0.25500000000E-02 0.  1.
          2   -1    0    0  501    0  0.00000000000E+00 -0.00000000000E+00 -0.36912289935E+03  0.36912289936E+03  0.25500000000E-02 0. -1.
         23    2    1    2    0    0  0.00000000000E+00  0.00000000000E+00 -0.36367327296E+03  0.37457252634E+03  0.89701326737E+02 0.  0.
    9000005    2    3    3    0    0  0.37958359871E+02  0.20891171070E+02 -0.20025873405E+03  0.20551162121E+03  0.15943267475E+02 0.  0.
         22    1    3    3    0    0 -0.37958359871E+02 -0.20891171070E+02 -0.16341453892E+03  0.16906090513E+03  0.00000000000E+00 0.  1.
         22    1    4    4    0    0  0.39123652741E+02  0.19858198436E+02 -0.18314165350E+03  0.18832385270E+03  0.00000000000E+00 0.  1.
         22    1    4    4    0    0 -0.11652928698E+01  0.10329726335E+01 -0.17117080551E+02  0.17187768515E+02  0.00000000000E+00 0.  1.
<mgrwt>
<rscale>  0 0.89701327E+02</rscale>
<asrwt>0</asrwt>
<pdfrwt beam="2">  1        2 0.56788119E-01 0.89701327E+02</pdfrwt>
<pdfrwt beam="1">  1       -2 0.83840440E-03 0.89701327E+02</pdfrwt>
<totfact> 0.20250165E+05</totfact>
</mgrwt>
</event>
<event>
 7    1  0.3960685E-009  0.9294587E+02  0.7818608E-02  0.1295871E+00
         -2   -1    0    0    0  501 -0.00000000000E+00  0.00000000000E+00  0.34575152268E+02  0.34575152362E+02  0.25500000000E-02 0.  1.
          2   -1    0    0  501    0  0.00000000000E+00 -0.00000000000E+00 -0.62464904793E+02  0.62464904845E+02  0.25500000000E-02 0. -1.
         23    2    1    2    0    0  0.35527136788E-14  0.00000000000E+00 -0.27889752525E+02  0.97040057207E+02  0.92945868154E+02 0.  0.
    9000005    2    3    3    0    0 -0.23759189261E+02 -0.48300370256E+01 -0.54498925905E+02  0.61041773359E+02  0.12966758963E+02 0.  0.
         22    1    3    3    0    0  0.23759189261E+02  0.48300370256E+01  0.26609173380E+02  0.35998283848E+02  0.00000000000E+00 0.  1.
         22    1    4    4    0    0 -0.15869594445E+02  0.24800453829E+01 -0.38983860120E+02  0.42163206742E+02  0.00000000000E+00 0. -1.
         22    1    4    4    0    0 -0.78895948160E+01 -0.73100824085E+01 -0.15515065785E+02  0.18878566617E+02  0.00000000000E+00 0. -1.
<mgrwt>
<rscale>  0 0.92945868E+02</rscale>
<asrwt>0</asrwt>
<pdfrwt beam="2">  1        2 0.96099854E-02 0.92945868E+02</pdfrwt>
<pdfrwt beam="1">  1       -2 0.53192542E-02 0.92945868E+02</pdfrwt>
<totfact> 0.10156620E+05</totfact>
</mgrwt>
</event>
<event>
 7    1  0.3960685E-009  0.9400308E+02  0.7818608E-02  0.1293437E+00
          2   -1    0    0  501    0  0.00000000000E+00  0.00000000000E+00  0.11913015292E+03  0.11913015295E+03  0.25500000000E-02 0. -1.
         -2   -1    0    0    0  501 -0.00000000000E+00 -0.00000000000E+00 -0.18543961184E+02  0.18543961359E+02  0.25500000000E-02 0.  1.
         23    2    1    2    0    0  0.88817841970E-15  0.00000000000E+00  0.10058619173E+03  0.13767411430E+03  0.94003083896E+02 0.  0.
    9000005    2    3    3    0    0 -0.74856431174E+01 -0.33023322430E+02  0.32503115225E+01  0.34616614559E+02  0.64164477208E+01 0.  0.
         22    1    3    3    0    0  0.74856431174E+01  0.33023322430E+02  0.97335880211E+02  0.10305749975E+03  0.00000000000E+00 0. -1.
         22    1    4    4    0    0 -0.23839787186E+01 -0.18144189660E+02  0.44757109433E+01  0.18839505338E+02  0.00000000000E+00 0. -1.
         22    1    4    4    0    0 -0.51016643988E+01 -0.14879132770E+02 -0.12253994208E+01  0.15777109221E+02  0.00000000000E+00 0. -1.
<mgrwt>
<rscale>  0 0.94003084E+02</rscale>
<asrwt>0</asrwt>
<pdfrwt beam="1">  1        2 0.18327716E-01 0.94003084E+02</pdfrwt>
<pdfrwt beam="2">  1       -2 0.28529171E-02 0.94003084E+02</pdfrwt>
<totfact> 0.11915616E+05</totfact>
</mgrwt>
</event>
<event>
 7    1  0.3960685E-009  0.9058002E+02  0.7818608E-02  0.1301453E+00
          2   -1    0    0  501    0  0.00000000000E+00  0.00000000000E+00  0.98592174187E+02  0.98592174220E+02  0.25500000000E-02 0. -1.
         -2   -1    0    0    0  501 -0.00000000000E+00 -0.00000000000E+00 -0.20804746125E+02  0.20804746281E+02  0.25500000000E-02 0.  1.
         23    2    1    2    0    0  0.35527136788E-14  0.00000000000E+00  0.77787428062E+02  0.11939692050E+03  0.90580023519E+02 0.  0.
    9000005    2    3    3    0    0  0.19785635738E+02  0.11607506405E+02  0.89905047998E+02  0.93453861712E+02  0.11158002817E+02 0.  0.
         22    1    3    3    0    0 -0.19785635738E+02 -0.11607506405E+02 -0.12117619935E+02  0.25943058790E+02  0.00000000000E+00 0.  1.
         22    1    4    4    0    0  0.16636763907E+01  0.59979700716E+01  0.16434599867E+02  0.17573831025E+02  0.00000000000E+00 0. -1.
         22    1    4    4    0    0  0.18121959347E+02  0.56095363333E+01  0.73470448131E+02  0.75880030687E+02  0.00000000000E+00 0. -1.
<mgrwt>
<rscale>  0 0.90580024E+02</rscale>
<asrwt>0</asrwt>
<pdfrwt beam="1">  1        2 0.15168027E-01 0.90580024E+02</pdfrwt>
<pdfrwt beam="2">  1       -2 0.32007301E-02 0.90580024E+02</pdfrwt>
<totfact> 0.12437627E+05</totfact>
</mgrwt>
</event>
<event>
 7    1  0.3960685E-009  0.9057636E+02  0.7818608E-02  0.1301462E+00
          2   -1    0    0  501    0  0.00000000000E+00  0.00000000000E+00  0.50536130909E+02  0.50536130974E+02  0.25500000000E-02 0. -1.
         -2   -1    0    0    0  501 -0.00000000000E+00 -0.00000000000E+00 -0.40585208466E+02  0.40585208546E+02  0.25500000000E-02 0.  1.
         23    2    1    2    0    0  0.71054273576E-14 -0.71054273576E-14  0.99509224435E+01  0.91121339520E+02  0.90576363685E+02 0.  0.
    9000005    2    3    3    0    0 -0.22902646477E+02  0.37765095282E+02 -0.23010762068E+01  0.45286362611E+02  0.97378667818E+01 0.  0.
         22    1    3    3    0    0  0.22902646477E+02 -0.37765095282E+02  0.12251998650E+02  0.45834976909E+02  0.00000000000E+00 0. -1.
         22    1    4    4    0    0 -0.17940375125E+02  0.35089345730E+02 -0.33505374184E+01  0.39551805830E+02  0.00000000000E+00 0.  1.
         22    1    4    4    0    0 -0.49622713523E+01  0.26757495518E+01  0.10494612115E+01  0.57345567808E+01  0.00000000000E+00 0.  1.
<mgrwt>
<rscale>  0 0.90576364E+02</rscale>
<asrwt>0</asrwt>
<pdfrwt beam="1">  1        2 0.77747893E-02 0.90576364E+02</pdfrwt>
<pdfrwt beam="2">  1       -2 0.62438783E-02 0.90576364E+02</pdfrwt>
<totfact> 0.10328442E+05</totfact>
</mgrwt>
</event>
<event>
 7    1  0.3960685E-009  0.9518826E+02  0.7818608E-02  0.1290753E+00
          2   -1    0    0  501    0  0.00000000000E+00  0.00000000000E+00  0.12893835988E+04  0.12893835988E+04  0.25500000000E-02 0. -1.
         -2   -1    0    0    0  501 -0.00000000000E+00 -0.00000000000E+00 -0.17568085953E+01  0.17568104460E+01  0.25500000000E-02 0.  1.
         23    2    1    2    0    0  0.11102230246E-15  0.00000000000E+00  0.12876267902E+04  0.12911404092E+04  0.95188263675E+02 0.  0.
    9000005    2    3    3    0    0 -0.52677260933E+00  0.22759109845E+02  0.12099688650E+04  0.12102144683E+04  0.87264226229E+01 0.  0.
         22    1    3    3    0    0  0.52677260933E+00 -0.22759109845E+02  0.77657925146E+02  0.80925940886E+02  0.00000000000E+00 0.  1.
         22    1    4    4    0    0  0.31645675012E+01  0.18087076532E+02  0.87425866582E+03  0.87445146897E+03  0.00000000000E+00 0.  1.
         22    1    4    4    0    0 -0.36913401106E+01  0.46720333133E+01  0.33571019921E+03  0.33576299936E+03  0.00000000000E+00 0.  1.
<mgrwt>
<rscale>  0 0.95188264E+02</rscale>
<asrwt>0</asrwt>
<pdfrwt beam="1">  1        2 0.19836709E+00 0.95188264E+02</pdfrwt>
<pdfrwt beam="2">  1       -2 0.27027787E-03 0.95188264E+02</pdfrwt>
<totfact> 0.21965217E+05</totfact>
</mgrwt>
</event>
<event>
 7    1  0.3960685E-009  0.9345905E+02  0.7818608E-02  0.1294685E+00
          2   -1    0    0  501    0  0.00000000000E+00  0.00000000000E+00  0.46566593848E+02  0.46566593918E+02  0.25500000000E-02 0. -1.
         -2   -1    0    0    0  501 -0.00000000000E+00 -0.00000000000E+00 -0.46893023597E+02  0.46893023666E+02  0.25500000000E-02 0.  1.
         23    2    1    2    0    0 -0.17763568394E-14 -0.71054273576E-14 -0.32642974857E+00  0.93459617584E+02  0.93459047516E+02 0.  0.
    9000005    2    3    3    0    0  0.15641039903E+02  0.41103756537E+02  0.14549308245E+02  0.47032809471E+02  0.81389105933E+01 0.  0.
         22    1    3    3    0    0 -0.15641039903E+02 -0.41103756537E+02 -0.14875737994E+02  0.46426808113E+02  0.00000000000E+00 0.  1.
         22    1    4    4    0    0  0.54237098992E+01  0.56623845810E+01  0.26098950634E+01  0.82638235978E+01  0.00000000000E+00 0. -1.
         22    1    4    4    0    0  0.10217330003E+02  0.35441371956E+02  0.11939413182E+02  0.38768985873E+02  0.00000000000E+00 0. -1.
<mgrwt>
<rscale>  0 0.93459048E+02</rscale>
<asrwt>0</asrwt>
<pdfrwt beam="1">  1        2 0.71640914E-02 0.93459048E+02</pdfrwt>
<pdfrwt beam="2">  1       -2 0.72143113E-02 0.93459048E+02</pdfrwt>
<totfact> 0.92411685E+04</totfact>
</mgrwt>
</event>
<event>
 7    1  0.3960685E-009  0.9046523E+02  0.7818608E-02  0.1301729E+00
         -2   -1    0    0    0  501 -0.00000000000E+00  0.00000000000E+00  0.17482212228E+03  0.17482212230E+03  0.25500000000E-02 0.  1.
          2   -1    0    0  501    0  0.00000000000E+00 -0.00000000000E+00 -0.11703264238E+02  0.11703264516E+02  0.25500000000E-02 0. -1.
         23    2    1    2    0    0  0.00000000000E+00  0.00000000000E+00  0.16311885804E+03  0.18652538682E+03  0.90465231317E+02 0.  0.
    9000005    2    3    3    0    0 -0.18508300108E+01  0.25777267137E+02  0.94610459734E+01  0.30709417535E+02  0.13625852694E+02 0.  0.
         22    1    3    3    0    0  0.18508300108E+01 -0.25777267137E+02  0.15365781207E+03  0.15581596928E+03  0.00000000000E+00 0.  1.
         22    1    4    4    0    0  0.38502110166E-01  0.17547567982E+01  0.61387925059E+01  0.63847809097E+01  0.00000000000E+00 0.  1.
         22    1    4    4    0    0 -0.18893321210E+01  0.24022510339E+02  0.33222534675E+01  0.24324636625E+02  0.00000000000E+00 0.  1.
<mgrwt>
<rscale>  0 0.90465231E+02</rscale>
<asrwt>0</asrwt>
<pdfrwt beam="2">  1        2 0.18005023E-02 0.90465231E+02</pdfrwt>
<pdfrwt beam="1">  1       -2 0.26895710E-01 0.90465231E+02</pdfrwt>
<totfact> 0.67228189E+04</totfact>
</mgrwt>
</event>
<event>
 7    1  0.3960685E-009  0.8922805E+02  0.7818608E-02  0.1304732E+00
          2   -1    0    0  501    0  0.00000000000E+00  0.00000000000E+00  0.25644223873E+03  0.25644223875E+03  0.25500000000E-02 0.  1.
         -2   -1    0    0    0  501 -0.00000000000E+00 -0.00000000000E+00 -0.77616348893E+01  0.77616353082E+01  0.25500000000E-02 0. -1.
         23    2    1    2    0    0 -0.10408340856E-15  0.35527136788E-14  0.24868060385E+03  0.26420387406E+03  0.89228046808E+02 0.  0.
    9000005    2    3    3    0    0  0.34008530321E-01  0.30272830802E+02  0.22006890858E+03  0.22254964801E+03  0.13475008921E+02 0.  0.
         22    1    3    3    0    0 -0.34008530321E-01 -0.30272830802E+02  0.28611695267E+02  0.41654226045E+02  0.00000000000E+00 0. -1.
         22    1    4    4    0    0  0.18145068872E+01  0.16668891667E+02  0.75933347934E+02  0.77762572701E+02  0.00000000000E+00 0.  1.
         22    1    4    4    0    0 -0.17804983568E+01  0.13603939135E+02  0.14413556064E+03  0.14478707531E+03  0.00000000000E+00 0.  1.
<mgrwt>
<rscale>  0 0.89228047E+02</rscale>
<asrwt>0</asrwt>
<pdfrwt beam="1">  1        2 0.39452648E-01 0.89228047E+02</pdfrwt>
<pdfrwt beam="2">  1       -2 0.11940978E-02 0.89228047E+02</pdfrwt>
<totfact> 0.17951873E+05</totfact>
</mgrwt>
</event>
<event>
 7    1  0.3960685E-009  0.9182239E+02  0.7818608E-02  0.1298498E+00
         -2   -1    0    0    0  501 -0.00000000000E+00  0.00000000000E+00  0.11743549263E+02  0.11743549540E+02  0.25500000000E-02 0.  1.
          2   -1    0    0  501    0  0.00000000000E+00 -0.00000000000E+00 -0.17948898744E+03  0.17948898746E+03  0.25500000000E-02 0. -1.
         23    2    1    2    0    0  0.71054273576E-14  0.00000000000E+00 -0.16774543818E+03  0.19123253700E+03  0.91822389304E+02 0.  0.
    9000005    2    3    3    0    0  0.39632346007E+02  0.14085020574E+02 -0.49555619825E+02  0.65781575198E+02  0.10116596494E+02 0.  0.
         22    1    3    3    0    0 -0.39632346007E+02 -0.14085020574E+02 -0.11818981835E+03  0.12545096180E+03  0.00000000000E+00 0. -1.
         22    1    4    4    0    0  0.33064950160E+02  0.13986307028E+02 -0.36670272362E+02  0.51318774231E+02  0.00000000000E+00 0.  1.
         22    1    4    4    0    0  0.65673958469E+01  0.98713545330E-01 -0.12885347463E+02  0.14462800967E+02  0.00000000000E+00 0.  1.
<mgrwt>
<rscale>  0 0.91822389E+02</rscale>
<asrwt>0</asrwt>
<pdfrwt beam="2">  1        2 0.27613688E-01 0.91822389E+02</pdfrwt>
<pdfrwt beam="1">  1       -2 0.18067000E-02 0.91822389E+02</pdfrwt>
<totfact> 0.14598526E+05</totfact>
</mgrwt>
</event>
<event>
 7    1  0.3960685E-009  0.9089740E+02  0.7818608E-02  0.1300693E+00
         -2   -1    0    0    0  501 -0.00000000000E+00  0.00000000000E+00  0.11286765214E+02  0.11286765502E+02  0.25500000000E-02 0. -1.
          2   -1    0    0  501    0  0.00000000000E+00 -0.00000000000E+00 -0.18300941629E+03  0.18300941631E+03  0.25500000000E-02 0.  1.
         23    2    1    2    0    0 -0.35527136788E-14  0.00000000000E+00 -0.17172265107E+03  0.19429618181E+03  0.90897400256E+02 0.  0.
    9000005    2    3    3    0    0 -0.26657461727E+02 -0.32050006182E+02 -0.12298166720E+03  0.13015955677E+03  0.88992465961E+01 0.  0.
         22    1    3    3    0    0  0.26657461727E+02  0.32050006182E+02 -0.48740983876E+02  0.64136625037E+02  0.00000000000E+00 0. -1.
         22    1    4    4    0    0 -0.26089298594E+00 -0.43667060234E+01 -0.12358593626E+02  0.13109958927E+02  0.00000000000E+00 0.  1.
         22    1    4    4    0    0 -0.26396568741E+02 -0.27683300159E+02 -0.11062307357E+03  0.11704959784E+03  0.00000000000E+00 0.  1.
<mgrwt>
<rscale>  0 0.90897400E+02</rscale>
<asrwt>0</asrwt>
<pdfrwt beam="2">  1        2 0.28155293E-01 0.90897400E+02</pdfrwt>
<pdfrwt beam="1">  1       -2 0.17364256E-02 0.90897400E+02</pdfrwt>
<totfact> 0.15107345E+05</totfact>
</mgrwt>
</event>
<event>
 7    1  0.3960685E-009  0.8842335E+02  0.7818608E-02  0.1306715E+00
          2   -1    0    0  501    0  0.00000000000E+00  0.00000000000E+00  0.68036045127E+03  0.68036045127E+03  0.25500000000E-02 0. -1.
         -2   -1    0    0    0  501 -0.00000000000E+00 -0.00000000000E+00 -0.28729941548E+01  0.28729952864E+01  0.25500000000E-02 0.  1.
         23    2    1    2    0    0  0.00000000000E+00  0.00000000000E+00  0.67748745711E+03  0.68323344656E+03  0.88423345059E+02 0.  0.
    9000005    2    3    3    0    0 -0.13047803502E+02  0.82358280879E+01  0.65821917666E+03  0.65854861980E+03  0.13990213558E+02 0.  0.
         22    1    3    3    0    0  0.13047803502E+02 -0.82358280879E+01  0.19268280450E+02  0.24684826757E+02  0.00000000000E+00 0.  1.
         22    1    4    4    0    0 -0.87624511297E+01 -0.11590801367E+01  0.43608298302E+03  0.43617254854E+03  0.00000000000E+00 0. -1.
         22    1    4    4    0    0 -0.42853523727E+01  0.93949082246E+01  0.22213619364E+03  0.22237607126E+03  0.00000000000E+00 0. -1.
<mgrwt>
<rscale>  0 0.88423345E+02</rscale>
<asrwt>0</asrwt>
<pdfrwt beam="1">  1        2 0.10467089E+00 0.88423345E+02</pdfrwt>
<pdfrwt beam="2">  1       -2 0.44199899E-03 0.88423345E+02</pdfrwt>
<totfact> 0.25535267E+05</totfact>
</mgrwt>
</event>
<event>
 7    1  0.3960685E-009  0.9274296E+02  0.7818608E-02  0.1296342E+00
          2   -1    0    0  501    0  0.00000000000E+00  0.00000000000E+00  0.27427642758E+03  0.27427642759E+03  0.25500000000E-02 0. -1.
         -2   -1    0    0    0  501 -0.00000000000E+00 -0.00000000000E+00 -0.78399514567E+01  0.78399518714E+01  0.25500000000E-02 0.  1.
         23    2    1    2    0    0  0.00000000000E+00  0.00000000000E+00  0.26643647612E+03  0.28211637946E+03  0.92742955271E+02 0.  0.
    9000005    2    3    3    0    0 -0.28542496546E+02 -0.32577754875E+02  0.83358448699E+02  0.93984648096E+02  0.29152849677E+01 0.  0.
         22    1    3    3    0    0  0.28542496546E+02  0.32577754875E+02  0.18307802742E+03  0.18813173137E+03  0.00000000000E+00 0. -1.
         22    1    4    4    0    0 -0.26830225559E+01 -0.24056197777E+01  0.55682636464E+01  0.66325844576E+01  0.00000000000E+00 0. -1.
         22    1    4    4    0    0 -0.25859473990E+02 -0.30172135097E+02  0.77790185053E+02  0.87352063638E+02  0.00000000000E+00 0. -1.
<mgrwt>
<rscale>  0 0.92742955E+02</rscale>
<asrwt>0</asrwt>
<pdfrwt beam="1">  1        2 0.42196365E-01 0.92742955E+02</pdfrwt>
<pdfrwt beam="2">  1       -2 0.12061466E-02 0.92742955E+02</pdfrwt>
<totfact> 0.16600820E+05</totfact>
</mgrwt>
</event>
<event>
 7    1  0.3960685E-009  0.9140892E+02  0.7818608E-02  0.1299475E+00
         -2   -1    0    0    0  501 -0.00000000000E+00  0.00000000000E+00  0.91283294410E+01  0.91283297972E+01  0.25500000000E-02 0.  1.
          2   -1    0    0  501    0  0.00000000000E+00 -0.00000000000E+00 -0.22883678007E+03  0.22883678008E+03  0.25500000000E-02 0. -1.
         23    2    1    2    0    0 -0.17763568394E-14  0.35527136788E-14 -0.21970845063E+03  0.23796510988E+03  0.91408917743E+02 0.  0.
    9000005    2    3    3    0    0  0.10524012586E+02 -0.29446536772E+02 -0.19647615655E+03  0.19900881569E+03  0.48759883181E+01 0.  0.
         22    1    3    3    0    0 -0.10524012586E+02  0.29446536772E+02 -0.23232294080E+02  0.38956294190E+02  0.00000000000E+00 0.  1.
         22    1    4    4    0    0  0.29709186149E+01 -0.46429637022E+01 -0.43992103095E+02  0.44336086928E+02  0.00000000000E+00 0.  1.
         22    1    4    4    0    0  0.75530939714E+01 -0.24803573069E+02 -0.15248405345E+03  0.15467272876E+03  0.00000000000E+00 0.  1.
<mgrwt>
<rscale>  0 0.91408918E+02</rscale>
<asrwt>0</asrwt>
<pdfrwt beam="2">  1        2 0.35205654E-01 0.91408918E+02</pdfrwt>
<pdfrwt beam="1">  1       -2 0.14043586E-02 0.91408918E+02</pdfrwt>
<totfact> 0.16136564E+05</totfact>
</mgrwt>
</event>
<event>
 7    1  0.3960685E-009  0.9276888E+02  0.7818608E-02  0.1296282E+00
         -2   -1    0    0    0  501 -0.00000000000E+00  0.00000000000E+00  0.19930889232E+01  0.19930905544E+01  0.25500000000E-02 0.  1.
          2   -1    0    0  501    0  0.00000000000E+00 -0.00000000000E+00 -0.10794880076E+04  0.10794880076E+04  0.25500000000E-02 0. -1.
         23    2    1    2    0    0  0.00000000000E+00  0.17763568394E-14 -0.10774949187E+04  0.10814810982E+04  0.92768884318E+02 0.  0.
    9000005    2    3    3    0    0  0.23185256655E+02 -0.86272566012E+01 -0.99600745478E+03  0.99632129276E+03  0.36445511667E+01 0.  0.
         22    1    3    3    0    0 -0.23185256655E+02  0.86272566012E+01 -0.81487463915E+02  0.85159805413E+02  0.00000000000E+00 0.  1.
         22    1    4    4    0    0  0.22661997182E+02 -0.88930419309E+01 -0.95780686667E+03  0.95811619659E+03  0.00000000000E+00 0. -1.
         22    1    4    4    0    0  0.52325947259E+00  0.26578532968E+00 -0.38200588104E+02  0.38205096176E+02  0.00000000000E+00 0. -1.
<mgrwt>
<rscale>  0 0.92768884E+02</rscale>
<asrwt>0</asrwt>
<pdfrwt beam="2">  1        2 0.16607461E+00 0.92768884E+02</pdfrwt>
<pdfrwt beam="1">  1       -2 0.30663005E-03 0.92768884E+02</pdfrwt>
<totfact> 0.23913833E+05</totfact>
</mgrwt>
</event>
<event>
 7    1  0.3960685E-009  0.9223688E+02  0.7818608E-02  0.1297523E+00
          2   -1    0    0  501    0  0.00000000000E+00  0.00000000000E+00  0.37298361625E+03  0.37298361626E+03  0.25500000000E-02 0. -1.
         -2   -1    0    0    0  501 -0.00000000000E+00 -0.00000000000E+00 -0.57024232891E+01  0.57024238592E+01  0.25500000000E-02 0.  1.
         23    2    1    2    0    0  0.00000000000E+00  0.00000000000E+00  0.36728119296E+03  0.37868604012E+03  0.92236881330E+02 0.  0.
    9000005    2    3    3    0    0 -0.37219110705E+02 -0.24818599267E+02  0.17359596534E+03  0.17990175384E+03  0.15094925712E+02 0.  0.
         22    1    3    3    0    0  0.37219110705E+02  0.24818599267E+02  0.19368522762E+03  0.19878428628E+03  0.00000000000E+00 0.  1.
         22    1    4    4    0    0 -0.71148264436E+00 -0.23044088469E+01  0.28422523684E+02  0.28524662317E+02  0.00000000000E+00 0.  1.
         22    1    4    4    0    0 -0.36507628061E+02 -0.22514190420E+02  0.14517344165E+03  0.15137709152E+03  0.00000000000E+00 0.  1.
<mgrwt>
<rscale>  0 0.92236881E+02</rscale>
<asrwt>0</asrwt>
<pdfrwt beam="1">  1        2 0.57382098E-01 0.92236881E+02</pdfrwt>
<pdfrwt beam="2">  1       -2 0.87729589E-03 0.92236881E+02</pdfrwt>
<totfact> 0.18875541E+05</totfact>
</mgrwt>
</event>
<event>
 7    1  0.3960685E-009  0.1028453E+03  0.7818608E-02  0.1274424E+00
         -2   -1    0    0    0  501 -0.00000000000E+00  0.00000000000E+00  0.47234589070E+02  0.47234589139E+02  0.25500000000E-02 0. -1.
          2   -1    0    0  501    0  0.00000000000E+00 -0.00000000000E+00 -0.55982052747E+02  0.55982052805E+02  0.25500000000E-02 0.  1.
         23    2    1    2    0    0  0.00000000000E+00  0.00000000000E+00 -0.87474636762E+01  0.10321664194E+03  0.10284530642E+03 0.  0.
    9000005    2    3    3    0    0 -0.37351350924E+02 -0.33660401401E+02 -0.10736689653E+02  0.52896635403E+02  0.12435091234E+02 0.  0.
         22    1    3    3    0    0  0.37351350924E+02  0.33660401401E+02  0.19892259770E+01  0.50320006541E+02  0.00000000000E+00 0.  1.
         22    1    4    4    0    0 -0.14626796823E+02 -0.95792908862E+01 -0.91840438708E+01  0.19749750910E+02  0.00000000000E+00 0.  1.
         22    1    4    4    0    0 -0.22724554100E+02 -0.24081110514E+02 -0.15526457824E+01  0.33146884493E+02  0.00000000000E+00 0.  1.
<mgrwt>
<rscale>  0 0.10284531E+03</rscale>
<asrwt>0</asrwt>
<pdfrwt beam="2">  1        2 0.86126235E-02 0.10284531E+03</pdfrwt>
<pdfrwt beam="1">  1       -2 0.72668598E-02 0.10284531E+03</pdfrwt>
<totfact> 0.73725978E+04</totfact>
</mgrwt>
</event>
<event>
 7    1  0.3960685E-009  0.9189412E+02  0.7818608E-02  0.1298329E+00
          2   -1    0    0  501    0  0.00000000000E+00  0.00000000000E+00  0.32663580884E+03  0.32663580885E+03  0.25500000000E-02 0. -1.
         -2   -1    0    0    0  501 -0.00000000000E+00 -0.00000000000E+00 -0.64632605267E+01  0.64632610297E+01  0.25500000000E-02 0.  1.
         23    2    1    2    0    0  0.00000000000E+00  0.00000000000E+00  0.32017254831E+03  0.33309906988E+03  0.91894122017E+02 0.  0.
    9000005    2    3    3    0    0 -0.33562453868E+02 -0.22730620861E+02  0.84788116892E+02  0.94249849680E+02  0.71337202250E+01 0.  0.
         22    1    3    3    0    0  0.33562453868E+02  0.22730620861E+02  0.23538443142E+03  0.23884922020E+03  0.00000000000E+00 0.  1.
         22    1    4    4    0    0 -0.15102887588E+02 -0.93555444654E+01  0.29352411608E+02  0.34310166029E+02  0.00000000000E+00 0. -1.
         22    1    4    4    0    0 -0.18459566280E+02 -0.13375076396E+02  0.55435705284E+02  0.59939683651E+02  0.00000000000E+00 0. -1.
<mgrwt>
<rscale>  0 0.91894122E+02</rscale>
<asrwt>0</asrwt>
<pdfrwt beam="1">  1        2 0.50251672E-01 0.91894122E+02</pdfrwt>
<pdfrwt beam="2">  1       -2 0.99434764E-03 0.91894122E+02</pdfrwt>
<totfact> 0.18158859E+05</totfact>
</mgrwt>
</event>
<event>
 7    1  0.3960685E-009  0.9608713E+02  0.7818608E-02  0.1288746E+00
          2   -1    0    0  501    0  0.00000000000E+00  0.00000000000E+00  0.40278874203E+03  0.40278874204E+03  0.25500000000E-02 0. -1.
         -2   -1    0    0    0  501 -0.00000000000E+00 -0.00000000000E+00 -0.57305073589E+01  0.57305079263E+01  0.25500000000E-02 0.  1.
         23    2    1    2    0    0  0.00000000000E+00  0.44408920985E-15  0.39705823467E+03  0.40851924997E+03  0.96087126460E+02 0.  0.
    9000005    2    3    3    0    0  0.21315815149E+02 -0.21387675412E+01  0.38120039119E+03  0.38186574172E+03  0.69834197750E+01 0.  0.
         22    1    3    3    0    0 -0.21315815149E+02  0.21387675412E+01  0.15857843483E+02  0.26653508249E+02  0.00000000000E+00 0.  1.
         22    1    4    4    0    0  0.13561381227E+02 -0.45067890034E+01  0.26256532326E+03  0.26295393359E+03  0.00000000000E+00 0. -1.
         22    1    4    4    0    0  0.77544339218E+01  0.23680214622E+01  0.11863506793E+03  0.11891180813E+03  0.00000000000E+00 0. -1.
<mgrwt>
<rscale>  0 0.96087126E+02</rscale>
<asrwt>0</asrwt>
<pdfrwt beam="1">  1        2 0.61967488E-01 0.96087126E+02</pdfrwt>
<pdfrwt beam="2">  1       -2 0.88161671E-03 0.96087126E+02</pdfrwt>
<totfact> 0.17403001E+05</totfact>
</mgrwt>
</event>
<event>
 7    1  0.3960685E-009  0.8690030E+02  0.7818608E-02  0.1310537E+00
          2   -1    0    0  501    0  0.00000000000E+00  0.00000000000E+00  0.28585406530E+01  0.28585417904E+01  0.25500000000E-02 0. -1.
         -2   -1    0    0    0  501 -0.00000000000E+00 -0.00000000000E+00 -0.66044726943E+03  0.66044726943E+03  0.25500000000E-02 0.  1.
         23    2    1    2    0    0 -0.11102230246E-15 -0.17763568394E-14 -0.65758872878E+03  0.66330581123E+03  0.86900304894E+02 0.  0.
    9000005    2    3    3    0    0 -0.56972426512E+00 -0.12074171160E+02 -0.64697052167E+03  0.64721679270E+03  0.13138137191E+02 0.  0.
         22    1    3    3    0    0  0.56972426512E+00  0.12074171160E+02 -0.10618207109E+02  0.16089018526E+02  0.00000000000E+00 0. -1.
         22    1    4    4    0    0  0.23445028457E+01 -0.14096022152E+02 -0.52896331103E+03  0.52915628972E+03  0.00000000000E+00 0. -1.
         22    1    4    4    0    0 -0.29142271108E+01  0.20218509916E+01 -0.11800721064E+03  0.11806050298E+03  0.00000000000E+00 0. -1.
<mgrwt>
<rscale>  0 0.86900305E+02</rscale>
<asrwt>0</asrwt>
<pdfrwt beam="1">  1        2 0.43977610E-03 0.86900305E+02</pdfrwt>
<pdfrwt beam="2">  1       -2 0.10160715E+00 0.86900305E+02</pdfrwt>
<totfact> 0.32503584E+04</totfact>
</mgrwt>
</event>
<event>
 7    1  0.3960685E-009  0.9103963E+02  0.7818608E-02  0.1300353E+00
         -2   -1    0    0    0  501 -0.00000000000E+00  0.00000000000E+00  0.21515047268E+01  0.21515062379E+01  0.25500000000E-02 0.  1.
          2   -1    0    0  501    0  0.00000000000E+00 -0.00000000000E+00 -0.96307142577E+03  0.96307142577E+03  0.25500000000E-02 0. -1.
         23    2    1    2    0    0  0.00000000000E+00 -0.16653345369E-15 -0.96091992104E+03  0.96522293201E+03  0.91039627760E+02 0.  0.
    9000005    2    3    3    0    0 -0.13831240617E+02 -0.17559491894E+00 -0.94018971897E+03  0.94030154905E+03  0.43544738630E+01 0.  0.
         22    1    3    3    0    0  0.13831240617E+02  0.17559491894E+00 -0.20730202073E+02  0.24921382959E+02  0.00000000000E+00 0.  1.
         22    1    4    4    0    0 -0.80050158994E+01  0.97062463933E+00 -0.41555651898E+03  0.41563474693E+03  0.00000000000E+00 0. -1.
         22    1    4    4    0    0 -0.58262247180E+01 -0.11462195583E+01 -0.52463319999E+03  0.52466680212E+03  0.00000000000E+00 0. -1.
<mgrwt>
<rscale>  0 0.91039628E+02</rscale>
<asrwt>0</asrwt>
<pdfrwt beam="2">  1        2 0.14816449E+00 0.91039628E+02</pdfrwt>
<pdfrwt beam="1">  1       -2 0.33100161E-03 0.91039628E+02</pdfrwt>
<totfact> 0.25047270E+05</totfact>
</mgrwt>
</event>
<event>
 7    1  0.3960685E-009  0.8300701E+02  0.7818608E-02  0.1320728E+00
         -2   -1    0    0    0  501 -0.00000000000E+00  0.00000000000E+00  0.34651734048E+01  0.34651743431E+01  0.25500000000E-02 0.  1.
          2   -1    0    0  501    0  0.00000000000E+00 -0.00000000000E+00 -0.49710090291E+03  0.49710090292E+03  0.25500000000E-02 0. -1.
         23    2    1    2    0    0  0.00000000000E+00  0.00000000000E+00 -0.49363572951E+03  0.50056607726E+03  0.83007013312E+02 0.  0.
    9000005    2    3    3    0    0 -0.18914851736E+02  0.29140817263E+02 -0.38024930703E+03  0.38197670316E+03  0.10474130783E+02 0.  0.
         22    1    3    3    0    0  0.18914851736E+02 -0.29140817263E+02 -0.11338642248E+03  0.11858937410E+03  0.00000000000E+00 0.  1.
         22    1    4    4    0    0 -0.12968467144E+02  0.19653538795E+02 -0.20027792113E+03  0.20165735399E+03  0.00000000000E+00 0. -1.
         22    1    4    4    0    0 -0.59463845919E+01  0.94872784672E+01 -0.17997138590E+03  0.18031934917E+03  0.00000000000E+00 0. -1.
<mgrwt>
<rscale>  0 0.83007013E+02</rscale>
<asrwt>0</asrwt>
<pdfrwt beam="2">  1        2 0.76477005E-01 0.83007013E+02</pdfrwt>
<pdfrwt beam="1">  1       -2 0.53310407E-03 0.83007013E+02</pdfrwt>
<totfact> 0.27540601E+05</totfact>
</mgrwt>
</event>
<event>
 7    1  0.3960685E-009  0.9501105E+02  0.7818608E-02  0.1291151E+00
         -2   -1    0    0    0  501 -0.00000000000E+00  0.00000000000E+00  0.23125896743E+03  0.23125896744E+03  0.25500000000E-02 0.  1.
          2   -1    0    0  501    0  0.00000000000E+00 -0.00000000000E+00 -0.97586483091E+01  0.97586486422E+01  0.25500000000E-02 0. -1.
         23    2    1    2    0    0  0.17763568394E-14  0.35527136788E-14  0.22150031912E+03  0.24101761608E+03  0.95011051426E+02 0.  0.
    9000005    2    3    3    0    0 -0.11159800620E+02 -0.28517906147E+02  0.20275091208E+03  0.20511006277E+03  0.49389653773E+01 0.  0.
         22    1    3    3    0    0  0.11159800620E+02  0.28517906147E+02  0.18749407043E+02  0.35907553319E+02  0.00000000000E+00 0. -1.
         22    1    4    4    0    0  0.13352471669E+00  0.11617555984E+00  0.50232203203E+00  0.53259086974E+00  0.00000000000E+00 0.  1.
         22    1    4    4    0    0 -0.11293325336E+02 -0.28634081707E+02  0.20224859004E+03  0.20457747190E+03  0.00000000000E+00 0.  1.
<mgrwt>
<rscale>  0 0.95011051E+02</rscale>
<asrwt>0</asrwt>
<pdfrwt beam="2">  1        2 0.15013306E-02 0.95011051E+02</pdfrwt>
<pdfrwt beam="1">  1       -2 0.35578300E-01 0.95011051E+02</pdfrwt>
<totfact> 0.52495432E+04</totfact>
</mgrwt>
</event>
<event>
 7    1  0.3960685E-009  0.9497607E+02  0.7818608E-02  0.1291230E+00
         -2   -1    0    0    0  501 -0.00000000000E+00  0.00000000000E+00  0.39447832518E+02  0.39447832601E+02  0.25500000000E-02 0.  1.
          2   -1    0    0  501    0  0.00000000000E+00 -0.00000000000E+00 -0.57166975082E+02  0.57166975139E+02  0.25500000000E-02 0. -1.
         23    2    1    2    0    0  0.00000000000E+00  0.00000000000E+00 -0.17719142564E+02  0.96614807740E+02  0.94976065729E+02 0.  0.
    9000005    2    3    3    0    0 -0.24500282488E+02 -0.77052005967E+01 -0.49480098702E+02  0.55768849641E+02  0.15001548032E+01 0.  0.
         22    1    3    3    0    0  0.24500282488E+02  0.77052005967E+01  0.31760956138E+02  0.40845958099E+02  0.00000000000E+00 0.  1.
         22    1    4    4    0    0 -0.25613224569E+00 -0.78796018773E-01 -0.25542268776E+00  0.37020708972E+00  0.00000000000E+00 0. -1.
         22    1    4    4    0    0 -0.24244150242E+02 -0.76264045779E+01 -0.49224676015E+02  0.55398642551E+02  0.00000000000E+00 0. -1.
<mgrwt>
<rscale>  0 0.94976066E+02</rscale>
<asrwt>0</asrwt>
<pdfrwt beam="2">  1        2 0.87949193E-02 0.94976066E+02</pdfrwt>
<pdfrwt beam="1">  1       -2 0.60688973E-02 0.94976066E+02</pdfrwt>
<totfact> 0.93238996E+04</totfact>
</mgrwt>
</event>
<event>
 7    1  0.3960685E-009  0.9156996E+02  0.7818608E-02  0.1299094E+00
         -2   -1    0    0    0  501 -0.00000000000E+00  0.00000000000E+00  0.18466621223E+01  0.18466638829E+01  0.25500000000E-02 0. -1.
          2   -1    0    0  501    0  0.00000000000E+00 -0.00000000000E+00 -0.11351635081E+04  0.11351635081E+04  0.25500000000E-02 0.  1.
         23    2    1    2    0    0  0.00000000000E+00 -0.88817841970E-15 -0.11333168459E+04  0.11370101719E+04  0.91569961351E+02 0.  0.
    9000005    2    3    3    0    0 -0.19745021156E+02 -0.44727895220E+01 -0.10759598142E+04  0.10761850061E+04  0.86471926483E+01 0.  0.
         22    1    3    3    0    0  0.19745021156E+02  0.44727895220E+01 -0.57357031725E+02  0.60825165802E+02  0.00000000000E+00 0. -1.
         22    1    4    4    0    0 -0.11345525256E+02 -0.63744296079E+01 -0.54496974494E+03  0.54512510233E+03  0.00000000000E+00 0.  1.
         22    1    4    4    0    0 -0.83994958999E+01  0.19016400859E+01 -0.53099006927E+03  0.53105990381E+03  0.00000000000E+00 0.  1.
<mgrwt>
<rscale>  0 0.91569961E+02</rscale>
<asrwt>0</asrwt>
<pdfrwt beam="2">  1        2 0.17463998E+00 0.91569961E+02</pdfrwt>
<pdfrwt beam="1">  1       -2 0.28410291E-03 0.91569961E+02</pdfrwt>
<totfact> 0.24702719E+05</totfact>
</mgrwt>
</event>
<event>
 7    1  0.3960685E-009  0.9140665E+02  0.7818608E-02  0.1299481E+00
         -2   -1    0    0    0  501 -0.00000000000E+00  0.00000000000E+00  0.58579965270E+02  0.58579965325E+02  0.25500000000E-02 0.  1.
          2   -1    0    0  501    0  0.00000000000E+00 -0.00000000000E+00 -0.35657141138E+02  0.35657141229E+02  0.25500000000E-02 0. -1.
         23    2    1    2    0    0 -0.35527136788E-14  0.00000000000E+00  0.22922824132E+02  0.94237106554E+02  0.91406653946E+02 0.  0.
    9000005    2    3    3    0    0  0.24666554176E+02  0.49611823634E+01  0.50117201928E+02  0.57188673267E+02  0.11214196161E+02 0.  0.
         22    1    3    3    0    0 -0.24666554176E+02 -0.49611823634E+01 -0.27194377796E+02  0.37048433288E+02  0.00000000000E+00 0. -1.
         22    1    4    4    0    0  0.38332227988E+01 -0.22416226051E+01  0.15713431900E+02  0.16328821482E+02  0.00000000000E+00 0. -1.
         22    1    4    4    0    0  0.20833331377E+02  0.72028049685E+01  0.34403770028E+02  0.40859851784E+02  0.00000000000E+00 0. -1.
<mgrwt>
<rscale>  0 0.91406654E+02</rscale>
<asrwt>0</asrwt>
<pdfrwt beam="2">  1        2 0.54857140E-02 0.91406654E+02</pdfrwt>
<pdfrwt beam="1">  1       -2 0.90123023E-02 0.91406654E+02</pdfrwt>
<totfact> 0.91906321E+04</totfact>
</mgrwt>
</event>
<event>
 7    1  0.3960685E-009  0.9153310E+02  0.7818608E-02  0.1299181E+00
          2   -1    0    0  501    0  0.00000000000E+00  0.00000000000E+00  0.12366890114E+02  0.12366890377E+02  0.25500000000E-02 0. -1.
         -2   -1    0    0    0  501 -0.00000000000E+00 -0.00000000000E+00 -0.16936974714E+03  0.16936974716E+03  0.25500000000E-02 0.  1.
         23    2    1    2    0    0  0.00000000000E+00  0.22204460493E-15 -0.15700285703E+03  0.18173663754E+03  0.91533099524E+02 0.  0.
    9000005    2    3    3    0    0  0.38138814404E+02 -0.15267879174E+01 -0.29499250855E+02  0.48642423416E+02  0.62433411990E+01 0.  0.
         22    1    3    3    0    0 -0.38138814404E+02  0.15267879174E+01 -0.12750360617E+03  0.13309421412E+03  0.00000000000E+00 0.  1.
         22    1    4    4    0    0  0.26026261765E+02 -0.38231104314E+01 -0.19008248744E+02  0.32454521952E+02  0.00000000000E+00 0. -1.
         22    1    4    4    0    0  0.12112552638E+02  0.22963225140E+01 -0.10491002111E+02  0.16187901464E+02  0.00000000000E+00 0. -1.
<mgrwt>
<rscale>  0 0.91533100E+02</rscale>
<asrwt>0</asrwt>
<pdfrwt beam="1">  1        2 0.19025986E-02 0.91533100E+02</pdfrwt>
<pdfrwt beam="2">  1       -2 0.26056882E-01 0.91533100E+02</pdfrwt>
<totfact> 0.66071693E+04</totfact>
</mgrwt>
</event>
<event>
 7    1  0.3960685E-009  0.8864122E+02  0.7818608E-02  0.1306176E+00
          2   -1    0    0  501    0  0.00000000000E+00  0.00000000000E+00  0.11863369358E+03  0.11863369361E+03  0.25500000000E-02 0. -1.
         -2   -1    0    0    0  501 -0.00000000000E+00 -0.00000000000E+00 -0.16557830938E+02  0.16557831134E+02  0.25500000000E-02 0.  1.
         23    2    1    2    0    0  0.00000000000E+00  0.00000000000E+00  0.10207586264E+03  0.13519152474E+03  0.88641224201E+02 0.  0.
    9000005    2    3    3    0    0  0.26952704483E+02 -0.16939590276E+02  0.97621806583E+02  0.10304752665E+03  0.86820292221E+01 0.  0.
         22    1    3    3    0    0 -0.26952704483E+02  0.16939590276E+02  0.44540560597E+01  0.32143998087E+02  0.00000000000E+00 0.  1.
         22    1    4    4    0    0  0.65625205598E+01 -0.17191820251E+01  0.30965238176E+02  0.31699656753E+02  0.00000000000E+00 0. -1.
         22    1    4    4    0    0  0.20390183923E+02 -0.15220408251E+02  0.66656568407E+02  0.71347869902E+02  0.00000000000E+00 0. -1.
<mgrwt>
<rscale>  0 0.88641224E+02</rscale>
<asrwt>0</asrwt>
<pdfrwt beam="1">  1        2 0.18251337E-01 0.88641224E+02</pdfrwt>
<pdfrwt beam="2">  1       -2 0.25473586E-02 0.88641224E+02</pdfrwt>
<totfact> 0.13973637E+05</totfact>
</mgrwt>
</event>
<event>
 7    1  0.3960685E-009  0.9949723E+02  0.7818608E-02  0.1281357E+00
          2   -1    0    0  501    0  0.00000000000E+00  0.00000000000E+00  0.13406775514E+03  0.13406775516E+03  0.25500000000E-02 0. -1.
         -2   -1    0    0    0  501 -0.00000000000E+00 -0.00000000000E+00 -0.18460253606E+02  0.18460253783E+02  0.25500000000E-02 0.  1.
         23    2    1    2    0    0  0.00000000000E+00  0.00000000000E+00  0.11560750153E+03  0.15252800895E+03  0.99497231632E+02 0.  0.
    9000005    2    3    3    0    0 -0.11264891421E+02 -0.26090973799E+02  0.11998436534E+03  0.12377398959E+03  0.10775707860E+02 0.  0.
         22    1    3    3    0    0  0.11264891421E+02  0.26090973799E+02 -0.43768638066E+01  0.28754019359E+02  0.00000000000E+00 0.  1.
         22    1    4    4    0    0  0.60837012250E+00 -0.11665138160E+02  0.43568758594E+02  0.45107452687E+02  0.00000000000E+00 0.  1.
         22    1    4    4    0    0 -0.11873261544E+02 -0.14425835640E+02  0.76415606747E+02  0.78666536902E+02  0.00000000000E+00 0.  1.
<mgrwt>
<rscale>  0 0.99497232E+02</rscale>
<asrwt>0</asrwt>
<pdfrwt beam="1">  1        2 0.20625808E-01 0.99497232E+02</pdfrwt>
<pdfrwt beam="2">  1       -2 0.28400391E-02 0.99497232E+02</pdfrwt>
<totfact> 0.10597283E+05</totfact>
</mgrwt>
</event>
<event>
 7    1  0.3960685E-009  0.1037830E+03  0.7818608E-02  0.1272536E+00
          2   -1    0    0  501    0  0.00000000000E+00  0.00000000000E+00  0.42148642400E+03  0.42148642401E+03  0.25500000000E-02 0. -1.
         -2   -1    0    0    0  501 -0.00000000000E+00 -0.00000000000E+00 -0.63886449670E+01  0.63886454759E+01  0.25500000000E-02 0.  1.
         23    2    1    2    0    0  0.00000000000E+00 -0.17763568394E-14  0.41509777903E+03  0.42787506949E+03  0.10378298959E+03 0.  0.
    9000005    2    3    3    0    0  0.33427818494E+02  0.10802931497E+02  0.36439006605E+03  0.36618718953E+03  0.88777900285E+01 0.  0.
         22    1    3    3    0    0 -0.33427818494E+02 -0.10802931497E+02  0.50707712981E+02  0.61687879960E+02  0.00000000000E+00 0.  1.
         22    1    4    4    0    0  0.10310992485E+02  0.67497522048E+01  0.99729620324E+02  0.10048817289E+03  0.00000000000E+00 0.  1.
         22    1    4    4    0    0  0.23116826008E+02  0.40531792921E+01  0.26466044573E+03  0.26569901664E+03  0.00000000000E+00 0.  1.
<mgrwt>
<rscale>  0 0.10378299E+03</rscale>
<asrwt>0</asrwt>
<pdfrwt beam="1">  1        2 0.64844055E-01 0.10378299E+03</pdfrwt>
<pdfrwt beam="2">  1       -2 0.98286866E-03 0.10378299E+03</pdfrwt>
<totfact> 0.14388392E+05</totfact>
</mgrwt>
</event>
<event>
 7    1  0.3960685E-009  0.9031813E+02  0.7818608E-02  0.1302083E+00
          2   -1    0    0  501    0  0.00000000000E+00  0.00000000000E+00  0.76760138030E+02  0.76760138072E+02  0.25500000000E-02 0. -1.
         -2   -1    0    0    0  501 -0.00000000000E+00 -0.00000000000E+00 -0.26567709815E+02  0.26567709938E+02  0.25500000000E-02 0.  1.
         23    2    1    2    0    0  0.00000000000E+00  0.88817841970E-15  0.50192428215E+02  0.10332784801E+03  0.90318128437E+02 0.  0.
    9000005    2    3    3    0    0  0.43266263381E+02  0.57762636882E+01  0.20149885991E+02  0.50338329118E+02  0.14919608032E+02 0.  0.
         22    1    3    3    0    0 -0.43266263381E+02 -0.57762636882E+01  0.30042542224E+02  0.52989518892E+02  0.00000000000E+00 0. -1.
         22    1    4    4    0    0  0.12336796178E+02 -0.27945636862E+00  0.13189732399E+02  0.18062216823E+02  0.00000000000E+00 0.  1.
         22    1    4    4    0    0  0.30929467203E+02  0.60557200568E+01  0.69601535918E+01  0.32276112296E+02  0.00000000000E+00 0.  1.
<mgrwt>
<rscale>  0 0.90318128E+02</rscale>
<asrwt>0</asrwt>
<pdfrwt beam="1">  1        2 0.11809252E-01 0.90318128E+02</pdfrwt>
<pdfrwt beam="2">  1       -2 0.40873400E-02 0.90318128E+02</pdfrwt>
<totfact> 0.11653909E+05</totfact>
</mgrwt>
</event>
<event>
 7    1  0.3960685E-009  0.1034928E+03  0.7818608E-02  0.1273118E+00
         -2   -1    0    0    0  501 -0.00000000000E+00  0.00000000000E+00  0.88626117835E+02  0.88626117872E+02  0.25500000000E-02 0.  1.
          2   -1    0    0  501    0  0.00000000000E+00 -0.00000000000E+00 -0.30213347474E+02  0.30213347582E+02  0.25500000000E-02 0. -1.
         23    2    1    2    0    0 -0.35527136788E-14  0.35527136788E-14  0.58412770361E+02  0.11883946545E+03  0.10349283457E+03 0.  0.
    9000005    2    3    3    0    0  0.27134556840E+02 -0.25824745585E+02  0.69385949526E+02  0.79805988534E+02  0.12303826837E+02 0.  0.
         22    1    3    3    0    0 -0.27134556840E+02  0.25824745585E+02 -0.10973179165E+02  0.39033476919E+02  0.00000000000E+00 0. -1.
         22    1    4    4    0    0  0.98468243275E+01 -0.22690313991E+01  0.20459484696E+02  0.22818829217E+02  0.00000000000E+00 0. -1.
         22    1    4    4    0    0  0.17287732513E+02 -0.23555714186E+02  0.48926464830E+02  0.56987159317E+02  0.00000000000E+00 0. -1.
<mgrwt>
<rscale>  0 0.10349283E+03</rscale>
<asrwt>0</asrwt>
<pdfrwt beam="2">  1        2 0.46482073E-02 0.10349283E+03</pdfrwt>
<pdfrwt beam="1">  1       -2 0.13634787E-01 0.10349283E+03</pdfrwt>
<totfact> 0.60477565E+04</totfact>
</mgrwt>
</event>
<event>
 7    1  0.3960685E-009  0.9369260E+02  0.7818608E-02  0.1294148E+00
          2   -1    0    0  501    0  0.00000000000E+00  0.00000000000E+00  0.33930676259E+03  0.33930676260E+03  0.25500000000E-02 0. -1.
         -2   -1    0    0    0  501 -0.00000000000E+00 -0.00000000000E+00 -0.64678226040E+01  0.64678231067E+01  0.25500000000E-02 0.  1.
         23    2    1    2    0    0  0.71054273576E-14 -0.35527136788E-14  0.33283893999E+03  0.34577458571E+03  0.93692604561E+02 0.  0.
    9000005    2    3    3    0    0  0.38695822826E+02 -0.17043331054E+02  0.92282514481E+02  0.10153037249E+03  0.21241990296E+01 0.  0.
         22    1    3    3    0    0 -0.38695822826E+02  0.17043331054E+02  0.24055642551E+03  0.24424421322E+03  0.00000000000E+00 0. -1.
         22    1    4    4    0    0  0.12648031879E+02 -0.58122489186E+01  0.32750220653E+02  0.35585557474E+02  0.00000000000E+00 0.  1.
         22    1    4    4    0    0  0.26047790947E+02 -0.11231082136E+02  0.59532293828E+02  0.65944815017E+02  0.00000000000E+00 0.  1.
<mgrwt>
<rscale>  0 0.93692605E+02</rscale>
<asrwt>0</asrwt>
<pdfrwt beam="1">  1        2 0.52201049E-01 0.93692605E+02</pdfrwt>
<pdfrwt beam="2">  1       -2 0.99504952E-03 0.93692605E+02</pdfrwt>
<totfact> 0.17487450E+05</totfact>
</mgrwt>
</event>
<event>
 7    1  0.3960685E-009  0.9167974E+02  0.7818608E-02  0.1298834E+00
          2   -1    0    0  501    0  0.00000000000E+00  0.00000000000E+00  0.99617701683E+03  0.99617701684E+03  0.25500000000E-02 0. -1.
         -2   -1    0    0    0  501 -0.00000000000E+00 -0.00000000000E+00 -0.21093569169E+01  0.21093584583E+01  0.25500000000E-02 0.  1.
         23    2    1    2    0    0  0.35527136788E-14  0.00000000000E+00  0.99406765992E+03  0.99828637530E+03  0.91679739353E+02 0.  0.
    9000005    2    3    3    0    0  0.30663253333E+02  0.79362726685E+01  0.85655308572E+03  0.85717125334E+03  0.74932877529E+01 0.  0.
         22    1    3    3    0    0 -0.30663253333E+02 -0.79362726685E+01  0.13751457419E+03  0.14111512195E+03  0.00000000000E+00 0.  1.
         22    1    4    4    0    0  0.85797528955E+01 -0.10120569386E+01  0.20217414937E+03  0.20235864966E+03  0.00000000000E+00 0.  1.
         22    1    4    4    0    0  0.22083500438E+02  0.89483296071E+01  0.65437893635E+03  0.65481260368E+03  0.00000000000E+00 0.  1.
<mgrwt>
<rscale>  0 0.91679739E+02</rscale>
<asrwt>0</asrwt>
<pdfrwt beam="1">  1        2 0.15325837E+00 0.91679739E+02</pdfrwt>
<pdfrwt beam="2">  1       -2 0.32451578E-03 0.91679739E+02</pdfrwt>
<totfact> 0.24637568E+05</totfact>
</mgrwt>
</event>
<event>
 7    1  0.3960685E-009  0.8873898E+02  0.7818608E-02  0.1305934E+00
          2   -1    0    0  501    0  0.00000000000E+00  0.00000000000E+00  0.13015640810E+03  0.13015640813E+03  0.25500000000E-02 0.  1.
         -2   -1    0    0    0  501 -0.00000000000E+00 -0.00000000000E+00 -0.15125275326E+02  0.15125275541E+02  0.25500000000E-02 0. -1.
         23    2    1    2    0    0 -0.17763568394E-14  0.35527136788E-14  0.11503113278E+03  0.14528168367E+03  0.88738977353E+02 0.  0.
    9000005    2    3    3    0    0  0.14534697074E+02 -0.16382107737E+02  0.11987370481E+03  0.12285220804E+03  0.15599007738E+02 0.  0.
         22    1    3    3    0    0 -0.14534697074E+02  0.16382107737E+02 -0.48425720364E+01  0.22429475626E+02  0.00000000000E+00 0. -1.
         22    1    4    4    0    0 -0.20363323877E+00 -0.68660670827E-01  0.40207789080E+02  0.40208363352E+02  0.00000000000E+00 0.  1.
         22    1    4    4    0    0  0.14738330312E+02 -0.16313447066E+02  0.79665915734E+02  0.82643844691E+02  0.00000000000E+00 0.  1.
<mgrwt>
<rscale>  0 0.88738977E+02</rscale>
<asrwt>0</asrwt>
<pdfrwt beam="1">  1        2 0.20024063E-01 0.88738977E+02</pdfrwt>
<pdfrwt beam="2">  1       -2 0.23269654E-02 0.88738977E+02</pdfrwt>
<totfact> 0.14353117E+05</totfact>
</mgrwt>
</event>
<event>
 7    1  0.3960685E-009  0.9021194E+02  0.7818608E-02  0.1302339E+00
          2   -1    0    0  501    0  0.00000000000E+00  0.00000000000E+00  0.19998504975E+02  0.19998505137E+02  0.25500000000E-02 0.  1.
         -2   -1    0    0    0  501 -0.00000000000E+00 -0.00000000000E+00 -0.10173502641E+03  0.10173502644E+03  0.25500000000E-02 0. -1.
         23    2    1    2    0    0  0.00000000000E+00  0.00000000000E+00 -0.81736521431E+02  0.12173353157E+03  0.90211938091E+02 0.  0.
    9000005    2    3    3    0    0 -0.23959937764E+02 -0.15138524823E+02  0.48907396071E+01  0.30587846508E+02  0.10413619381E+02 0.  0.
         22    1    3    3    0    0  0.23959937764E+02  0.15138524823E+02 -0.86627261038E+02  0.91145685067E+02  0.00000000000E+00 0. -1.
         22    1    4    4    0    0  0.87319097719E+00  0.32916847783E+00  0.57401659305E-01  0.93493813696E+00  0.00000000000E+00 0. -1.
         22    1    4    4    0    0 -0.24833128742E+02 -0.15467693300E+02  0.48333379477E+01  0.29652908371E+02  0.00000000000E+00 0. -1.
<mgrwt>
<rscale>  0 0.90211938E+02</rscale>
<asrwt>0</asrwt>
<pdfrwt beam="1">  1        2 0.30766931E-02 0.90211938E+02</pdfrwt>
<pdfrwt beam="2">  1       -2 0.15651542E-01 0.90211938E+02</pdfrwt>
<totfact> 0.81526750E+04</totfact>
</mgrwt>
</event>
<event>
 7    1  0.3960685E-009  0.9147851E+02  0.7818608E-02  0.1299310E+00
          2   -1    0    0  501    0  0.00000000000E+00  0.00000000000E+00  0.37417691271E+01  0.37417699960E+01  0.25500000000E-02 0. -1.
         -2   -1    0    0    0  501 -0.00000000000E+00 -0.00000000000E+00 -0.55911496394E+03  0.55911496395E+03  0.25500000000E-02 0.  1.
         23    2    1    2    0    0  0.00000000000E+00  0.00000000000E+00 -0.55537319481E+03  0.56285673394E+03  0.91478508005E+02 0.  0.
    9000005    2    3    3    0    0 -0.37336241712E+02  0.15798388001E+01 -0.43722310225E+03  0.43893766677E+03  0.10283157758E+02 0.  0.
         22    1    3    3    0    0  0.37336241712E+02 -0.15798388001E+01 -0.11815009256E+03  0.12391906717E+03  0.00000000000E+00 0. -1.
         22    1    4    4    0    0 -0.57663010882E+01 -0.23575885289E+01 -0.10847325084E+03  0.10865198848E+03  0.00000000000E+00 0. -1.
         22    1    4    4    0    0 -0.31569940624E+02  0.39374273290E+01 -0.32874985141E+03  0.33028567830E+03  0.00000000000E+00 0. -1.
<mgrwt>
<rscale>  0 0.91478508E+02</rscale>
<asrwt>0</asrwt>
<pdfrwt beam="1">  1        2 0.57565730E-03 0.91478508E+02</pdfrwt>
<pdfrwt beam="2">  1       -2 0.86017621E-01 0.91478508E+02</pdfrwt>
<totfact> 0.32903734E+04</totfact>
</mgrwt>
</event>
<event>
 7    1  0.3960685E-009  0.9124760E+02  0.7818608E-02  0.1299858E+00
         -2   -1    0    0    0  501 -0.00000000000E+00  0.00000000000E+00  0.74532953973E+02  0.74532954017E+02  0.25500000000E-02 0.  1.
          2   -1    0    0  501    0  0.00000000000E+00 -0.00000000000E+00 -0.27927662332E+02  0.27927662448E+02  0.25500000000E-02 0. -1.
         23    2    1    2    0    0  0.88817841970E-15  0.00000000000E+00  0.46605291641E+02  0.10246061647E+03  0.91247601160E+02 0.  0.
    9000005    2    3    3    0    0 -0.67914540479E+01  0.37269396658E+02 -0.28250260458E+01  0.40183107829E+02  0.13098458203E+02 0.  0.
         22    1    3    3    0    0  0.67914540479E+01 -0.37269396658E+02  0.49430317687E+02  0.62277508636E+02  0.00000000000E+00 0.  1.
         22    1    4    4    0    0  0.26042719784E+01  0.20933735629E+02  0.20487901123E+00  0.21096101425E+02  0.00000000000E+00 0. -1.
         22    1    4    4    0    0 -0.93957260263E+01  0.16335661029E+02 -0.30299050570E+01  0.19087006404E+02  0.00000000000E+00 0. -1.
<mgrwt>
<rscale>  0 0.91247601E+02</rscale>
<asrwt>0</asrwt>
<pdfrwt beam="2">  1        2 0.42965634E-02 0.91247601E+02</pdfrwt>
<pdfrwt beam="1">  1       -2 0.11466608E-01 0.91247601E+02</pdfrwt>
<totfact> 0.86578073E+04</totfact>
</mgrwt>
</event>
<event>
 7    1  0.3960685E-009  0.9213943E+02  0.7818608E-02  0.1297752E+00
         -2   -1    0    0    0  501 -0.00000000000E+00  0.00000000000E+00  0.73046352467E+02  0.73046352511E+02  0.25500000000E-02 0. -1.
          2   -1    0    0  501    0  0.00000000000E+00 -0.00000000000E+00 -0.29055776219E+02  0.29055776331E+02  0.25500000000E-02 0.  1.
         23    2    1    2    0    0  0.35527136788E-14  0.00000000000E+00  0.43990576248E+02  0.10210212884E+03  0.92139426499E+02 0.  0.
    9000005    2    3    3    0    0 -0.20682633513E+02 -0.39980856932E+02  0.23704048000E+02  0.52728213883E+02  0.13861543842E+02 0.  0.
         22    1    3    3    0    0  0.20682633513E+02  0.39980856932E+02  0.20286528248E+02  0.49373914959E+02  0.00000000000E+00 0.  1.
         22    1    4    4    0    0 -0.17865207630E+02 -0.22848193576E+02  0.10245084417E+02  0.30759833355E+02  0.00000000000E+00 0.  1.
         22    1    4    4    0    0 -0.28174258832E+01 -0.17132663356E+02  0.13458963583E+02  0.21968380528E+02  0.00000000000E+00 0.  1.
<mgrwt>
<rscale>  0 0.92139426E+02</rscale>
<asrwt>0</asrwt>
<pdfrwt beam="2">  1        2 0.44701194E-02 0.92139426E+02</pdfrwt>
<pdfrwt beam="1">  1       -2 0.11237900E-01 0.92139426E+02</pdfrwt>
<totfact> 0.85006066E+04</totfact>
</mgrwt>
</event>
<event>
 7    1  0.3960685E-009  0.9218487E+02  0.7818608E-02  0.1297645E+00
          2   -1    0    0  501    0  0.00000000000E+00  0.00000000000E+00  0.64537196717E+03  0.64537196718E+03  0.25500000000E-02 0. -1.
         -2   -1    0    0    0  501 -0.00000000000E+00 -0.00000000000E+00 -0.32919190395E+01  0.32919200271E+01  0.25500000000E-02 0.  1.
         23    2    1    2    0    0  0.00000000000E+00  0.17763568394E-14  0.64208004813E+03  0.64866388720E+03  0.92184870521E+02 0.  0.
    9000005    2    3    3    0    0  0.24452897567E+02  0.10473748424E+02  0.58501125020E+03  0.58569968068E+03  0.99151139831E+01 0.  0.
         22    1    3    3    0    0 -0.24452897567E+02 -0.10473748424E+02  0.57068797936E+02  0.62964206525E+02  0.00000000000E+00 0.  1.
         22    1    4    4    0    0  0.12171157215E+02  0.10360109887E+02  0.30340381793E+03  0.30382453107E+03  0.00000000000E+00 0. -1.
         22    1    4    4    0    0  0.12281740352E+02  0.11363853734E+00  0.28160743227E+03  0.28187514961E+03  0.00000000000E+00 0. -1.
<mgrwt>
<rscale>  0 0.92184871E+02</rscale>
<asrwt>0</asrwt>
<pdfrwt beam="1">  1        2 0.99287835E-01 0.92184871E+02</pdfrwt>
<pdfrwt beam="2">  1       -2 0.50644998E-03 0.92184871E+02</pdfrwt>
<totfact> 0.22576849E+05</totfact>
</mgrwt>
</event>
<event>
 7    1  0.3960685E-009  0.9126172E+02  0.7818608E-02  0.1299825E+00
         -2   -1    0    0    0  501 -0.00000000000E+00  0.00000000000E+00  0.60770290667E+01  0.60770296017E+01  0.25500000000E-02 0.  1.
          2   -1    0    0  501    0  0.00000000000E+00 -0.00000000000E+00 -0.34263046261E+03  0.34263046262E+03  0.25500000000E-02 0. -1.
         23    2    1    2    0    0  0.00000000000E+00  0.00000000000E+00 -0.33655343355E+03  0.34870749223E+03  0.91261719803E+02 0.  0.
    9000005    2    3    3    0    0 -0.59671068483E+01 -0.41946581923E+02 -0.12314718537E+03  0.13113601233E+03  0.15372129592E+02 0.  0.
         22    1    3    3    0    0  0.59671068483E+01  0.41946581923E+02 -0.21340624818E+03  0.21757147989E+03  0.00000000000E+00 0.  1.
         22    1    4    4    0    0  0.51304197033E+01 -0.13164917360E+02 -0.42734923191E+02  0.45010109037E+02  0.00000000000E+00 0.  1.
         22    1    4    4    0    0 -0.11097526552E+02 -0.28781664563E+02 -0.80412262175E+02  0.86125903297E+02  0.00000000000E+00 0.  1.
<mgrwt>
<rscale>  0 0.91261720E+02</rscale>
<asrwt>0</asrwt>
<pdfrwt beam="2">  1        2 0.52712364E-01 0.91261720E+02</pdfrwt>
<pdfrwt beam="1">  1       -2 0.93492786E-03 0.91261720E+02</pdfrwt>
<totfact> 0.18825162E+05</totfact>
</mgrwt>
</event>
<event>
 7    1  0.3960685E-009  0.8917207E+02  0.7818608E-02  0.1304869E+00
          2   -1    0    0  501    0  0.00000000000E+00  0.00000000000E+00  0.72796472831E+03  0.72796472832E+03  0.25500000000E-02 0. -1.
         -2   -1    0    0    0  501 -0.00000000000E+00 -0.00000000000E+00 -0.27307832256E+01  0.27307844162E+01  0.25500000000E-02 0.  1.
         23    2    1    2    0    0  0.00000000000E+00 -0.35527136788E-14  0.72523394509E+03  0.73069551273E+03  0.89172065257E+02 0.  0.
    9000005    2    3    3    0    0 -0.25753408267E+02 -0.19688310007E+02  0.61252391028E+03  0.61341627530E+03  0.65664710228E+01 0.  0.
         22    1    3    3    0    0  0.25753408267E+02  0.19688310007E+02  0.11271003481E+03  0.11727923744E+03  0.00000000000E+00 0.  1.
         22    1    4    4    0    0 -0.32331880045E+01 -0.21022504161E+00  0.49952968160E+02  0.50057933709E+02  0.00000000000E+00 0. -1.
         22    1    4    4    0    0 -0.22520220262E+02 -0.19478084966E+02  0.56257094212E+03  0.56335834159E+03  0.00000000000E+00 0. -1.
<mgrwt>
<rscale>  0 0.89172065E+02</rscale>
<asrwt>0</asrwt>
<pdfrwt beam="1">  1        2 0.11199470E+00 0.89172065E+02</pdfrwt>
<pdfrwt beam="2">  1       -2 0.42012012E-03 0.89172065E+02</pdfrwt>
<totfact> 0.25367141E+05</totfact>
</mgrwt>
</event>
<event>
 7    1  0.3960685E-009  0.9171670E+02  0.7818608E-02  0.1298747E+00
         -2   -1    0    0    0  501 -0.00000000000E+00  0.00000000000E+00  0.25135026071E+02  0.25135026201E+02  0.25500000000E-02 0.  1.
          2   -1    0    0  501    0  0.00000000000E+00 -0.00000000000E+00 -0.83667643729E+02  0.83667643768E+02  0.25500000000E-02 0. -1.
         23    2    1    2    0    0 -0.22204460493E-15 -0.35527136788E-14 -0.58532617658E+02  0.10880266997E+03  0.91716703290E+02 0.  0.
    9000005    2    3    3    0    0 -0.12427220475E+01 -0.30179482946E+02  0.91153906860E+01  0.34717593321E+02  0.14487076645E+02 0.  0.
         22    1    3    3    0    0  0.12427220475E+01  0.30179482946E+02 -0.67648008344E+02  0.74085076647E+02  0.00000000000E+00 0. -1.
         22    1    4    4    0    0 -0.76725614520E+01 -0.14880843069E+02  0.28712326174E+01  0.16986808601E+02  0.00000000000E+00 0.  1.
         22    1    4    4    0    0  0.64298394045E+01 -0.15298639876E+02  0.62441580686E+01  0.17730784721E+02  0.00000000000E+00 0.  1.
<mgrwt>
<rscale>  0 0.91716703E+02</rscale>
<asrwt>0</asrwt>
<pdfrwt beam="2">  1        2 0.12871945E-01 0.91716703E+02</pdfrwt>
<pdfrwt beam="1">  1       -2 0.38669271E-02 0.91716703E+02</pdfrwt>
<totfact> 0.11445447E+05</totfact>
</mgrwt>
</event>
<event>
 7    1  0.3960685E-009  0.8513513E+02  0.7818608E-02  0.1315080E+00
          2   -1    0    0  501    0  0.00000000000E+00  0.00000000000E+00  0.17109694892E+03  0.17109694894E+03  0.25500000000E-02 0. -1.
         -2   -1    0    0    0  501 -0.00000000000E+00 -0.00000000000E+00 -0.10590472526E+02  0.10590472833E+02  0.25500000000E-02 0.  1.
         23    2    1    2    0    0  0.00000000000E+00  0.00000000000E+00  0.16050647639E+03  0.18168742177E+03  0.85135129447E+02 0.  0.
    9000005    2    3    3    0    0  0.40193021725E+02  0.83883166752E+01  0.65871556787E+02  0.78529238088E+02  0.11913705936E+02 0.  0.
         22    1    3    3    0    0 -0.40193021725E+02 -0.83883166752E+01  0.94634919607E+02  0.10315818368E+03  0.00000000000E+00 0. -1.
         22    1    4    4    0    0  0.15072655890E+01 -0.18837349235E+01  0.19145345069E+01  0.30798943481E+01  0.00000000000E+00 0.  1.
         22    1    4    4    0    0  0.38685756136E+02  0.10272051599E+02  0.63957022280E+02  0.75449343740E+02  0.00000000000E+00 0.  1.
<mgrwt>
<rscale>  0 0.85135129E+02</rscale>
<asrwt>0</asrwt>
<pdfrwt beam="1">  1        2 0.26322606E-01 0.85135129E+02</pdfrwt>
<pdfrwt beam="2">  1       -2 0.16293036E-02 0.85135129E+02</pdfrwt>
<totfact> 0.17594311E+05</totfact>
</mgrwt>
</event>
<event>
 7    1  0.3960685E-009  0.9230834E+02  0.7818608E-02  0.1297356E+00
          2   -1    0    0  501    0  0.00000000000E+00  0.00000000000E+00  0.24428940776E+02  0.24428940909E+02  0.25500000000E-02 0. -1.
         -2   -1    0    0    0  501 -0.00000000000E+00 -0.00000000000E+00 -0.87200156216E+02  0.87200156254E+02  0.25500000000E-02 0.  1.
         23    2    1    2    0    0  0.00000000000E+00  0.00000000000E+00 -0.62771215440E+02  0.11162909716E+03  0.92308341148E+02 0.  0.
    9000005    2    3    3    0    0  0.43173070237E+02 -0.90475463608E+01 -0.45766428184E+02  0.64353999294E+02  0.10054809176E+02 0.  0.
         22    1    3    3    0    0 -0.43173070237E+02  0.90475463608E+01 -0.17004787257E+02  0.47275097869E+02  0.00000000000E+00 0.  1.
         22    1    4    4    0    0  0.22741198793E+02 -0.93331565892E+01 -0.21767931721E+02  0.32834627847E+02  0.00000000000E+00 0. -1.
         22    1    4    4    0    0  0.20431871445E+02  0.28561022839E+00 -0.23998496463E+02  0.31519371447E+02  0.00000000000E+00 0. -1.
<mgrwt>
<rscale>  0 0.92308341E+02</rscale>
<asrwt>0</asrwt>
<pdfrwt beam="1">  1        2 0.37582986E-02 0.92308341E+02</pdfrwt>
<pdfrwt beam="2">  1       -2 0.13415408E-01 0.92308341E+02</pdfrwt>
<totfact> 0.80556860E+04</totfact>
</mgrwt>
</event>
<event>
 7    1  0.3960685E-009  0.9621469E+02  0.7818608E-02  0.1288463E+00
         -2   -1    0    0    0  501 -0.00000000000E+00  0.00000000000E+00  0.10658054094E+02  0.10658054399E+02  0.25500000000E-02 0.  1.
          2   -1    0    0  501    0  0.00000000000E+00 -0.00000000000E+00 -0.21714251584E+03  0.21714251586E+03  0.25500000000E-02 0. -1.
         23    2    1    2    0    0  0.00000000000E+00  0.00000000000E+00 -0.20648446175E+03  0.22780057026E+03  0.96214691526E+02 0.  0.
    9000005    2    3    3    0    0  0.21145103768E+02  0.22205267315E+02 -0.21299738394E+02  0.40094493972E+02  0.14618491077E+02 0.  0.
         22    1    3    3    0    0 -0.21145103768E+02 -0.22205267315E+02 -0.18518472336E+03  0.18770607629E+03  0.00000000000E+00 0. -1.
         22    1    4    4    0    0  0.13121310315E+02  0.22360522803E+02 -0.15711225261E+02  0.30315084753E+02  0.00000000000E+00 0. -1.
         22    1    4    4    0    0  0.80237934523E+01 -0.15525548798E+00 -0.55885131331E+01  0.97794092188E+01  0.00000000000E+00 0. -1.
<mgrwt>
<rscale>  0 0.96214692E+02</rscale>
<asrwt>0</asrwt>
<pdfrwt beam="2">  1        2 0.33406538E-01 0.96214692E+02</pdfrwt>
<pdfrwt beam="1">  1       -2 0.16397008E-02 0.96214692E+02</pdfrwt>
<totfact> 0.13785552E+05</totfact>
</mgrwt>
</event>
<event>
 7    1  0.3960685E-009  0.9063251E+02  0.7818608E-02  0.1301327E+00
          2   -1    0    0  501    0  0.00000000000E+00  0.00000000000E+00  0.17725176661E+03  0.17725176663E+03  0.25500000000E-02 0. -1.
         -2   -1    0    0    0  501 -0.00000000000E+00 -0.00000000000E+00 -0.11585570704E+02  0.11585570985E+02  0.25500000000E-02 0.  1.
         23    2    1    2    0    0  0.00000000000E+00  0.00000000000E+00  0.16566619591E+03  0.18883733761E+03  0.90632508576E+02 0.  0.
    9000005    2    3    3    0    0 -0.40673865279E+02  0.17551660927E+02  0.10178021063E+03  0.11109517896E+03  0.45280672701E+01 0.  0.
         22    1    3    3    0    0  0.40673865279E+02 -0.17551660927E+02  0.63885985275E+02  0.77742158657E+02  0.00000000000E+00 0.  1.
         22    1    4    4    0    0 -0.17716854726E+02  0.10064212344E+02  0.47565296197E+02  0.51745847310E+02  0.00000000000E+00 0.  1.
         22    1    4    4    0    0 -0.22957010553E+02  0.74874485828E+01  0.54214914435E+02  0.59349331648E+02  0.00000000000E+00 0.  1.
<mgrwt>
<rscale>  0 0.90632509E+02</rscale>
<asrwt>0</asrwt>
<pdfrwt beam="1">  1        2 0.27269502E-01 0.90632509E+02</pdfrwt>
<pdfrwt beam="2">  1       -2 0.17823955E-02 0.90632509E+02</pdfrwt>
<totfact> 0.15054959E+05</totfact>
</mgrwt>
</event>
<event>
 7    1  0.3960685E-009  0.1045350E+03  0.7818608E-02  0.1271039E+00
          2   -1    0    0  501    0  0.00000000000E+00  0.00000000000E+00  0.26839845379E+03  0.26839845380E+03  0.25500000000E-02 0. -1.
         -2   -1    0    0    0  501 -0.00000000000E+00 -0.00000000000E+00 -0.10178482779E+02  0.10178483099E+02  0.25500000000E-02 0.  1.
         23    2    1    2    0    0  0.66613381478E-15  0.00000000000E+00  0.25821997101E+03  0.27857693690E+03  0.10453495274E+03 0.  0.
    9000005    2    3    3    0    0 -0.19146725106E+01 -0.49283063050E+02  0.94434943818E+02  0.10752717395E+03  0.14548135566E+02 0.  0.
         22    1    3    3    0    0  0.19146725106E+01  0.49283063050E+02  0.16378502719E+03  0.17104976295E+03  0.00000000000E+00 0. -1.
         22    1    4    4    0    0 -0.62849239377E+01 -0.96454124385E+01  0.19630832067E+02  0.22757500251E+02  0.00000000000E+00 0.  1.
         22    1    4    4    0    0  0.43702514271E+01 -0.39637650611E+02  0.74804111751E+02  0.84769673695E+02  0.00000000000E+00 0.  1.
<mgrwt>
<rscale>  0 0.10453495E+03</rscale>
<asrwt>0</asrwt>
<pdfrwt beam="1">  1        2 0.41292072E-01 0.10453495E+03</pdfrwt>
<pdfrwt beam="2">  1       -2 0.15659204E-02 0.10453495E+03</pdfrwt>
<totfact> 0.11921683E+05</totfact>
</mgrwt>
</event>
<event>
 7    1  0.3960685E-009  0.9150264E+02  0.7818608E-02  0.1299253E+00
          2   -1    0    0  501    0  0.00000000000E+00  0.00000000000E+00  0.28766785450E+02  0.28766785563E+02  0.25500000000E-02 0. -1.
         -2   -1    0    0    0  501 -0.00000000000E+00 -0.00000000000E+00 -0.72763891899E+02  0.72763891944E+02  0.25500000000E-02 0.  1.
         23    2    1    2    0    0  0.00000000000E+00  0.35527136788E-14 -0.43997106449E+02  0.10153067751E+03  0.91502639848E+02 0.  0.
    9000005    2    3    3    0    0  0.19953307004E+02 -0.24211729914E+02  0.13941252705E+02  0.35642926086E+02  0.95769163706E+01 0.  0.
         22    1    3    3    0    0 -0.19953307004E+02  0.24211729914E+02 -0.57938359155E+02  0.65887751421E+02  0.00000000000E+00 0.  1.
         22    1    4    4    0    0  0.74257724342E+01 -0.90435641679E+01  0.10397570410E+02  0.15653677508E+02  0.00000000000E+00 0.  1.
         22    1    4    4    0    0  0.12527534569E+02 -0.15168165746E+02  0.35436822953E+01  0.19989248578E+02  0.00000000000E+00 0.  1.
<mgrwt>
<rscale>  0 0.91502640E+02</rscale>
<asrwt>0</asrwt>
<pdfrwt beam="1">  1        2 0.44256594E-02 0.91502640E+02</pdfrwt>
<pdfrwt beam="2">  1       -2 0.11194445E-01 0.91502640E+02</pdfrwt>
<totfact> 0.86550002E+04</totfact>
</mgrwt>
</event>
<event>
 7    1  0.3960685E-009  0.9684365E+02  0.7818608E-02  0.1287077E+00
         -2   -1    0    0    0  501 -0.00000000000E+00  0.00000000000E+00  0.11573525655E+02  0.11573525936E+02  0.25500000000E-02 0.  1.
          2   -1    0    0  501    0  0.00000000000E+00 -0.00000000000E+00 -0.20258934954E+03  0.20258934956E+03  0.25500000000E-02 0. -1.
         23    2    1    2    0    0  0.00000000000E+00  0.00000000000E+00 -0.19101582389E+03  0.21416287549E+03  0.96843648549E+02 0.  0.
    9000005    2    3    3    0    0 -0.43899692632E+02  0.17692008523E+02 -0.10569862964E+03  0.11659641705E+03  0.13503110111E+02 0.  0.
         22    1    3    3    0    0  0.43899692632E+02 -0.17692008523E+02 -0.85317194247E+02  0.97566458442E+02  0.00000000000E+00 0.  1.
         22    1    4    4    0    0 -0.16438735775E+02  0.20448184711E+01 -0.25650789045E+02  0.30534837401E+02  0.00000000000E+00 0. -1.
         22    1    4    4    0    0 -0.27460956857E+02  0.15647190051E+02 -0.80047840595E+02  0.86061579650E+02  0.00000000000E+00 0. -1.
<mgrwt>
<rscale>  0 0.96843649E+02</rscale>
<asrwt>0</asrwt>
<pdfrwt beam="2">  1        2 0.31167590E-01 0.96843649E+02</pdfrwt>
<pdfrwt beam="1">  1       -2 0.17805426E-02 0.96843649E+02</pdfrwt>
<totfact> 0.13203025E+05</totfact>
</mgrwt>
</event>
<event>
 7    1  0.3960685E-009  0.8933290E+02  0.7818608E-02  0.1304475E+00
         -2   -1    0    0    0  501 -0.00000000000E+00  0.00000000000E+00  0.66168730592E+01  0.66168735506E+01  0.25500000000E-02 0.  1.
          2   -1    0    0  501    0  0.00000000000E+00 -0.00000000000E+00 -0.30151578164E+03  0.30151578165E+03  0.25500000000E-02 0. -1.
         23    2    1    2    0    0  0.00000000000E+00  0.44408920985E-15 -0.29489890858E+03  0.30813265520E+03  0.89332899422E+02 0.  0.
    9000005    2    3    3    0    0 -0.16381979315E+02  0.36128982545E+01 -0.29012742615E+03  0.29069163101E+03  0.68028417069E+01 0.  0.
         22    1    3    3    0    0  0.16381979315E+02 -0.36128982545E+01 -0.47714824248E+01  0.17441024184E+02  0.00000000000E+00 0.  1.
         22    1    4    4    0    0 -0.74012965363E+01  0.43966397846E+01 -0.17510124409E+03  0.17531273574E+03  0.00000000000E+00 0. -1.
         22    1    4    4    0    0 -0.89806827787E+01 -0.78374153010E+00 -0.11502618207E+03  0.11537889528E+03  0.00000000000E+00 0. -1.
<mgrwt>
<rscale>  0 0.89332899E+02</rscale>
<asrwt>0</asrwt>
<pdfrwt beam="2">  1        2 0.46387033E-01 0.89332899E+02</pdfrwt>
<pdfrwt beam="1">  1       -2 0.10179807E-02 0.89332899E+02</pdfrwt>
<totfact> 0.19006405E+05</totfact>
</mgrwt>
</event>
<event>
 7    1  0.3960685E-009  0.9240821E+02  0.7818608E-02  0.1297122E+00
         -2   -1    0    0    0  501 -0.00000000000E+00  0.00000000000E+00  0.82489226460E+01  0.82489230402E+01  0.25500000000E-02 0.  1.
          2   -1    0    0  501    0  0.00000000000E+00 -0.00000000000E+00 -0.25879974829E+03  0.25879974831E+03  0.25500000000E-02 0. -1.
         23    2    1    2    0    0  0.00000000000E+00  0.00000000000E+00 -0.25055082565E+03  0.26704867135E+03  0.92408206536E+02 0.  0.
    9000005    2    3    3    0    0  0.33711127067E+02  0.90739090519E+01 -0.44653986974E+02  0.58213128180E+02  0.13267020248E+02 0.  0.
         22    1    3    3    0    0 -0.33711127067E+02 -0.90739090519E+01 -0.20589683867E+03  0.20883554317E+03  0.00000000000E+00 0. -1.
         22    1    4    4    0    0  0.34019267503E+02  0.10654863592E+02 -0.41809403237E+02  0.54944179661E+02  0.00000000000E+00 0.  1.
         22    1    4    4    0    0 -0.30814043613E+00 -0.15809545397E+01 -0.28445837367E+01  0.32689485190E+01  0.00000000000E+00 0.  1.
<mgrwt>
<rscale>  0 0.92408207E+02</rscale>
<asrwt>0</asrwt>
<pdfrwt beam="2">  1        2 0.39815340E-01 0.92408207E+02</pdfrwt>
<pdfrwt beam="1">  1       -2 0.12690653E-02 0.92408207E+02</pdfrwt>
<totfact> 0.16402424E+05</totfact>
</mgrwt>
</event>
<event>
 7    1  0.3960685E-009  0.9033511E+02  0.7818608E-02  0.1302042E+00
         -2   -1    0    0    0  501 -0.00000000000E+00  0.00000000000E+00  0.25282027008E+02  0.25282027136E+02  0.25500000000E-02 0.  1.
          2   -1    0    0  501    0  0.00000000000E+00 -0.00000000000E+00 -0.80694013475E+02  0.80694013515E+02  0.25500000000E-02 0. -1.
         23    2    1    2    0    0  0.00000000000E+00  0.00000000000E+00 -0.55411986468E+02  0.10597604065E+03  0.90335114700E+02 0.  0.
    9000005    2    3    3    0    0 -0.34309386077E+02 -0.12215666400E+02 -0.57967223967E+02  0.69467333235E+02  0.11796391558E+02 0.  0.
         22    1    3    3    0    0  0.34309386077E+02  0.12215666400E+02  0.25552374991E+01  0.36508707417E+02  0.00000000000E+00 0.  1.
         22    1    4    4    0    0 -0.23196765423E+02 -0.39990392276E+01 -0.28832848665E+02  0.37221168748E+02  0.00000000000E+00 0. -1.
         22    1    4    4    0    0 -0.11112620654E+02 -0.82166271729E+01 -0.29134375301E+02  0.32246164487E+02  0.00000000000E+00 0. -1.
<mgrwt>
<rscale>  0 0.90335115E+02</rscale>
<asrwt>0</asrwt>
<pdfrwt beam="2">  1        2 0.12414464E-01 0.90335115E+02</pdfrwt>
<pdfrwt beam="1">  1       -2 0.38895427E-02 0.90335115E+02</pdfrwt>
<totfact> 0.11814125E+05</totfact>
</mgrwt>
</event>
<event>
 7    1  0.3960685E-009  0.9485783E+02  0.7818608E-02  0.1291497E+00
         -2   -1    0    0    0  501 -0.00000000000E+00  0.00000000000E+00  0.21539791609E+02  0.21539791760E+02  0.25500000000E-02 0.  1.
          2   -1    0    0  501    0  0.00000000000E+00 -0.00000000000E+00 -0.10443472178E+03  0.10443472181E+03  0.25500000000E-02 0. -1.
         23    2    1    2    0    0  0.00000000000E+00  0.00000000000E+00 -0.82894930166E+02  0.12597451357E+03  0.94857833737E+02 0.  0.
    9000005    2    3    3    0    0  0.46967921644E+02 -0.46815253493E+01 -0.39552192882E+02  0.61892572129E+02  0.61977560278E+01 0.  0.
         22    1    3    3    0    0 -0.46967921644E+02  0.46815253493E+01 -0.43342737284E+02  0.64081941438E+02  0.00000000000E+00 0. -1.
         22    1    4    4    0    0  0.28403450269E+02 -0.18662682993E+01 -0.27511508662E+02  0.39586892444E+02  0.00000000000E+00 0.  1.
         22    1    4    4    0    0  0.18564471376E+02 -0.28152570500E+01 -0.12040684220E+02  0.22305679685E+02  0.00000000000E+00 0.  1.
<mgrwt>
<rscale>  0 0.94857834E+02</rscale>
<asrwt>0</asrwt>
<pdfrwt beam="2">  1        2 0.16066880E-01 0.94857834E+02</pdfrwt>
<pdfrwt beam="1">  1       -2 0.33138142E-02 0.94857834E+02</pdfrwt>
<totfact> 0.11145971E+05</totfact>
</mgrwt>
</event>
<event>
 7    1  0.3960685E-009  0.8969284E+02  0.7818608E-02  0.1303597E+00
         -2   -1    0    0    0  501 -0.00000000000E+00  0.00000000000E+00  0.64870786242E+01  0.64870791254E+01  0.25500000000E-02 0. -1.
          2   -1    0    0  501    0  0.00000000000E+00 -0.00000000000E+00 -0.31003187997E+03  0.31003187998E+03  0.25500000000E-02 0.  1.
         23    2    1    2    0    0 -0.71054273576E-14  0.17763568394E-14 -0.30354480135E+03  0.31651895911E+03  0.89692837225E+02 0.  0.
    9000005    2    3    3    0    0 -0.39674952186E+02  0.12566735253E+02 -0.20763448257E+03  0.21196842628E+03  0.93011140788E+01 0.  0.
         22    1    3    3    0    0  0.39674952186E+02 -0.12566735253E+02 -0.95910318783E+02  0.10455053283E+03  0.00000000000E+00 0. -1.
         22    1    4    4    0    0 -0.31657123567E+02  0.13305223773E+02 -0.17651187616E+03  0.17982114691E+03  0.00000000000E+00 0. -1.
         22    1    4    4    0    0 -0.80178286194E+01 -0.73848852046E+00 -0.31122606406E+02  0.32147279365E+02  0.00000000000E+00 0. -1.
<mgrwt>
<rscale>  0 0.89692837E+02</rscale>
<asrwt>0</asrwt>
<pdfrwt beam="2">  1        2 0.47697201E-01 0.89692837E+02</pdfrwt>
<pdfrwt beam="1">  1       -2 0.99801238E-03 0.89692837E+02</pdfrwt>
<totfact> 0.18999509E+05</totfact>
</mgrwt>
</event>
<event>
 7    1  0.3960685E-009  0.8941650E+02  0.7818608E-02  0.1304271E+00
         -2   -1    0    0    0  501 -0.00000000000E+00  0.00000000000E+00  0.76264044708E+01  0.76264048971E+01  0.25500000000E-02 0. -1.
          2   -1    0    0  501    0  0.00000000000E+00 -0.00000000000E+00 -0.26209306419E+03  0.26209306420E+03  0.25500000000E-02 0.  1.
         23    2    1    2    0    0 -0.35527136788E-14  0.00000000000E+00 -0.25446665972E+03  0.26971946910E+03  0.89416503526E+02 0.  0.
    9000005    2    3    3    0    0  0.26713887898E+02  0.20224083412E+02 -0.21524867542E+03  0.21813753768E+03  0.11373113864E+02 0.  0.
         22    1    3    3    0    0 -0.26713887898E+02 -0.20224083412E+02 -0.39217984303E+02  0.51581931422E+02  0.00000000000E+00 0. -1.
         22    1    4    4    0    0  0.21965101700E+02  0.20841729716E+02 -0.17439104464E+03  0.17700022554E+03  0.00000000000E+00 0.  1.
         22    1    4    4    0    0  0.47487861976E+01 -0.61764630320E+00 -0.40857630782E+02  0.41137312144E+02  0.00000000000E+00 0.  1.
<mgrwt>
<rscale>  0 0.89416504E+02</rscale>
<asrwt>0</asrwt>
<pdfrwt beam="2">  1        2 0.40322003E-01 0.89416504E+02</pdfrwt>
<pdfrwt beam="1">  1       -2 0.11732932E-02 0.89416504E+02</pdfrwt>
<totfact> 0.17996277E+05</totfact>
</mgrwt>
</event>
<event>
 7    1  0.3960685E-009  0.9223503E+02  0.7818608E-02  0.1297528E+00
         -2   -1    0    0    0  501 -0.00000000000E+00  0.00000000000E+00  0.16627235394E+03  0.16627235396E+03  0.25500000000E-02 0.  1.
          2   -1    0    0  501    0  0.00000000000E+00 -0.00000000000E+00 -0.12791213377E+02  0.12791213632E+02  0.25500000000E-02 0. -1.
         23    2    1    2    0    0 -0.35527136788E-14  0.00000000000E+00  0.15348114056E+03  0.17906356759E+03  0.92235029843E+02 0.  0.
    9000005    2    3    3    0    0  0.20639613844E+02 -0.54626231006E+01  0.15540584975E+03  0.15762672043E+03  0.15471617407E+02 0.  0.
         22    1    3    3    0    0 -0.20639613844E+02  0.54626231006E+01 -0.19247091897E+01  0.21436847162E+02  0.00000000000E+00 0. -1.
         22    1    4    4    0    0  0.84607454388E+01 -0.56211840004E+01  0.30905603791E+02  0.32532111346E+02  0.00000000000E+00 0. -1.
         22    1    4    4    0    0  0.12178868406E+02  0.15856089974E+00  0.12450024596E+03  0.12509460908E+03  0.00000000000E+00 0. -1.
<mgrwt>
<rscale>  0 0.92235030E+02</rscale>
<asrwt>0</asrwt>
<pdfrwt beam="2">  1        2 0.19678789E-02 0.92235030E+02</pdfrwt>
<pdfrwt beam="1">  1       -2 0.25580363E-01 0.92235030E+02</pdfrwt>
<totfact> 0.65267202E+04</totfact>
</mgrwt>
</event>
<event>
 7    1  0.3960685E-009  0.9228155E+02  0.7818608E-02  0.1297419E+00
         -2   -1    0    0    0  501 -0.00000000000E+00  0.00000000000E+00  0.78281956498E+02  0.78281956539E+02  0.25500000000E-02 0. -1.
          2   -1    0    0  501    0  0.00000000000E+00 -0.00000000000E+00 -0.27196193023E+02  0.27196193143E+02  0.25500000000E-02 0.  1.
         23    2    1    2    0    0  0.00000000000E+00 -0.71054273576E-14  0.51085763475E+02  0.10547814968E+03  0.92281551951E+02 0.  0.
    9000005    2    3    3    0    0 -0.26941213110E+02  0.33740645866E+02  0.11975131051E+02  0.47220946557E+02  0.14904827500E+02 0.  0.
         22    1    3    3    0    0  0.26941213110E+02 -0.33740645866E+02  0.39110632424E+02  0.58257203125E+02  0.00000000000E+00 0. -1.
         22    1    4    4    0    0 -0.18453361055E+02  0.11351439943E+02  0.44034539450E+01  0.22108191461E+02  0.00000000000E+00 0.  1.
         22    1    4    4    0    0 -0.84878520548E+01  0.22389205923E+02  0.75716771057E+01  0.25112755097E+02  0.00000000000E+00 0.  1.
<mgrwt>
<rscale>  0 0.92281552E+02</rscale>
<asrwt>0</asrwt>
<pdfrwt beam="2">  1        2 0.41840298E-02 0.92281552E+02</pdfrwt>
<pdfrwt beam="1">  1       -2 0.12043378E-01 0.92281552E+02</pdfrwt>
<totfact> 0.83094901E+04</totfact>
</mgrwt>
</event>
<event>
 6    1  0.3960685E-009  0.2221781E+03  0.7818608E-02  0.1132270E+00
          2   -1    0    0  501    0  0.00000000000E+00  0.00000000000E+00  0.29683927536E+03  0.29683927537E+03  0.25500000000E-02 0.  1.
         -2   -1    0    0    0  501 -0.00000000000E+00 -0.00000000000E+00 -0.41573918599E+02  0.41573918677E+02  0.25500000000E-02 0. -1.
    9000005    2    1    2    0    0 -0.20071461596E+02 -0.83428342627E+02  0.21208836730E+02  0.89122988679E+02  0.11399141698E+02 0.  0.
         22    1    1    2    0    0  0.20071461596E+02  0.83428342627E+02  0.23405652003E+03  0.24929020537E+03  0.00000000000E+00 0.  1.
         22    1    3    3    0    0 -0.10873928559E+02 -0.59527270607E+02  0.10748959555E+02  0.61459567195E+02  0.00000000000E+00 0. -1.
         22    1    3    3    0    0 -0.91975330379E+01 -0.23901072020E+02  0.10459877175E+02  0.27663421484E+02  0.00000000000E+00 0. -1.
<mgrwt>
<rscale>  0 0.22217805E+03</rscale>
<asrwt>0</asrwt>
<pdfrwt beam="1">  1        2 0.45667582E-01 0.22217805E+03</pdfrwt>
<pdfrwt beam="2">  1       -2 0.63959873E-02 0.22217805E+03</pdfrwt>
<totfact> 0.14484064E+04</totfact>
</mgrwt>
</event>
<event>
 7    1  0.3960685E-009  0.1040946E+03  0.7818608E-02  0.1271914E+00
         -2   -1    0    0    0  501 -0.00000000000E+00  0.00000000000E+00  0.23471253551E+02  0.23471253690E+02  0.25500000000E-02 0.  1.
          2   -1    0    0  501    0  0.00000000000E+00 -0.00000000000E+00 -0.11541443210E+03  0.11541443213E+03  0.25500000000E-02 0. -1.
         23    2    1    2    0    0  0.00000000000E+00  0.71054273576E-14 -0.91943178547E+02  0.13888568582E+03  0.10409459949E+03 0.  0.
    9000005    2    3    3    0    0 -0.33877520982E+02  0.33763267835E+02 -0.71856428173E+02  0.87009658372E+02  0.10940278672E+02 0.  0.
         22    1    3    3    0    0  0.33877520982E+02 -0.33763267835E+02 -0.20086750374E+02  0.51876027444E+02  0.00000000000E+00 0.  1.
         22    1    4    4    0    0 -0.20296762179E+02  0.24179774424E+02 -0.54463513874E+02  0.62951524125E+02  0.00000000000E+00 0. -1.
         22    1    4    4    0    0 -0.13580758803E+02  0.95834934115E+01 -0.17392914298E+02  0.24058134247E+02  0.00000000000E+00 0. -1.
<mgrwt>
<rscale>  0 0.10409460E+03</rscale>
<asrwt>0</asrwt>
<pdfrwt beam="2">  1        2 0.17756066E-01 0.10409460E+03</pdfrwt>
<pdfrwt beam="1">  1       -2 0.36109622E-02 0.10409460E+03</pdfrwt>
<totfact> 0.88910777E+04</totfact>
</mgrwt>
</event>
<event>
 7    1  0.3960685E-009  0.8979538E+02  0.7818608E-02  0.1303348E+00
          2   -1    0    0  501    0  0.00000000000E+00  0.00000000000E+00  0.19314600025E+03  0.19314600027E+03  0.25500000000E-02 0.  1.
         -2   -1    0    0    0  501 -0.00000000000E+00 -0.00000000000E+00 -0.10436677869E+02  0.10436678181E+02  0.25500000000E-02 0. -1.
         23    2    1    2    0    0  0.00000000000E+00  0.00000000000E+00  0.18270932238E+03  0.20358267845E+03  0.89795381168E+02 0.  0.
    9000005    2    3    3    0    0 -0.34761583088E+02  0.23805986111E+02  0.12532882040E+03  0.13239549813E+03  0.67942674250E+01 0.  0.
         22    1    3    3    0    0  0.34761583088E+02 -0.23805986111E+02  0.57380501987E+02  0.71187180319E+02  0.00000000000E+00 0. -1.
         22    1    4    4    0    0 -0.31148057542E+02  0.18537385684E+02  0.10440383088E+03  0.11051694919E+03  0.00000000000E+00 0. -1.
         22    1    4    4    0    0 -0.36135255456E+01  0.52686004276E+01  0.20924989519E+02  0.21878548940E+02  0.00000000000E+00 0. -1.
<mgrwt>
<rscale>  0 0.89795381E+02</rscale>
<asrwt>0</asrwt>
<pdfrwt beam="1">  1        2 0.29714766E-01 0.89795381E+02</pdfrwt>
<pdfrwt beam="2">  1       -2 0.16056429E-02 0.89795381E+02</pdfrwt>
<totfact> 0.15915181E+05</totfact>
</mgrwt>
</event>
<event>
 7    1  0.3960685E-009  0.9017671E+02  0.7818608E-02  0.1302424E+00
          2   -1    0    0  501    0  0.00000000000E+00  0.00000000000E+00  0.93570526145E+02  0.93570526180E+02  0.25500000000E-02 0. -1.
         -2   -1    0    0    0  501 -0.00000000000E+00 -0.00000000000E+00 -0.21726496127E+02  0.21726496277E+02  0.25500000000E-02 0.  1.
         23    2    1    2    0    0  0.00000000000E+00  0.00000000000E+00  0.71844030018E+02  0.11529702246E+03  0.90176708402E+02 0.  0.
    9000005    2    3    3    0    0  0.81948282227E+01 -0.10376430475E+02  0.90824108597E+02  0.92165466048E+02  0.84041008113E+01 0.  0.
         22    1    3    3    0    0 -0.81948282227E+01  0.10376430475E+02 -0.18980078580E+02  0.23131556409E+02  0.00000000000E+00 0.  1.
         22    1    4    4    0    0 -0.15565195070E+00 -0.39785426332E+01  0.43722679847E+02  0.43903596231E+02  0.00000000000E+00 0. -1.
         22    1    4    4    0    0  0.83504801734E+01 -0.63978878416E+01  0.47101428750E+02  0.48261869818E+02  0.00000000000E+00 0. -1.
<mgrwt>
<rscale>  0 0.90176708E+02</rscale>
<asrwt>0</asrwt>
<pdfrwt beam="1">  1        2 0.14395466E-01 0.90176708E+02</pdfrwt>
<pdfrwt beam="2">  1       -2 0.33425379E-02 0.90176708E+02</pdfrwt>
<totfact> 0.12395264E+05</totfact>
</mgrwt>
</event>
<event>
 7    1  0.3960685E-009  0.9195843E+02  0.7818608E-02  0.1298177E+00
         -2   -1    0    0    0  501 -0.00000000000E+00  0.00000000000E+00  0.47616019688E+01  0.47616026516E+01  0.25500000000E-02 0.  1.
          2   -1    0    0  501    0  0.00000000000E+00 -0.00000000000E+00 -0.44398668289E+03  0.44398668290E+03  0.25500000000E-02 0. -1.
         23    2    1    2    0    0  0.44408920985E-15  0.00000000000E+00 -0.43922508092E+03  0.44874828555E+03  0.91958425785E+02 0.  0.
    9000005    2    3    3    0    0  0.17630383605E+01  0.18458775809E+02 -0.42462750692E+03  0.42514905091E+03  0.99680064383E+01 0.  0.
         22    1    3    3    0    0 -0.17630383605E+01 -0.18458775809E+02 -0.14597574005E+02  0.23599234637E+02  0.00000000000E+00 0.  1.
         22    1    4    4    0    0 -0.29906449502E+01  0.24805334846E+01 -0.49960116627E+02  0.50110979405E+02  0.00000000000E+00 0. -1.
         22    1    4    4    0    0  0.47536833107E+01  0.15978242325E+02 -0.37466739029E+03  0.37503807151E+03  0.00000000000E+00 0. -1.
<mgrwt>
<rscale>  0 0.91958426E+02</rscale>
<asrwt>0</asrwt>
<pdfrwt beam="2">  1        2 0.68305611E-01 0.91958426E+02</pdfrwt>
<pdfrwt beam="1">  1       -2 0.73255455E-03 0.91958426E+02</pdfrwt>
<totfact> 0.20244297E+05</totfact>
</mgrwt>
</event>
<event>
 7    1  0.3960685E-009  0.8941427E+02  0.7818608E-02  0.1304276E+00
          2   -1    0    0  501    0  0.00000000000E+00  0.00000000000E+00  0.30933201956E+02  0.30933202061E+02  0.25500000000E-02 0. -1.
         -2   -1    0    0    0  501 -0.00000000000E+00 -0.00000000000E+00 -0.64614316890E+02  0.64614316941E+02  0.25500000000E-02 0.  1.
         23    2    1    2    0    0  0.00000000000E+00  0.00000000000E+00 -0.33681114934E+02  0.95547519002E+02  0.89414265552E+02 0.  0.
    9000005    2    3    3    0    0 -0.39445195108E+02 -0.20051293820E+02 -0.10640911939E+02  0.45659356528E+02  0.36837522599E+01 0.  0.
         22    1    3    3    0    0  0.39445195108E+02  0.20051293820E+02 -0.23040202995E+02  0.49888162474E+02  0.00000000000E+00 0.  1.
         22    1    4    4    0    0 -0.65549655543E+01 -0.48971843164E+01 -0.22618795235E+01  0.84891746728E+01  0.00000000000E+00 0. -1.
         22    1    4    4    0    0 -0.32890229554E+02 -0.15154109503E+02 -0.83790324159E+01  0.37170181855E+02  0.00000000000E+00 0. -1.
<mgrwt>
<rscale>  0 0.89414266E+02</rscale>
<asrwt>0</asrwt>
<pdfrwt beam="1">  1        2 0.47589542E-02 0.89414266E+02</pdfrwt>
<pdfrwt beam="2">  1       -2 0.99406641E-02 0.89414266E+02</pdfrwt>
<totfact> 0.94477718E+04</totfact>
</mgrwt>
</event>
<event>
 7    1  0.3960685E-009  0.9754273E+02  0.7818608E-02  0.1285550E+00
         -2   -1    0    0    0  501 -0.00000000000E+00  0.00000000000E+00  0.53051923779E+02  0.53051923840E+02  0.25500000000E-02 0.  1.
          2   -1    0    0  501    0  0.00000000000E+00 -0.00000000000E+00 -0.44836188354E+02  0.44836188426E+02  0.25500000000E-02 0. -1.
         23    2    1    2    0    0  0.00000000000E+00  0.00000000000E+00  0.82157354255E+01  0.97888112266E+02  0.97542730198E+02 0.  0.
    9000005    2    3    3    0    0  0.30684701340E+02 -0.11561495525E+02  0.38963112413E+02  0.52936802312E+02  0.14455512271E+02 0.  0.
         22    1    3    3    0    0 -0.30684701340E+02  0.11561495525E+02 -0.30747376987E+02  0.44951309955E+02  0.00000000000E+00 0. -1.
         22    1    4    4    0    0  0.30259393357E+02 -0.69133720800E+01  0.32248353779E+02  0.44759154609E+02  0.00000000000E+00 0. -1.
         22    1    4    4    0    0  0.42530798245E+00 -0.46481234448E+01  0.67147586334E+01  0.81776477023E+01  0.00000000000E+00 0. -1.
<mgrwt>
<rscale>  0 0.97542730E+02</rscale>
<asrwt>0</asrwt>
<pdfrwt beam="2">  1        2 0.68978751E-02 0.97542730E+02</pdfrwt>
<pdfrwt beam="1">  1       -2 0.81618345E-02 0.97542730E+02</pdfrwt>
<totfact> 0.80808920E+04</totfact>
</mgrwt>
</event>
<event>
 7    1  0.3960685E-009  0.9180458E+02  0.7818608E-02  0.1298540E+00
         -2   -1    0    0    0  501 -0.00000000000E+00  0.00000000000E+00  0.40822497234E+01  0.40822505198E+01  0.25500000000E-02 0.  1.
          2   -1    0    0  501    0  0.00000000000E+00 -0.00000000000E+00 -0.51614189807E+03  0.51614189807E+03  0.25500000000E-02 0. -1.
         23    2    1    2    0    0 -0.71054273576E-14  0.00000000000E+00 -0.51205964834E+03  0.52022414859E+03  0.91804582226E+02 0.  0.
    9000005    2    3    3    0    0  0.42980391766E+02 -0.30585588375E+01 -0.33453160955E+03  0.33754170988E+03  0.12897257768E+02 0.  0.
         22    1    3    3    0    0 -0.42980391766E+02  0.30585588375E+01 -0.17752803879E+03  0.18268243871E+03  0.00000000000E+00 0.  1.
         22    1    4    4    0    0  0.19115761565E+02  0.42171807189E+01 -0.12375244788E+03  0.12529112223E+03  0.00000000000E+00 0.  1.
         22    1    4    4    0    0  0.23864630200E+02 -0.72757395564E+01 -0.21077916168E+03  0.21225058765E+03  0.00000000000E+00 0.  1.
<mgrwt>
<rscale>  0 0.91804582E+02</rscale>
<asrwt>0</asrwt>
<pdfrwt beam="2">  1        2 0.79406394E-01 0.91804582E+02</pdfrwt>
<pdfrwt beam="1">  1       -2 0.62803889E-03 0.91804582E+02</pdfrwt>
<totfact> 0.21379276E+05</totfact>
</mgrwt>
</event>
<event>
 7    1  0.3960685E-009  0.9104038E+02  0.7818608E-02  0.1300352E+00
          2   -1    0    0  501    0  0.00000000000E+00  0.00000000000E+00  0.12818879326E+03  0.12818879328E+03  0.25500000000E-02 0. -1.
         -2   -1    0    0    0  501 -0.00000000000E+00 -0.00000000000E+00 -0.16164344957E+02  0.16164345158E+02  0.25500000000E-02 0.  1.
         23    2    1    2    0    0  0.00000000000E+00  0.88817841970E-15  0.11202444830E+03  0.14435313844E+03  0.91040384229E+02 0.  0.
    9000005    2    3    3    0    0 -0.42915661805E+02 -0.79438216118E+01  0.39191147314E+02  0.59444080841E+02  0.96329844418E+01 0.  0.
         22    1    3    3    0    0  0.42915661805E+02  0.79438216118E+01  0.72833300986E+02  0.84909057599E+02  0.00000000000E+00 0.  1.
         22    1    4    4    0    0 -0.39878335982E+02 -0.94620098128E+01  0.37862826910E+02  0.55797893975E+02  0.00000000000E+00 0.  1.
         22    1    4    4    0    0 -0.30373258224E+01  0.15181882010E+01  0.13283204046E+01  0.36461868661E+01  0.00000000000E+00 0.  1.
<mgrwt>
<rscale>  0 0.91040384E+02</rscale>
<asrwt>0</asrwt>
<pdfrwt beam="1">  1        2 0.19721353E-01 0.91040384E+02</pdfrwt>
<pdfrwt beam="2">  1       -2 0.24868224E-02 0.91040384E+02</pdfrwt>
<totfact> 0.13321319E+05</totfact>
</mgrwt>
</event>
<event>
 7    1  0.3960685E-009  0.9062272E+02  0.7818608E-02  0.1301351E+00
         -2   -1    0    0    0  501 -0.00000000000E+00  0.00000000000E+00  0.25470805247E+01  0.25470818012E+01  0.25500000000E-02 0.  1.
          2   -1    0    0  501    0  0.00000000000E+00 -0.00000000000E+00 -0.80606756756E+03  0.80606756756E+03  0.25500000000E-02 0. -1.
         23    2    1    2    0    0 -0.88817841970E-15 -0.35527136788E-14 -0.80352048703E+03  0.80861464936E+03  0.90622723876E+02 0.  0.
    9000005    2    3    3    0    0 -0.64295549861E+01 -0.23693712478E+02 -0.74156921675E+03  0.74197613889E+03  0.97788738941E+00 0.  0.
         22    1    3    3    0    0  0.64295549861E+01  0.23693712478E+02 -0.61951270286E+02  0.66638510475E+02  0.00000000000E+00 0.  1.
         22    1    4    4    0    0 -0.30849903688E+01 -0.95414982849E+01 -0.30130152870E+03  0.30146835415E+03  0.00000000000E+00 0. -1.
         22    1    4    4    0    0 -0.33445646173E+01 -0.14152214193E+02 -0.44026768805E+03  0.44050778474E+03  0.00000000000E+00 0. -1.
<mgrwt>
<rscale>  0 0.90622724E+02</rscale>
<asrwt>0</asrwt>
<pdfrwt beam="2">  1        2 0.12401019E+00 0.90622724E+02</pdfrwt>
<pdfrwt beam="1">  1       -2 0.39185928E-03 0.90622724E+02</pdfrwt>
<totfact> 0.24801044E+05</totfact>
</mgrwt>
</event>
<event>
 7    1  0.3960685E-009  0.8713821E+02  0.7818608E-02  0.1309934E+00
         -2   -1    0    0    0  501 -0.00000000000E+00  0.00000000000E+00  0.68864448652E+01  0.68864453373E+01  0.25500000000E-02 0.  1.
          2   -1    0    0  501    0  0.00000000000E+00 -0.00000000000E+00 -0.27565265589E+03  0.27565265591E+03  0.25500000000E-02 0. -1.
         23    2    1    2    0    0  0.00000000000E+00  0.00000000000E+00 -0.26876621103E+03  0.28253910124E+03  0.87138209418E+02 0.  0.
    9000005    2    3    3    0    0  0.24907249115E+02 -0.60866338727E+01 -0.24814563772E+03  0.24963581548E+03  0.91850248281E+01 0.  0.
         22    1    3    3    0    0 -0.24907249115E+02  0.60866338727E+01 -0.20620573310E+02  0.32903285763E+02  0.00000000000E+00 0.  1.
         22    1    4    4    0    0  0.25322634850E+02 -0.47052337590E+01 -0.23761851940E+03  0.23901032576E+03  0.00000000000E+00 0. -1.
         22    1    4    4    0    0 -0.41538573507E+00 -0.13814001137E+01 -0.10527118320E+02  0.10625489716E+02  0.00000000000E+00 0. -1.
<mgrwt>
<rscale>  0 0.87138209E+02</rscale>
<asrwt>0</asrwt>
<pdfrwt beam="2">  1        2 0.42408092E-01 0.87138209E+02</pdfrwt>
<pdfrwt beam="1">  1       -2 0.10594533E-02 0.87138209E+02</pdfrwt>
<totfact> 0.19641096E+05</totfact>
</mgrwt>
</event>
<event>
 7    1  0.3960685E-009  0.9167180E+02  0.7818608E-02  0.1298853E+00
          2   -1    0    0  501    0  0.00000000000E+00  0.00000000000E+00  0.15273670761E+04  0.15273670761E+04  0.25500000000E-02 0. -1.
         -2   -1    0    0    0  501 -0.00000000000E+00 -0.00000000000E+00 -0.13755226275E+01  0.13755249912E+01  0.25500000000E-02 0.  1.
         23    2    1    2    0    0  0.88817841970E-15  0.00000000000E+00  0.15259915535E+04  0.15287426011E+04  0.91671801161E+02 0.  0.
    9000005    2    3    3    0    0 -0.42695878745E+01 -0.18943998443E+02  0.14534519980E+04  0.14536487161E+04  0.13956175203E+02 0.  0.
         22    1    3    3    0    0  0.42695878745E+01  0.18943998443E+02  0.72539555484E+02  0.75093885020E+02  0.00000000000E+00 0.  1.
         22    1    4    4    0    0 -0.64886509985E+01 -0.13738856393E+02  0.65310324349E+03  0.65327995945E+03  0.00000000000E+00 0.  1.
         22    1    4    4    0    0  0.22190631239E+01 -0.52051420500E+01  0.80034875448E+03  0.80036875660E+03  0.00000000000E+00 0.  1.
<mgrwt>
<rscale>  0 0.91671801E+02</rscale>
<asrwt>0</asrwt>
<pdfrwt beam="1">  1        2 0.23497961E+00 0.91671801E+02</pdfrwt>
<pdfrwt beam="2">  1       -2 0.21161899E-03 0.91671801E+02</pdfrwt>
<totfact> 0.23098118E+05</totfact>
</mgrwt>
</event>
<event>
 7    1  0.3960685E-009  0.9077892E+02  0.7818608E-02  0.1300976E+00
         -2   -1    0    0    0  501 -0.00000000000E+00  0.00000000000E+00  0.12464258627E+02  0.12464258888E+02  0.25500000000E-02 0. -1.
          2   -1    0    0  501    0  0.00000000000E+00 -0.00000000000E+00 -0.16528886845E+03  0.16528886847E+03  0.25500000000E-02 0.  1.
         23    2    1    2    0    0  0.35527136788E-14  0.17763568394E-14 -0.15282460983E+03  0.17775312736E+03  0.90778923314E+02 0.  0.
    9000005    2    3    3    0    0  0.30615203059E+02  0.11010438931E+02 -0.18666408961E+02  0.39706239373E+02  0.13024215824E+02 0.  0.
         22    1    3    3    0    0 -0.30615203059E+02 -0.11010438931E+02 -0.13415820087E+03  0.13804688799E+03  0.00000000000E+00 0.  1.
         22    1    4    4    0    0  0.30674049888E+02  0.11413894892E+02 -0.19970079700E+02  0.38340297552E+02  0.00000000000E+00 0. -1.
         22    1    4    4    0    0 -0.58846828414E-01 -0.40345596179E+00  0.13036707392E+01  0.13659418211E+01  0.00000000000E+00 0. -1.
<mgrwt>
<rscale>  0 0.90778923E+02</rscale>
<asrwt>0</asrwt>
<pdfrwt beam="2">  1        2 0.25429055E-01 0.90778923E+02</pdfrwt>
<pdfrwt beam="1">  1       -2 0.19175784E-02 0.90778923E+02</pdfrwt>
<totfact> 0.14627552E+05</totfact>
</mgrwt>
</event>
<event>
 7    1  0.3960685E-009  0.9334043E+02  0.7818608E-02  0.1294958E+00
         -2   -1    0    0    0  501 -0.00000000000E+00  0.00000000000E+00  0.23384714642E+02  0.23384714781E+02  0.25500000000E-02 0.  1.
          2   -1    0    0  501    0  0.00000000000E+00 -0.00000000000E+00 -0.93142420718E+02  0.93142420753E+02  0.25500000000E-02 0. -1.
         23    2    1    2    0    0  0.44408920985E-15  0.00000000000E+00 -0.69757706076E+02  0.11652713553E+03  0.93340429389E+02 0.  0.
    9000005    2    3    3    0    0 -0.35100459460E+01  0.16720887849E+02 -0.88970186907E+02  0.90816672047E+02  0.63297117240E+01 0.  0.
         22    1    3    3    0    0  0.35100459460E+01 -0.16720887849E+02  0.19212480831E+02  0.25710463486E+02  0.00000000000E+00 0.  1.
         22    1    4    4    0    0 -0.42377996598E+00  0.13038921662E+02 -0.56078575120E+02  0.57576033686E+02  0.00000000000E+00 0.  1.
         22    1    4    4    0    0 -0.30862659800E+01  0.36819661865E+01 -0.32891611787E+02  0.33240638361E+02  0.00000000000E+00 0.  1.
<mgrwt>
<rscale>  0 0.93340429E+02</rscale>
<asrwt>0</asrwt>
<pdfrwt beam="2">  1        2 0.14329603E-01 0.93340429E+02</pdfrwt>
<pdfrwt beam="1">  1       -2 0.35976485E-02 0.93340429E+02</pdfrwt>
<totfact> 0.11252857E+05</totfact>
</mgrwt>
</event>
<event>
 7    1  0.5999742E-009  0.9037315E+02  0.7818608E-02  0.1301951E+00
          2   -1    0    0  501    0  0.00000000000E+00  0.00000000000E+00  0.26100203543E+02  0.26100203667E+02  0.25500000000E-02 0.  1.
         -2   -1    0    0    0  501 -0.00000000000E+00 -0.00000000000E+00 -0.78230300507E+02  0.78230300549E+02  0.25500000000E-02 0. -1.
         23    2    1    2    0    0  0.00000000000E+00 -0.35527136788E-14 -0.52130096965E+02  0.10433050422E+03  0.90373154755E+02 0.  0.
    9000005    2    3    3    0    0  0.26549890785E+01  0.24780157448E+02 -0.68514816308E+02  0.74504941386E+02  0.15349301843E+02 0.  0.
         22    1    3    3    0    0 -0.26549890785E+01 -0.24780157448E+02  0.16384719343E+02  0.29825562830E+02  0.00000000000E+00 0.  1.
         22    1    4    4    0    0 -0.97617508249E+00  0.11816608923E+02 -0.13970320471E+02  0.18323619137E+02  0.00000000000E+00 0.  1.
         22    1    4    4    0    0  0.36311641610E+01  0.12963548526E+02 -0.54544495837E+02  0.56181322249E+02  0.00000000000E+00 0.  1.
<mgrwt>
<rscale>  0 0.90373155E+02</rscale>
<asrwt>0</asrwt>
<pdfrwt beam="1">  1        2 0.40154160E-02 0.90373155E+02</pdfrwt>
<pdfrwt beam="2">  1       -2 0.12035431E-01 0.90373155E+02</pdfrwt>
<totfact> 0.87483151E+04</totfact>
</mgrwt>
</event>
<event>
 7    1  0.3960685E-009  0.8954834E+02  0.7818608E-02  0.1303949E+00
          2   -1    0    0  501    0  0.00000000000E+00  0.00000000000E+00  0.38099661024E+03  0.38099661025E+03  0.25500000000E-02 0. -1.
         -2   -1    0    0    0  501 -0.00000000000E+00 -0.00000000000E+00 -0.52617958294E+01  0.52617964473E+01  0.25500000000E-02 0.  1.
         23    2    1    2    0    0  0.00000000000E+00  0.00000000000E+00  0.37573481441E+03  0.38625840670E+03  0.89548344391E+02 0.  0.
    9000005    2    3    3    0    0  0.20810512898E+02 -0.21265296636E+02  0.33052701719E+03  0.33213784482E+03  0.13496243271E+02 0.  0.
         22    1    3    3    0    0 -0.20810512898E+02  0.21265296636E+02  0.45207797226E+02  0.54120561879E+02  0.00000000000E+00 0.  1.
         22    1    4    4    0    0  0.37689728450E+01 -0.13249536621E+02  0.14998936374E+03  0.15062059824E+03  0.00000000000E+00 0.  1.
         22    1    4    4    0    0  0.17041540053E+02 -0.80157600150E+01  0.18053765345E+03  0.18151724658E+03  0.00000000000E+00 0.  1.
<mgrwt>
<rscale>  0 0.89548344E+02</rscale>
<asrwt>0</asrwt>
<pdfrwt beam="1">  1        2 0.58614878E-01 0.89548344E+02</pdfrwt>
<pdfrwt beam="2">  1       -2 0.80950689E-03 0.89548344E+02</pdfrwt>
<totfact> 0.20576587E+05</totfact>
</mgrwt>
</event>
<event>
 7    1  0.3960685E-009  0.9372922E+02  0.7818608E-02  0.1294064E+00
          2   -1    0    0  501    0  0.00000000000E+00  0.00000000000E+00  0.34108762570E+02  0.34108762665E+02  0.25500000000E-02 0. -1.
         -2   -1    0    0    0  501 -0.00000000000E+00 -0.00000000000E+00 -0.64390830922E+02  0.64390830972E+02  0.25500000000E-02 0.  1.
         23    2    1    2    0    0  0.00000000000E+00  0.00000000000E+00 -0.30282068352E+02  0.98499593638E+02  0.93729217873E+02 0.  0.
    9000005    2    3    3    0    0  0.21654295471E+02 -0.38792424027E+02  0.38231923439E+00  0.44517510126E+02  0.28110257107E+01 0.  0.
         22    1    3    3    0    0 -0.21654295471E+02  0.38792424027E+02 -0.30664387586E+02  0.53982083512E+02  0.00000000000E+00 0.  1.
         22    1    4    4    0    0  0.19600077940E+02 -0.36192394343E+02  0.87089755135E+00  0.41168081399E+02  0.00000000000E+00 0. -1.
         22    1    4    4    0    0  0.20542175312E+01 -0.26000296846E+01 -0.48857831697E+00  0.33494287271E+01  0.00000000000E+00 0. -1.
<mgrwt>
<rscale>  0 0.93729218E+02</rscale>
<asrwt>0</asrwt>
<pdfrwt beam="1">  1        2 0.52475019E-02 0.93729218E+02</pdfrwt>
<pdfrwt beam="2">  1       -2 0.99062817E-02 0.93729218E+02</pdfrwt>
<totfact> 0.84367477E+04</totfact>
</mgrwt>
</event>
<event>
 7    1  0.5853214E-009  0.9142486E+02  0.7818608E-02  0.1299437E+00
         -2   -1    0    0    0  501 -0.00000000000E+00  0.00000000000E+00  0.12105262949E+01  0.12105289807E+01  0.25500000000E-02 0.  1.
          2   -1    0    0  501    0  0.00000000000E+00 -0.00000000000E+00 -0.17262110603E+04  0.17262110603E+04  0.25500000000E-02 0. -1.
         23    2    1    2    0    0 -0.44408920985E-15  0.00000000000E+00 -0.17250005340E+04  0.17274215893E+04  0.91424858772E+02 0.  0.
    9000005    2    3    3    0    0  0.11914705661E+01 -0.15973272874E+02 -0.16697156444E+04  0.16698630619E+04  0.15354071532E+02 0.  0.
         22    1    3    3    0    0 -0.11914705661E+01  0.15973272874E+02 -0.55284889628E+02  0.57558527340E+02  0.00000000000E+00 0.  1.
         22    1    4    4    0    0  0.47672773888E+01  0.34926006667E+00 -0.22487930195E+03  0.22493009883E+03  0.00000000000E+00 0.  1.
         22    1    4    4    0    0 -0.35758068227E+01 -0.16322532941E+02 -0.14448363424E+04  0.14449329631E+04  0.00000000000E+00 0.  1.
<mgrwt>
<rscale>  0 0.91424859E+02</rscale>
<asrwt>0</asrwt>
<pdfrwt beam="2">  1        2 0.26556896E+00 0.91424859E+02</pdfrwt>
<pdfrwt beam="1">  1       -2 0.18623640E-03 0.91424859E+02</pdfrwt>
<totfact> 0.21869347E+05</totfact>
</mgrwt>
</event>
<event>
 7    1  0.3960685E-009  0.9296759E+02  0.7818608E-02  0.1295820E+00
          2   -1    0    0  501    0  0.00000000000E+00  0.00000000000E+00  0.39189229285E+02  0.39189229368E+02  0.25500000000E-02 0. -1.
         -2   -1    0    0    0  501 -0.00000000000E+00 -0.00000000000E+00 -0.55136143953E+02  0.55136144012E+02  0.25500000000E-02 0.  1.
         23    2    1    2    0    0  0.71054273576E-14  0.00000000000E+00 -0.15946914669E+02  0.94325373380E+02  0.92967585619E+02 0.  0.
    9000005    2    3    3    0    0 -0.45348932741E+02 -0.34448825540E+01 -0.87360189998E+01  0.48277681441E+02  0.13639046184E+02 0.  0.
         22    1    3    3    0    0  0.45348932741E+02  0.34448825540E+01 -0.72108956687E+01  0.46047691939E+02  0.00000000000E+00 0. -1.
         22    1    4    4    0    0 -0.43879974242E+02 -0.61093388206E+01 -0.90527737472E+01  0.45218678362E+02  0.00000000000E+00 0. -1.
         22    1    4    4    0    0 -0.14689584992E+01  0.26644562665E+01  0.31675474737E+00  0.30590030792E+01  0.00000000000E+00 0. -1.
<mgrwt>
<rscale>  0 0.92967586E+02</rscale>
<asrwt>0</asrwt>
<pdfrwt beam="1">  1        2 0.60291122E-02 0.92967586E+02</pdfrwt>
<pdfrwt beam="2">  1       -2 0.84824837E-02 0.92967586E+02</pdfrwt>
<totfact> 0.89662758E+04</totfact>
</mgrwt>
</event>
<event>
 7    1  0.3960685E-009  0.8746244E+02  0.7818608E-02  0.1309116E+00
          2   -1    0    0  501    0  0.00000000000E+00  0.00000000000E+00  0.57892260054E+03  0.57892260055E+03  0.25500000000E-02 0.  1.
         -2   -1    0    0    0  501 -0.00000000000E+00 -0.00000000000E+00 -0.33034108491E+01  0.33034118333E+01  0.25500000000E-02 0. -1.
         23    2    1    2    0    0  0.35527136788E-14  0.00000000000E+00  0.57561918969E+03  0.58222601238E+03  0.87462437368E+02 0.  0.
    9000005    2    3    3    0    0  0.29951968803E+02  0.20498228696E+02  0.45009746453E+03  0.45156231696E+03  0.18710160888E+01 0.  0.
         22    1    3    3    0    0 -0.29951968803E+02 -0.20498228696E+02  0.12552172516E+03  0.13066369543E+03  0.00000000000E+00 0. -1.
         22    1    4    4    0    0  0.21473498559E+02  0.15396887159E+02  0.33477410903E+03  0.33581524586E+03  0.00000000000E+00 0.  1.
         22    1    4    4    0    0  0.84784702445E+01  0.51013415378E+01  0.11532335550E+03  0.11574707110E+03  0.00000000000E+00 0.  1.
<mgrwt>
<rscale>  0 0.87462437E+02</rscale>
<asrwt>0</asrwt>
<pdfrwt beam="1">  1        2 0.89065021E-01 0.87462437E+02</pdfrwt>
<pdfrwt beam="2">  1       -2 0.50821710E-03 0.87462437E+02</pdfrwt>
<totfact> 0.25164112E+05</totfact>
</mgrwt>
</event>
<event>
 7    1  0.3960685E-009  0.9068233E+02  0.7818608E-02  0.1301208E+00
          2   -1    0    0  501    0  0.00000000000E+00  0.00000000000E+00  0.32544518527E+02  0.32544518627E+02  0.25500000000E-02 0. -1.
         -2   -1    0    0    0  501 -0.00000000000E+00 -0.00000000000E+00 -0.63169501429E+02  0.63169501480E+02  0.25500000000E-02 0.  1.
         23    2    1    2    0    0  0.00000000000E+00  0.35527136788E-14 -0.30624982902E+02  0.95714020108E+02  0.90682325000E+02 0.  0.
    9000005    2    3    3    0    0  0.24661244854E+02  0.21275775743E+02  0.16490886868E+02  0.38436268621E+02  0.12023384075E+02 0.  0.
         22    1    3    3    0    0 -0.24661244854E+02 -0.21275775743E+02 -0.47115869770E+02  0.57277751487E+02  0.00000000000E+00 0. -1.
         22    1    4    4    0    0  0.28682563783E+01  0.91666092453E+01  0.28578354949E+01  0.10021020079E+02  0.00000000000E+00 0. -1.
         22    1    4    4    0    0  0.21792988476E+02  0.12109166498E+02  0.13633051373E+02  0.28415248542E+02  0.00000000000E+00 0. -1.
<mgrwt>
<rscale>  0 0.90682325E+02</rscale>
<asrwt>0</asrwt>
<pdfrwt beam="1">  1        2 0.50068490E-02 0.90682325E+02</pdfrwt>
<pdfrwt beam="2">  1       -2 0.97183848E-02 0.90682325E+02</pdfrwt>
<totfact> 0.91855044E+04</totfact>
</mgrwt>
</event>
<event>
 7    1  0.3960685E-009  0.8996964E+02  0.7818608E-02  0.1302925E+00
         -2   -1    0    0    0  501 -0.00000000000E+00  0.00000000000E+00  0.70620646181E+01  0.70620650785E+01  0.25500000000E-02 0. -1.
          2   -1    0    0  501    0  0.00000000000E+00 -0.00000000000E+00 -0.28654992131E+03  0.28654992132E+03  0.25500000000E-02 0.  1.
         23    2    1    2    0    0 -0.17763568394E-14  0.00000000000E+00 -0.27948785669E+03  0.29361198640E+03  0.89969642210E+02 0.  0.
    9000005    2    3    3    0    0  0.15914319675E+02 -0.35401490056E+02 -0.21353670595E+03  0.21708692284E+03  0.47197680789E+01 0.  0.
         22    1    3    3    0    0 -0.15914319675E+02  0.35401490056E+02 -0.65951150743E+02  0.76525063562E+02  0.00000000000E+00 0. -1.
         22    1    4    4    0    0  0.44709200452E+01 -0.14666132132E+02 -0.90962119080E+02  0.92245279908E+02  0.00000000000E+00 0. -1.
         22    1    4    4    0    0  0.11443399629E+02 -0.20735357924E+02 -0.12257458687E+03  0.12484164293E+03  0.00000000000E+00 0. -1.
<mgrwt>
<rscale>  0 0.89969642E+02</rscale>
<asrwt>0</asrwt>
<pdfrwt beam="2">  1        2 0.44084594E-01 0.89969642E+02</pdfrwt>
<pdfrwt beam="1">  1       -2 0.10864717E-02 0.89969642E+02</pdfrwt>
<totfact> 0.18300591E+05</totfact>
</mgrwt>
</event>
<event>
 7    1  0.3960685E-009  0.9017311E+02  0.7818608E-02  0.1302433E+00
         -2   -1    0    0    0  501 -0.00000000000E+00  0.00000000000E+00  0.40284889751E+02  0.40284889832E+02  0.25500000000E-02 0.  1.
          2   -1    0    0  501    0  0.00000000000E+00 -0.00000000000E+00 -0.50460539738E+02  0.50460539802E+02  0.25500000000E-02 0. -1.
         23    2    1    2    0    0  0.00000000000E+00  0.00000000000E+00 -0.10175649986E+02  0.90745429634E+02  0.90173106561E+02 0.  0.
    9000005    2    3    3    0    0 -0.22443156324E+02 -0.13951629790E+02  0.30544235565E+02  0.42202126090E+02  0.12236252722E+02 0.  0.
         22    1    3    3    0    0  0.22443156324E+02  0.13951629790E+02 -0.40719885552E+02  0.48543303544E+02  0.00000000000E+00 0. -1.
         22    1    4    4    0    0 -0.48135942840E+01  0.20798321147E+01  0.45983982267E+01  0.69743571609E+01  0.00000000000E+00 0. -1.
         22    1    4    4    0    0 -0.17629562040E+02 -0.16031461905E+02  0.25945837339E+02  0.35227768930E+02  0.00000000000E+00 0. -1.
<mgrwt>
<rscale>  0 0.90173107E+02</rscale>
<asrwt>0</asrwt>
<pdfrwt beam="2">  1        2 0.77631599E-02 0.90173107E+02</pdfrwt>
<pdfrwt beam="1">  1       -2 0.61976754E-02 0.90173107E+02</pdfrwt>
<totfact> 0.10456216E+05</totfact>
</mgrwt>
</event>
<event>
 7    1  0.3960685E-009  0.9017769E+02  0.7818608E-02  0.1302422E+00
          2   -1    0    0  501    0  0.00000000000E+00  0.00000000000E+00  0.25754117160E+03  0.25754117161E+03  0.25500000000E-02 0. -1.
         -2   -1    0    0    0  501 -0.00000000000E+00 -0.00000000000E+00 -0.78938985575E+01  0.78938989694E+01  0.25500000000E-02 0.  1.
         23    2    1    2    0    0 -0.71054273576E-14  0.00000000000E+00  0.24964727304E+03  0.26543507058E+03  0.90177689908E+02 0.  0.
    9000005    2    3    3    0    0 -0.34904419550E+02  0.15893002026E+02  0.61273886528E+02  0.73197096278E+02  0.11507376578E+02 0.  0.
         22    1    3    3    0    0  0.34904419550E+02 -0.15893002026E+02  0.18837338651E+03  0.19223797430E+03  0.00000000000E+00 0. -1.
         22    1    4    4    0    0 -0.91259695501E+01 -0.92566569630E+00  0.12088789819E+02  0.15174947002E+02  0.00000000000E+00 0. -1.
         22    1    4    4    0    0 -0.25778450000E+02  0.16818667723E+02  0.49185096709E+02  0.58022149276E+02  0.00000000000E+00 0. -1.
<mgrwt>
<rscale>  0 0.90177690E+02</rscale>
<asrwt>0</asrwt>
<pdfrwt beam="1">  1        2 0.39621722E-01 0.90177690E+02</pdfrwt>
<pdfrwt beam="2">  1       -2 0.12144459E-02 0.90177690E+02</pdfrwt>
<totfact> 0.17479355E+05</totfact>
</mgrwt>
</event>
<event>
 7    1  0.3960685E-009  0.8846268E+02  0.7818608E-02  0.1306618E+00
         -2   -1    0    0    0  501 -0.00000000000E+00  0.00000000000E+00  0.12003328292E+02  0.12003328562E+02  0.25500000000E-02 0.  1.
          2   -1    0    0  501    0  0.00000000000E+00 -0.00000000000E+00 -0.16298907893E+03  0.16298907895E+03  0.25500000000E-02 0. -1.
         23    2    1    2    0    0  0.00000000000E+00  0.22204460493E-15 -0.15098575064E+03  0.17499240751E+03  0.88462680216E+02 0.  0.
    9000005    2    3    3    0    0 -0.39205063632E+02  0.16730973213E+01 -0.11559327723E+03  0.12214864304E+03  0.43184474018E+01 0.  0.
         22    1    3    3    0    0  0.39205063632E+02 -0.16730973213E+01 -0.35392473408E+02  0.52843764466E+02  0.00000000000E+00 0.  1.
         22    1    4    4    0    0 -0.28782745461E+02 -0.35525708232E+00 -0.81005807291E+02  0.85968095586E+02  0.00000000000E+00 0. -1.
         22    1    4    4    0    0 -0.10422318172E+02  0.20283544036E+01 -0.34587469937E+02  0.36180547457E+02  0.00000000000E+00 0. -1.
<mgrwt>
<rscale>  0 0.88462680E+02</rscale>
<asrwt>0</asrwt>
<pdfrwt beam="2">  1        2 0.25075241E-01 0.88462680E+02</pdfrwt>
<pdfrwt beam="1">  1       -2 0.18466660E-02 0.88462680E+02</pdfrwt>
<totfact> 0.15608453E+05</totfact>
</mgrwt>
</event>
<event>
 7    1  0.3960685E-009  0.9216565E+02  0.7818608E-02  0.1297690E+00
         -2   -1    0    0    0  501 -0.00000000000E+00  0.00000000000E+00  0.33856257175E+02  0.33856257271E+02  0.25500000000E-02 0.  1.
          2   -1    0    0  501    0  0.00000000000E+00 -0.00000000000E+00 -0.62724789740E+02  0.62724789792E+02  0.25500000000E-02 0. -1.
         23    2    1    2    0    0  0.00000000000E+00  0.00000000000E+00 -0.28868532565E+02  0.96581047064E+02  0.92165646959E+02 0.  0.
    9000005    2    3    3    0    0 -0.38479384138E+02  0.11382814032E+02  0.60927517479E+01  0.43359595939E+02  0.15254555950E+02 0.  0.
         22    1    3    3    0    0  0.38479384138E+02 -0.11382814032E+02 -0.34961284313E+02  0.53221451124E+02  0.00000000000E+00 0. -1.
         22    1    4    4    0    0 -0.11523555610E+01  0.17247538184E+01  0.42853700019E+01  0.47609972828E+01  0.00000000000E+00 0.  1.
         22    1    4    4    0    0 -0.37327028577E+02  0.96580602137E+01  0.18073817460E+01  0.38598598657E+02  0.00000000000E+00 0.  1.
<mgrwt>
<rscale>  0 0.92165647E+02</rscale>
<asrwt>0</asrwt>
<pdfrwt beam="2">  1        2 0.96499676E-02 0.92165647E+02</pdfrwt>
<pdfrwt beam="1">  1       -2 0.52086550E-02 0.92165647E+02</pdfrwt>
<totfact> 0.10413103E+05</totfact>
</mgrwt>
</event>
<event>
 7    1  0.3960685E-009  0.9126691E+02  0.7818608E-02  0.1299812E+00
          2   -1    0    0  501    0  0.00000000000E+00  0.00000000000E+00  0.54393378244E+03  0.54393378245E+03  0.25500000000E-02 0. -1.
         -2   -1    0    0    0  501 -0.00000000000E+00 -0.00000000000E+00 -0.38284290439E+01  0.38284298931E+01  0.25500000000E-02 0.  1.
         23    2    1    2    0    0  0.00000000000E+00  0.00000000000E+00  0.54010535340E+03  0.54776221234E+03  0.91266908020E+02 0.  0.
    9000005    2    3    3    0    0  0.49625577783E+01  0.38977211766E+02  0.40252157431E+03  0.40467780968E+03  0.14023617419E+02 0.  0.
         22    1    3    3    0    0 -0.49625577783E+01 -0.38977211766E+02  0.13758377909E+03  0.14308440266E+03  0.00000000000E+00 0. -1.
         22    1    4    4    0    0  0.42971704890E+01  0.12512103611E+02  0.19938936277E+03  0.19982776683E+03  0.00000000000E+00 0. -1.
         22    1    4    4    0    0  0.66538728923E+00  0.26465108155E+02  0.20313221154E+03  0.20485004285E+03  0.00000000000E+00 0. -1.
<mgrwt>
<rscale>  0 0.91266908E+02</rscale>
<asrwt>0</asrwt>
<pdfrwt beam="1">  1        2 0.83682084E-01 0.91266908E+02</pdfrwt>
<pdfrwt beam="2">  1       -2 0.58898941E-03 0.91266908E+02</pdfrwt>
<totfact> 0.22074266E+05</totfact>
</mgrwt>
</event>
<event>
 7    1  0.3960685E-009  0.9336841E+02  0.7818608E-02  0.1294894E+00
          2   -1    0    0  501    0  0.00000000000E+00  0.00000000000E+00  0.83048146248E+03  0.83048146248E+03  0.25500000000E-02 0. -1.
         -2   -1    0    0    0  501 -0.00000000000E+00 -0.00000000000E+00 -0.26242780825E+01  0.26242793214E+01  0.25500000000E-02 0.  1.
         23    2    1    2    0    0  0.35527136788E-14  0.00000000000E+00  0.82785718440E+03  0.83310574180E+03  0.93368406169E+02 0.  0.
    9000005    2    3    3    0    0 -0.20662684666E+02  0.97103317437E+01  0.77696375973E+03  0.77732601651E+03  0.64664458039E+01 0.  0.
         22    1    3    3    0    0  0.20662684666E+02 -0.97103317437E+01  0.50893424665E+02  0.55779725298E+02  0.00000000000E+00 0.  1.
         22    1    4    4    0    0 -0.15711779443E+02  0.65558016253E+01  0.65480810484E+03  0.65502938309E+03  0.00000000000E+00 0. -1.
         22    1    4    4    0    0 -0.49509052229E+01  0.31545301183E+01  0.12215565489E+03  0.12229663341E+03  0.00000000000E+00 0. -1.
<mgrwt>
<rscale>  0 0.93368406E+02</rscale>
<asrwt>0</asrwt>
<pdfrwt beam="1">  1        2 0.12776622E+00 0.93368406E+02</pdfrwt>
<pdfrwt beam="2">  1       -2 0.40373567E-03 0.93368406E+02</pdfrwt>
<totfact> 0.23036344E+05</totfact>
</mgrwt>
</event>
<event>
 7    1  0.3960685E-009  0.9135889E+02  0.7818608E-02  0.1299594E+00
          2   -1    0    0  501    0  0.00000000000E+00  0.00000000000E+00  0.36503770461E+02  0.36503770550E+02  0.25500000000E-02 0. -1.
         -2   -1    0    0    0  501 -0.00000000000E+00 -0.00000000000E+00 -0.57161541579E+02  0.57161541636E+02  0.25500000000E-02 0.  1.
         23    2    1    2    0    0  0.00000000000E+00 -0.17763568394E-14 -0.20657771118E+02  0.93665312186E+02  0.91358892284E+02 0.  0.
    9000005    2    3    3    0    0  0.31848596504E+02  0.11541027118E+02  0.19864520899E+02  0.40848794348E+02  0.11247061969E+02 0.  0.
         22    1    3    3    0    0 -0.31848596504E+02 -0.11541027118E+02 -0.40522292017E+02  0.52816517838E+02  0.00000000000E+00 0.  1.
         22    1    4    4    0    0  0.17607067908E+02  0.10485878854E+02  0.70795833119E+01  0.21681397453E+02  0.00000000000E+00 0.  1.
         22    1    4    4    0    0  0.14241528596E+02  0.10551482639E+01  0.12784937587E+02  0.19167396895E+02  0.00000000000E+00 0.  1.
<mgrwt>
<rscale>  0 0.91358892E+02</rscale>
<asrwt>0</asrwt>
<pdfrwt beam="1">  1        2 0.56159647E-02 0.91358892E+02</pdfrwt>
<pdfrwt beam="2">  1       -2 0.87940833E-02 0.91358892E+02</pdfrwt>
<totfact> 0.92612080E+04</totfact>
</mgrwt>
</event>
<event>
 7    1  0.3960685E-009  0.9029429E+02  0.7818608E-02  0.1302141E+00
          2   -1    0    0  501    0  0.00000000000E+00  0.00000000000E+00  0.41852513294E+03  0.41852513295E+03  0.25500000000E-02 0. -1.
         -2   -1    0    0    0  501 -0.00000000000E+00 -0.00000000000E+00 -0.48701129778E+01  0.48701136454E+01  0.25500000000E-02 0.  1.
         23    2    1    2    0    0  0.00000000000E+00  0.00000000000E+00  0.41365501996E+03  0.42339524660E+03  0.90294292720E+02 0.  0.
    9000005    2    3    3    0    0 -0.43774412990E+02 -0.36748967585E+01  0.23428031417E+03  0.23871988501E+03  0.13046600764E+02 0.  0.
         22    1    3    3    0    0  0.43774412990E+02  0.36748967585E+01  0.17937470579E+03  0.18467536158E+03  0.00000000000E+00 0. -1.
         22    1    4    4    0    0 -0.32263128830E+02 -0.69470278438E+01  0.14952030231E+03  0.15311920676E+03  0.00000000000E+00 0.  1.
         22    1    4    4    0    0 -0.11511284160E+02  0.32721310853E+01  0.84760011868E+02  0.85600678249E+02  0.00000000000E+00 0.  1.
<mgrwt>
<rscale>  0 0.90294293E+02</rscale>
<asrwt>0</asrwt>
<pdfrwt beam="1">  1        2 0.64388457E-01 0.90294293E+02</pdfrwt>
<pdfrwt beam="2">  1       -2 0.74924849E-03 0.90294293E+02</pdfrwt>
<totfact> 0.20815782E+05</totfact>
</mgrwt>
</event>
<event>
 7    1  0.3960685E-009  0.9001064E+02  0.7818608E-02  0.1302826E+00
         -2   -1    0    0    0  501 -0.00000000000E+00  0.00000000000E+00  0.34664269582E+02  0.34664269676E+02  0.25500000000E-02 0.  1.
          2   -1    0    0  501    0  0.00000000000E+00 -0.00000000000E+00 -0.58431317959E+02  0.58431318014E+02  0.25500000000E-02 0. -1.
         23    2    1    2    0    0  0.00000000000E+00  0.00000000000E+00 -0.23767048376E+02  0.93095587690E+02  0.90010643031E+02 0.  0.
    9000005    2    3    3    0    0  0.41621416351E+02  0.55391537150E+01  0.31787228427E+01  0.43204715684E+02  0.96705044049E+01 0.  0.
         22    1    3    3    0    0 -0.41621416351E+02 -0.55391537150E+01 -0.26945771219E+02  0.49890872006E+02  0.00000000000E+00 0. -1.
         22    1    4    4    0    0  0.13234202847E+02  0.36978144293E+01  0.51859016918E+01  0.14687121328E+02  0.00000000000E+00 0. -1.
         22    1    4    4    0    0  0.28387213505E+02  0.18413392858E+01 -0.20071788492E+01  0.28517594356E+02  0.00000000000E+00 0. -1.
<mgrwt>
<rscale>  0 0.90010643E+02</rscale>
<asrwt>0</asrwt>
<pdfrwt beam="2">  1        2 0.89894335E-02 0.90010643E+02</pdfrwt>
<pdfrwt beam="1">  1       -2 0.53329646E-02 0.90010643E+02</pdfrwt>
<totfact> 0.10921265E+05</totfact>
</mgrwt>
</event>
<event>
 7    1  0.3960685E-009  0.9076281E+02  0.7818608E-02  0.1301015E+00
         -2   -1    0    0    0  501 -0.00000000000E+00  0.00000000000E+00  0.88986973262E+02  0.88986973298E+02  0.25500000000E-02 0.  1.
          2   -1    0    0  501    0  0.00000000000E+00 -0.00000000000E+00 -0.23143520724E+02  0.23143520865E+02  0.25500000000E-02 0. -1.
         23    2    1    2    0    0  0.00000000000E+00  0.35527136788E-14  0.65843452537E+02  0.11213049416E+03  0.90762808899E+02 0.  0.
    9000005    2    3    3    0    0 -0.36183823414E+02 -0.18644533135E+02  0.12497631855E+02  0.45028599429E+02  0.14645691238E+02 0.  0.
         22    1    3    3    0    0  0.36183823414E+02  0.18644533135E+02  0.53345820682E+02  0.67101894734E+02  0.00000000000E+00 0.  1.
         22    1    4    4    0    0 -0.34580502024E+02 -0.19529941818E+02  0.14533507420E+02  0.42290100326E+02  0.00000000000E+00 0. -1.
         22    1    4    4    0    0 -0.16033213903E+01  0.88540868308E+00 -0.20358755656E+01  0.27384991027E+01  0.00000000000E+00 0. -1.
<mgrwt>
<rscale>  0 0.90762809E+02</rscale>
<asrwt>0</asrwt>
<pdfrwt beam="2">  1        2 0.35605417E-02 0.90762809E+02</pdfrwt>
<pdfrwt beam="1">  1       -2 0.13690304E-01 0.90762809E+02</pdfrwt>
<totfact> 0.83506016E+04</totfact>
</mgrwt>
</event>
<event>
 7    1  0.3960685E-009  0.9169127E+02  0.7818608E-02  0.1298807E+00
          2   -1    0    0  501    0  0.00000000000E+00  0.00000000000E+00  0.86549620448E+03  0.86549620449E+03  0.25500000000E-02 0.  1.
         -2   -1    0    0    0  501 -0.00000000000E+00 -0.00000000000E+00 -0.24284586789E+01  0.24284600177E+01  0.25500000000E-02 0. -1.
         23    2    1    2    0    0  0.00000000000E+00  0.00000000000E+00  0.86306774580E+03  0.86792466450E+03  0.91691272256E+02 0.  0.
    9000005    2    3    3    0    0 -0.36430550050E+01  0.36052186107E+02  0.69512509509E+03  0.69611731337E+03  0.82087870939E+01 0.  0.
         22    1    3    3    0    0  0.36430550050E+01 -0.36052186107E+02  0.16794265072E+03  0.17180735113E+03  0.00000000000E+00 0. -1.
         22    1    4    4    0    0  0.94421660733E+00  0.25288340101E+02  0.44550816760E+03  0.44622630927E+03  0.00000000000E+00 0. -1.
         22    1    4    4    0    0 -0.45872716123E+01  0.10763846006E+02  0.24961692749E+03  0.24989100410E+03  0.00000000000E+00 0. -1.
<mgrwt>
<rscale>  0 0.91691272E+02</rscale>
<asrwt>0</asrwt>
<pdfrwt beam="1">  1        2 0.13315344E+00 0.91691272E+02</pdfrwt>
<pdfrwt beam="2">  1       -2 0.37360863E-03 0.91691272E+02</pdfrwt>
<totfact> 0.24311346E+05</totfact>
</mgrwt>
</event>
<event>
 7    1  0.3960685E-009  0.8898977E+02  0.7818608E-02  0.1305317E+00
         -2   -1    0    0    0  501 -0.00000000000E+00  0.00000000000E+00  0.72097936975E+01  0.72097941484E+01  0.25500000000E-02 0.  1.
          2   -1    0    0  501    0  0.00000000000E+00 -0.00000000000E+00 -0.27459796086E+03  0.27459796087E+03  0.25500000000E-02 0. -1.
         23    2    1    2    0    0  0.00000000000E+00  0.17763568394E-14 -0.26738816716E+03  0.28180775502E+03  0.88989768238E+02 0.  0.
    9000005    2    3    3    0    0  0.13407942402E+02 -0.14919120567E+02 -0.25867531744E+03  0.25993844254E+03  0.15897200392E+02 0.  0.
         22    1    3    3    0    0 -0.13407942402E+02  0.14919120567E+02 -0.87128497195E+01  0.21869312476E+02  0.00000000000E+00 0.  1.
         22    1    4    4    0    0  0.50005035900E+01 -0.12655677925E+02 -0.21340719612E+03  0.21384060086E+03  0.00000000000E+00 0. -1.
         22    1    4    4    0    0  0.84074388116E+01 -0.22634426418E+01 -0.45268121326E+02  0.46097841688E+02  0.00000000000E+00 0. -1.
<mgrwt>
<rscale>  0 0.88989768E+02</rscale>
<asrwt>0</asrwt>
<pdfrwt beam="2">  1        2 0.42245832E-01 0.88989768E+02</pdfrwt>
<pdfrwt beam="1">  1       -2 0.11091993E-02 0.88989768E+02</pdfrwt>
<totfact> 0.18545983E+05</totfact>
</mgrwt>
</event>
<event>
 7    1  0.3960685E-009  0.9063789E+02  0.7818608E-02  0.1301314E+00
          2   -1    0    0  501    0  0.00000000000E+00  0.00000000000E+00  0.27241048627E+02  0.27241048747E+02  0.25500000000E-02 0.  1.
         -2   -1    0    0    0  501 -0.00000000000E+00 -0.00000000000E+00 -0.75393817567E+02  0.75393817610E+02  0.25500000000E-02 0. -1.
         23    2    1    2    0    0  0.00000000000E+00  0.17763568394E-14 -0.48152768940E+02  0.10263486636E+03  0.90637887418E+02 0.  0.
    9000005    2    3    3    0    0  0.25313130294E+02  0.11611077447E+02 -0.64063440006E+02  0.70561183398E+02  0.99591451667E+01 0.  0.
         22    1    3    3    0    0 -0.25313130294E+02 -0.11611077447E+02  0.15910671066E+02  0.32073682959E+02  0.00000000000E+00 0.  1.
         22    1    4    4    0    0 -0.63546658139E+00 -0.61957605007E+00 -0.17800746501E+01  0.19890595813E+01  0.00000000000E+00 0.  1.
         22    1    4    4    0    0  0.25948596876E+02  0.12230653497E+02 -0.62283365356E+02  0.68572123817E+02  0.00000000000E+00 0.  1.
<mgrwt>
<rscale>  0 0.90637887E+02</rscale>
<asrwt>0</asrwt>
<pdfrwt beam="1">  1        2 0.41909306E-02 0.90637887E+02</pdfrwt>
<pdfrwt beam="2">  1       -2 0.11599049E-01 0.90637887E+02</pdfrwt>
<totfact> 0.87736085E+04</totfact>
</mgrwt>
</event>
<event>
 7    1  0.3960685E-009  0.1104309E+03  0.7818608E-02  0.1259774E+00
          2   -1    0    0  501    0  0.00000000000E+00  0.00000000000E+00  0.11604499508E+04  0.11604499508E+04  0.25500000000E-02 0.  1.
         -2   -1    0    0    0  501 -0.00000000000E+00 -0.00000000000E+00 -0.26272112045E+01  0.26272124420E+01  0.25500000000E-02 0. -1.
         23    2    1    2    0    0  0.00000000000E+00 -0.35527136788E-14  0.11578227396E+04  0.11630771633E+04  0.11043093469E+03 0.  0.
    9000005    2    3    3    0    0 -0.35190608922E+02  0.24283817508E+02  0.93962589612E+03  0.94073071004E+03  0.15791181370E+02 0.  0.
         22    1    3    3    0    0  0.35190608922E+02 -0.24283817508E+02  0.21819684350E+03  0.22234645323E+03  0.00000000000E+00 0. -1.
         22    1    4    4    0    0 -0.31277812602E+02  0.16006396540E+02  0.63881893736E+03  0.63978444888E+03  0.00000000000E+00 0. -1.
         22    1    4    4    0    0 -0.39127963201E+01  0.82774209683E+01  0.30080695876E+03  0.30094626117E+03  0.00000000000E+00 0. -1.
<mgrwt>
<rscale>  0 0.11043093E+03</rscale>
<asrwt>0</asrwt>
<pdfrwt beam="1">  1        2 0.17853070E+00 0.11043093E+03</pdfrwt>
<pdfrwt beam="2">  1       -2 0.40418657E-03 0.11043093E+03</pdfrwt>
<totfact> 0.14993544E+05</totfact>
</mgrwt>
</event>
<event>
 7    1  0.3960685E-009  0.9115713E+02  0.7818608E-02  0.1300074E+00
         -2   -1    0    0    0  501 -0.00000000000E+00  0.00000000000E+00  0.22298136939E+02  0.22298137085E+02  0.25500000000E-02 0. -1.
          2   -1    0    0  501    0  0.00000000000E+00 -0.00000000000E+00 -0.93164975789E+02  0.93164975824E+02  0.25500000000E-02 0.  1.
         23    2    1    2    0    0  0.00000000000E+00  0.00000000000E+00 -0.70866838850E+02  0.11546311291E+03  0.91157125855E+02 0.  0.
    9000005    2    3    3    0    0  0.18011550094E+02 -0.40711072662E+02 -0.24796481511E+02  0.51398417489E+02  0.67174735564E+01 0.  0.
         22    1    3    3    0    0 -0.18011550094E+02  0.40711072662E+02 -0.46070357338E+02  0.64064695420E+02  0.00000000000E+00 0.  1.
         22    1    4    4    0    0  0.11909624612E+02 -0.18638813784E+02 -0.12448943141E+02  0.25381503560E+02  0.00000000000E+00 0.  1.
         22    1    4    4    0    0  0.61019254822E+01 -0.22072258877E+02 -0.12347538371E+02  0.26016913929E+02  0.00000000000E+00 0.  1.
<mgrwt>
<rscale>  0 0.91157126E+02</rscale>
<asrwt>0</asrwt>
<pdfrwt beam="2">  1        2 0.14333073E-01 0.91157126E+02</pdfrwt>
<pdfrwt beam="1">  1       -2 0.34304827E-02 0.91157126E+02</pdfrwt>
<totfact> 0.12015699E+05</totfact>
</mgrwt>
</event>
<event>
 7    1  0.3960685E-009  0.8961703E+02  0.7818608E-02  0.1303782E+00
          2   -1    0    0  501    0  0.00000000000E+00  0.00000000000E+00  0.25478513083E+03  0.25478513085E+03  0.25500000000E-02 0.  1.
         -2   -1    0    0    0  501 -0.00000000000E+00 -0.00000000000E+00 -0.78803775815E+01  0.78803779941E+01  0.25500000000E-02 0. -1.
         23    2    1    2    0    0  0.00000000000E+00  0.00000000000E+00  0.24690475325E+03  0.26266550884E+03  0.89617031617E+02 0.  0.
    9000005    2    3    3    0    0 -0.33921600023E+02 -0.19703918149E+02  0.18635885425E+03  0.19052172723E+03  0.54760069613E+01 0.  0.
         22    1    3    3    0    0  0.33921600023E+02  0.19703918149E+02  0.60545899002E+02  0.72143781606E+02  0.00000000000E+00 0. -1.
         22    1    4    4    0    0 -0.96971315962E+00  0.35227826134E+00  0.51753632377E+01  0.52771988998E+01  0.00000000000E+00 0. -1.
         22    1    4    4    0    0 -0.32951886863E+02 -0.20056196410E+02  0.18118349101E+03  0.18524452833E+03  0.00000000000E+00 0. -1.
<mgrwt>
<rscale>  0 0.89617032E+02</rscale>
<asrwt>0</asrwt>
<pdfrwt beam="1">  1        2 0.39197712E-01 0.89617032E+02</pdfrwt>
<pdfrwt beam="2">  1       -2 0.12123658E-02 0.89617032E+02</pdfrwt>
<totfact> 0.17702189E+05</totfact>
</mgrwt>
</event>
<event>
 7    1  0.3960685E-009  0.9310881E+02  0.7818608E-02  0.1295493E+00
          2   -1    0    0  501    0  0.00000000000E+00  0.00000000000E+00  0.12000235705E+04  0.12000235705E+04  0.25500000000E-02 0. -1.
         -2   -1    0    0    0  501 -0.00000000000E+00 -0.00000000000E+00 -0.18060576006E+01  0.18060594008E+01  0.25500000000E-02 0.  1.
         23    2    1    2    0    0  0.00000000000E+00 -0.17763568394E-14  0.11982175129E+04  0.12018296299E+04  0.93108813198E+02 0.  0.
    9000005    2    3    3    0    0 -0.15424015926E+02 -0.14225331157E+02  0.11337942177E+04  0.11340755062E+04  0.14059352003E+02 0.  0.
         22    1    3    3    0    0  0.15424015926E+02  0.14225331157E+02  0.64423295278E+02  0.67754123773E+02  0.00000000000E+00 0.  1.
         22    1    4    4    0    0 -0.69592628832E+01 -0.53851487347E+01  0.81340304008E+03  0.81345063573E+03  0.00000000000E+00 0. -1.
         22    1    4    4    0    0 -0.84647530426E+01 -0.88401824225E+01  0.32039117757E+03  0.32062487043E+03  0.00000000000E+00 0. -1.
<mgrwt>
<rscale>  0 0.93108813E+02</rscale>
<asrwt>0</asrwt>
<pdfrwt beam="1">  1        2 0.18461912E+00 0.93108813E+02</pdfrwt>
<pdfrwt beam="2">  1       -2 0.27785499E-03 0.93108813E+02</pdfrwt>
<totfact> 0.23531580E+05</totfact>
</mgrwt>
</event>
<event>
 7    1  0.3960685E-009  0.8642769E+02  0.7818608E-02  0.1311741E+00
          2   -1    0    0  501    0  0.00000000000E+00  0.00000000000E+00  0.85533567489E+01  0.85533571290E+01  0.25500000000E-02 0. -1.
         -2   -1    0    0    0  501 -0.00000000000E+00 -0.00000000000E+00 -0.21832788397E+03  0.21832788398E+03  0.25500000000E-02 0.  1.
         23    2    1    2    0    0  0.00000000000E+00  0.00000000000E+00 -0.20977452722E+03  0.22688124111E+03  0.86427688262E+02 0.  0.
    9000005    2    3    3    0    0 -0.17010777516E+02  0.38899326136E+02 -0.11881434291E+03  0.12650056939E+03  0.91116326505E+01 0.  0.
         22    1    3    3    0    0  0.17010777516E+02 -0.38899326136E+02 -0.90960184308E+02  0.10038067172E+03  0.00000000000E+00 0.  1.
         22    1    4    4    0    0 -0.61861290773E+01  0.21120454957E+02 -0.71492373382E+02  0.74803083241E+02  0.00000000000E+00 0.  1.
         22    1    4    4    0    0 -0.10824648438E+02  0.17778871180E+02 -0.47321969527E+02  0.51697486149E+02  0.00000000000E+00 0.  1.
<mgrwt>
<rscale>  0 0.86427688E+02</rscale>
<asrwt>0</asrwt>
<pdfrwt beam="1">  1        2 0.13159012E-02 0.86427688E+02</pdfrwt>
<pdfrwt beam="2">  1       -2 0.33588901E-01 0.86427688E+02</pdfrwt>
<totfact> 0.68711427E+04</totfact>
</mgrwt>
</event>
<event>
 7    1  0.3960685E-009  0.9051584E+02  0.7818608E-02  0.1301607E+00
          2   -1    0    0  501    0  0.00000000000E+00  0.00000000000E+00  0.26745768357E+03  0.26745768358E+03  0.25500000000E-02 0. -1.
         -2   -1    0    0    0  501 -0.00000000000E+00 -0.00000000000E+00 -0.76583294372E+01  0.76583298617E+01  0.25500000000E-02 0.  1.
         23    2    1    2    0    0  0.00000000000E+00  0.00000000000E+00  0.25979935414E+03  0.27511601345E+03  0.90515835330E+02 0.  0.
    9000005    2    3    3    0    0  0.37825340296E+02  0.14879137431E+02  0.82704995500E+02  0.93416929905E+02  0.15312132873E+02 0.  0.
         22    1    3    3    0    0 -0.37825340296E+02 -0.14879137431E+02  0.17709435864E+03  0.18169908354E+03  0.00000000000E+00 0. -1.
         22    1    4    4    0    0  0.23224122879E+02  0.41065052028E+01  0.33469174446E+02  0.40943972775E+02  0.00000000000E+00 0.  1.
         22    1    4    4    0    0  0.14601217417E+02  0.10772632229E+02  0.49235821054E+02  0.52472957131E+02  0.00000000000E+00 0.  1.
<mgrwt>
<rscale>  0 0.90515835E+02</rscale>
<asrwt>0</asrwt>
<pdfrwt beam="1">  1        2 0.41147335E-01 0.90515835E+02</pdfrwt>
<pdfrwt beam="2">  1       -2 0.11782046E-02 0.90515835E+02</pdfrwt>
<totfact> 0.17550712E+05</totfact>
</mgrwt>
</event>
<event>
 7    1  0.3960685E-009  0.8882698E+02  0.7818608E-02  0.1305717E+00
         -2   -1    0    0    0  501 -0.00000000000E+00  0.00000000000E+00  0.63672332180E+01  0.63672337286E+01  0.25500000000E-02 0.  1.
          2   -1    0    0  501    0  0.00000000000E+00 -0.00000000000E+00 -0.30979826769E+03  0.30979826770E+03  0.25500000000E-02 0. -1.
         23    2    1    2    0    0  0.88817841970E-15 -0.71054273576E-14 -0.30343103448E+03  0.31616550143E+03  0.88826975707E+02 0.  0.
    9000005    2    3    3    0    0 -0.75159784740E+01  0.43024087331E+02 -0.16820833401E+03  0.17406433767E+03  0.98380888902E+01 0.  0.
         22    1    3    3    0    0  0.75159784740E+01 -0.43024087331E+02 -0.13522270046E+03  0.14210116377E+03  0.00000000000E+00 0. -1.
         22    1    4    4    0    0 -0.92772511911E+01  0.40381343593E+02 -0.15188845629E+03  0.15743831635E+03  0.00000000000E+00 0.  1.
         22    1    4    4    0    0  0.17612727171E+01  0.26427437382E+01 -0.16319877717E+02  0.16626021314E+02  0.00000000000E+00 0.  1.
<mgrwt>
<rscale>  0 0.88826976E+02</rscale>
<asrwt>0</asrwt>
<pdfrwt beam="2">  1        2 0.47661260E-01 0.88826976E+02</pdfrwt>
<pdfrwt beam="1">  1       -2 0.97957462E-03 0.88826976E+02</pdfrwt>
<totfact> 0.19490464E+05</totfact>
</mgrwt>
</event>
<event>
 7    1  0.3960685E-009  0.9111587E+02  0.7818608E-02  0.1300172E+00
         -2   -1    0    0    0  501 -0.00000000000E+00  0.00000000000E+00  0.11990304673E+02  0.11990304944E+02  0.25500000000E-02 0. -1.
          2   -1    0    0  501    0  0.00000000000E+00 -0.00000000000E+00 -0.17310031953E+03  0.17310031955E+03  0.25500000000E-02 0.  1.
         23    2    1    2    0    0  0.17763568394E-14  0.00000000000E+00 -0.16111001486E+03  0.18509062449E+03  0.91115873414E+02 0.  0.
    9000005    2    3    3    0    0  0.15468738221E+02 -0.88088772296E+01 -0.16541003492E+03  0.16677755941E+03  0.11721624885E+02 0.  0.
         22    1    3    3    0    0 -0.15468738221E+02  0.88088772296E+01  0.43000200637E+01  0.18313065083E+02  0.00000000000E+00 0. -1.
         22    1    4    4    0    0  0.74414366837E+01 -0.10723330693E+02 -0.98975470076E+02  0.99832401943E+02  0.00000000000E+00 0.  1.
         22    1    4    4    0    0  0.80273015371E+01  0.19144534636E+01 -0.66434564846E+02  0.66945157467E+02  0.00000000000E+00 0.  1.
<mgrwt>
<rscale>  0 0.91115873E+02</rscale>
<asrwt>0</asrwt>
<pdfrwt beam="2">  1        2 0.26630817E-01 0.91115873E+02</pdfrwt>
<pdfrwt beam="1">  1       -2 0.18446624E-02 0.91115873E+02</pdfrwt>
<totfact> 0.14717162E+05</totfact>
</mgrwt>
</event>
<event>
 7    1  0.3960685E-009  0.9901789E+02  0.7818608E-02  0.1282375E+00
         -2   -1    0    0    0  501 -0.00000000000E+00  0.00000000000E+00  0.39084881395E+01  0.39084889713E+01  0.25500000000E-02 0.  1.
          2   -1    0    0  501    0  0.00000000000E+00 -0.00000000000E+00 -0.62713128886E+03  0.62713128887E+03  0.25500000000E-02 0. -1.
         23    2    1    2    0    0 -0.66613381478E-15  0.00000000000E+00 -0.62322280072E+03  0.63103977784E+03  0.99017886637E+02 0.  0.
    9000005    2    3    3    0    0 -0.94087136262E+00 -0.11426666564E+02 -0.61825337758E+03  0.61854381393E+03  0.15091617200E+02 0.  0.
         22    1    3    3    0    0  0.94087136262E+00  0.11426666564E+02 -0.49694231399E+01  0.12495963910E+02  0.00000000000E+00 0.  1.
         22    1    4    4    0    0 -0.51761447811E+01 -0.35853644687E+00 -0.33821365769E+03  0.33825345419E+03  0.00000000000E+00 0.  1.
         22    1    4    4    0    0  0.42352734185E+01 -0.11068130117E+02 -0.28003971989E+03  0.28029035974E+03  0.00000000000E+00 0.  1.
<mgrwt>
<rscale>  0 0.99017887E+02</rscale>
<asrwt>0</asrwt>
<pdfrwt beam="2">  1        2 0.96481657E-01 0.99017887E+02</pdfrwt>
<pdfrwt beam="1">  1       -2 0.60130643E-03 0.99017887E+02</pdfrwt>
<totfact> 0.18533407E+05</totfact>
</mgrwt>
</event>
<event>
 7    1  0.4389926E-009  0.9129116E+02  0.7818608E-02  0.1299755E+00
          2   -1    0    0  501    0  0.00000000000E+00  0.00000000000E+00  0.12813660370E+02  0.12813660624E+02  0.25500000000E-02 0.  1.
         -2   -1    0    0    0  501 -0.00000000000E+00 -0.00000000000E+00 -0.16260138480E+03  0.16260138482E+03  0.25500000000E-02 0. -1.
         23    2    1    2    0    0  0.00000000000E+00  0.22204460493E-15 -0.14978772443E+03  0.17541504544E+03  0.91291159366E+02 0.  0.
    9000005    2    3    3    0    0  0.14222331164E+02 -0.51710060779E+00 -0.15790826341E+03  0.15902952592E+03  0.12362376923E+02 0.  0.
         22    1    3    3    0    0 -0.14222331164E+02  0.51710060779E+00  0.81205389825E+01  0.16385519526E+02  0.00000000000E+00 0.  1.
         22    1    4    4    0    0  0.30636195553E+01  0.15370895439E+01 -0.97783159790E+02  0.97843215133E+02  0.00000000000E+00 0. -1.
         22    1    4    4    0    0  0.11158711608E+02 -0.20541901517E+01 -0.60125103623E+02  0.61186310786E+02  0.00000000000E+00 0. -1.
<mgrwt>
<rscale>  0 0.91291159E+02</rscale>
<asrwt>0</asrwt>
<pdfrwt beam="1">  1        2 0.19713325E-02 0.91291159E+02</pdfrwt>
<pdfrwt beam="2">  1       -2 0.25015596E-01 0.91291159E+02</pdfrwt>
<totfact> 0.67573291E+04</totfact>
</mgrwt>
</event>
<event>
 7    1  0.3960685E-009  0.9164138E+02  0.7818608E-02  0.1298925E+00
          2   -1    0    0  501    0  0.00000000000E+00  0.00000000000E+00  0.49555664584E+02  0.49555664650E+02  0.25500000000E-02 0. -1.
         -2   -1    0    0    0  501 -0.00000000000E+00 -0.00000000000E+00 -0.42367218174E+02  0.42367218251E+02  0.25500000000E-02 0.  1.
         23    2    1    2    0    0  0.00000000000E+00 -0.35527136788E-14  0.71884464103E+01  0.91922882900E+02  0.91641380604E+02 0.  0.
    9000005    2    3    3    0    0  0.95066577902E+01 -0.31836154354E+02 -0.26457987849E+02  0.44636523295E+02  0.13728686191E+02 0.  0.
         22    1    3    3    0    0 -0.95066577902E+01  0.31836154354E+02  0.33646434259E+02  0.47286359605E+02  0.00000000000E+00 0. -1.
         22    1    4    4    0    0  0.10189918975E+02 -0.17279656578E+02 -0.92592342034E+01  0.22094216397E+02  0.00000000000E+00 0. -1.
         22    1    4    4    0    0 -0.68326118479E+00 -0.14556497775E+02 -0.17198753645E+02  0.22542306898E+02  0.00000000000E+00 0. -1.
<mgrwt>
<rscale>  0 0.91641381E+02</rscale>
<asrwt>0</asrwt>
<pdfrwt beam="1">  1        2 0.76239484E-02 0.91641381E+02</pdfrwt>
<pdfrwt beam="2">  1       -2 0.65180336E-02 0.91641381E+02</pdfrwt>
<totfact> 0.99387436E+04</totfact>
</mgrwt>
</event>
<event>
 6    1  0.3960685E-009  0.1612999E+03  0.7818608E-02  0.1187237E+00
         -2   -1    0    0    0  501 -0.00000000000E+00  0.00000000000E+00  0.64036357214E+02  0.64036357265E+02  0.25500000000E-02 0.  1.
          2   -1    0    0  501    0  0.00000000000E+00 -0.00000000000E+00 -0.10157377997E+03  0.10157378001E+03  0.25500000000E-02 0. -1.
    9000005    2    1    2    0    0 -0.40545531654E+02 -0.61843681043E+02 -0.51503632622E+02  0.90353004452E+02  0.65161505677E+01 0.  0.
         22    1    1    2    0    0  0.40545531654E+02  0.61843681043E+02  0.13966209863E+02  0.75257132818E+02  0.00000000000E+00 0.  1.
         22    1    3    3    0    0 -0.94686347586E+01 -0.11266240210E+02 -0.79471645026E+01  0.16725448762E+02  0.00000000000E+00 0. -1.
         22    1    3    3    0    0 -0.31076896895E+02 -0.50577440833E+02 -0.43556468120E+02  0.73627555690E+02  0.00000000000E+00 0. -1.
<mgrwt>
<rscale>  0 0.16129991E+03</rscale>
<asrwt>0</asrwt>
<pdfrwt beam="2">  1        2 0.15626735E-01 0.16129991E+03</pdfrwt>
<pdfrwt beam="1">  1       -2 0.98517473E-02 0.16129991E+03</pdfrwt>
<totfact> 0.23710717E+04</totfact>
</mgrwt>
</event>
<event>
 7    1  0.3960685E-009  0.8741684E+02  0.7818608E-02  0.1309231E+00
          2   -1    0    0  501    0  0.00000000000E+00  0.00000000000E+00  0.61813425436E+02  0.61813425489E+02  0.25500000000E-02 0. -1.
         -2   -1    0    0    0  501 -0.00000000000E+00 -0.00000000000E+00 -0.30906326082E+02  0.30906326187E+02  0.25500000000E-02 0.  1.
         23    2    1    2    0    0  0.00000000000E+00  0.00000000000E+00  0.30907099354E+02  0.92719751676E+02  0.87416837968E+02 0.  0.
    9000005    2    3    3    0    0 -0.23975983988E+02  0.22889960900E+02  0.43899184802E+02  0.57116487746E+02  0.15373894364E+02 0.  0.
         22    1    3    3    0    0  0.23975983988E+02 -0.22889960900E+02 -0.12992085448E+02  0.35603263930E+02  0.00000000000E+00 0.  1.
         22    1    4    4    0    0 -0.21606771067E+02  0.15653193791E+02  0.41105473638E+02  0.49005458827E+02  0.00000000000E+00 0. -1.
         22    1    4    4    0    0 -0.23692129214E+01  0.72367671090E+01  0.27937111638E+01  0.81110289189E+01  0.00000000000E+00 0. -1.
<mgrwt>
<rscale>  0 0.87416838E+02</rscale>
<asrwt>0</asrwt>
<pdfrwt beam="1">  1        2 0.95097578E-02 0.87416838E+02</pdfrwt>
<pdfrwt beam="2">  1       -2 0.47548194E-02 0.87416838E+02</pdfrwt>
<totfact> 0.12032049E+05</totfact>
</mgrwt>
</event>
<event>
 7    1  0.3960685E-009  0.9360404E+02  0.7818608E-02  0.1294351E+00
          2   -1    0    0  501    0  0.00000000000E+00  0.00000000000E+00  0.71514552816E+03  0.71514552817E+03  0.25500000000E-02 0. -1.
         -2   -1    0    0    0  501 -0.00000000000E+00 -0.00000000000E+00 -0.30629129593E+01  0.30629140208E+01  0.25500000000E-02 0.  1.
         23    2    1    2    0    0  0.00000000000E+00  0.00000000000E+00  0.71208261520E+03  0.71820844219E+03  0.93604035999E+02 0.  0.
    9000005    2    3    3    0    0 -0.18267832295E+01  0.33469559134E+02  0.60560527376E+03  0.60657971485E+03  0.75930454586E+01 0.  0.
         22    1    3    3    0    0  0.18267832295E+01 -0.33469559134E+02  0.10647734144E+03  0.11162872733E+03  0.00000000000E+00 0.  1.
         22    1    4    4    0    0  0.27305499978E+01  0.18177795159E+02  0.33688993681E+03  0.33739104562E+03  0.00000000000E+00 0. -1.
         22    1    4    4    0    0 -0.45573332273E+01  0.15291763975E+02  0.26871533695E+03  0.26918866923E+03  0.00000000000E+00 0. -1.
<mgrwt>
<rscale>  0 0.93604036E+02</rscale>
<asrwt>0</asrwt>
<pdfrwt beam="1">  1        2 0.11002246E+00 0.93604036E+02</pdfrwt>
<pdfrwt beam="2">  1       -2 0.47121716E-03 0.93604036E+02</pdfrwt>
<totfact> 0.22233067E+05</totfact>
</mgrwt>
</event>
<event>
 7    1  0.3960685E-009  0.8612589E+02  0.7818608E-02  0.1312514E+00
         -2   -1    0    0    0  501 -0.00000000000E+00  0.00000000000E+00  0.48002688197E+01  0.48002694970E+01  0.25500000000E-02 0.  1.
          2   -1    0    0  501    0  0.00000000000E+00 -0.00000000000E+00 -0.38631521906E+03  0.38631521907E+03  0.25500000000E-02 0. -1.
         23    2    1    2    0    0  0.00000000000E+00  0.00000000000E+00 -0.38151495024E+03  0.39111548857E+03  0.86125885418E+02 0.  0.
    9000005    2    3    3    0    0  0.31937959567E+02  0.25374579106E+02 -0.24312545834E+03  0.24683952385E+03  0.12484370848E+02 0.  0.
         22    1    3    3    0    0 -0.31937959567E+02 -0.25374579106E+02 -0.13838949191E+03  0.14427596472E+03  0.00000000000E+00 0.  1.
         22    1    4    4    0    0  0.12752707720E+02  0.85296920538E+01 -0.59433578298E+02  0.61381898228E+02  0.00000000000E+00 0.  1.
         22    1    4    4    0    0  0.19185251847E+02  0.16844887053E+02 -0.18369188004E+03  0.18545762562E+03  0.00000000000E+00 0.  1.
<mgrwt>
<rscale>  0 0.86125885E+02</rscale>
<asrwt>0</asrwt>
<pdfrwt beam="2">  1        2 0.59433086E-01 0.86125885E+02</pdfrwt>
<pdfrwt beam="1">  1       -2 0.73850325E-03 0.86125885E+02</pdfrwt>
<totfact> 0.22924597E+05</totfact>
</mgrwt>
</event>
<event>
 7    1  0.3960685E-009  0.9151328E+02  0.7818608E-02  0.1299228E+00
         -2   -1    0    0    0  501 -0.00000000000E+00  0.00000000000E+00  0.24328017686E+01  0.24328031050E+01  0.25500000000E-02 0.  1.
          2   -1    0    0  501    0  0.00000000000E+00 -0.00000000000E+00 -0.86060014688E+03  0.86060014689E+03  0.25500000000E-02 0. -1.
         23    2    1    2    0    0  0.35527136788E-14  0.00000000000E+00 -0.85816734511E+03  0.86303294999E+03  0.91513280735E+02 0.  0.
    9000005    2    3    3    0    0  0.21597480453E+02 -0.25823861919E+02 -0.71555820370E+03  0.71650414661E+03  0.14877036556E+02 0.  0.
         22    1    3    3    0    0 -0.21597480453E+02  0.25823861919E+02 -0.14260914141E+03  0.14652880338E+03  0.00000000000E+00 0.  1.
         22    1    4    4    0    0 -0.97049627080E+00  0.50149952305E+00 -0.59623662552E+01  0.60616149782E+01  0.00000000000E+00 0.  1.
         22    1    4    4    0    0  0.22567976724E+02 -0.26325361442E+02 -0.70959583744E+03  0.71044253163E+03  0.00000000000E+00 0.  1.
<mgrwt>
<rscale>  0 0.91513281E+02</rscale>
<asrwt>0</asrwt>
<pdfrwt beam="2">  1        2 0.13239978E+00 0.91513281E+02</pdfrwt>
<pdfrwt beam="1">  1       -2 0.37427798E-03 0.91513281E+02</pdfrwt>
<totfact> 0.24417253E+05</totfact>
</mgrwt>
</event>
<event>
 7    1  0.3960685E-009  0.8295898E+02  0.7818608E-02  0.1320858E+00
         -2   -1    0    0    0  501 -0.00000000000E+00  0.00000000000E+00  0.25456810782E+01  0.25456823554E+01  0.25500000000E-02 0.  1.
          2   -1    0    0  501    0  0.00000000000E+00 -0.00000000000E+00 -0.67586936587E+03  0.67586936587E+03  0.25500000000E-02 0. -1.
         23    2    1    2    0    0  0.00000000000E+00  0.17763568394E-14 -0.67332368479E+03  0.67841504823E+03  0.82958984827E+02 0.  0.
    9000005    2    3    3    0    0 -0.23627443505E+02 -0.15933011731E+02 -0.58050946352E+03  0.58132438638E+03  0.11605516236E+02 0.  0.
         22    1    3    3    0    0  0.23627443505E+02  0.15933011731E+02 -0.92814221265E+02  0.97090661850E+02  0.00000000000E+00 0.  1.
         22    1    4    4    0    0 -0.10439073910E+02 -0.72457473025E+01 -0.37232772048E+03  0.37254450279E+03  0.00000000000E+00 0.  1.
         22    1    4    4    0    0 -0.13188369595E+02 -0.86872644284E+01 -0.20818174304E+03  0.20877988359E+03  0.00000000000E+00 0.  1.
<mgrwt>
<rscale>  0 0.82958985E+02</rscale>
<asrwt>0</asrwt>
<pdfrwt beam="2">  1        2 0.10397976E+00 0.82958985E+02</pdfrwt>
<pdfrwt beam="1">  1       -2 0.39164388E-03 0.82958985E+02</pdfrwt>
<totfact> 0.30134091E+05</totfact>
</mgrwt>
</event>
<event>
 7    1  0.3960685E-009  0.9067670E+02  0.7818608E-02  0.1301221E+00
          2   -1    0    0  501    0  0.00000000000E+00  0.00000000000E+00  0.98602366686E+03  0.98602366686E+03  0.25500000000E-02 0. -1.
         -2   -1    0    0    0  501 -0.00000000000E+00 -0.00000000000E+00 -0.20847016440E+01  0.20847032036E+01  0.25500000000E-02 0.  1.
         23    2    1    2    0    0  0.00000000000E+00  0.00000000000E+00  0.98393896521E+03  0.98810837006E+03  0.90676698914E+02 0.  0.
    9000005    2    3    3    0    0  0.33155956923E+01 -0.26469752159E+02  0.89098097867E+03  0.89139834878E+03  0.56807487317E+01 0.  0.
         22    1    3    3    0    0 -0.33155956923E+01  0.26469752159E+02  0.92957986545E+02  0.96710021283E+02  0.00000000000E+00 0.  1.
         22    1    4    4    0    0  0.17875267244E+01 -0.79490018010E+01  0.19662941975E+03  0.19679814682E+03  0.00000000000E+00 0.  1.
         22    1    4    4    0    0  0.15280689680E+01 -0.18520750358E+02  0.69435155892E+03  0.69460020196E+03  0.00000000000E+00 0.  1.
<mgrwt>
<rscale>  0 0.90676699E+02</rscale>
<asrwt>0</asrwt>
<pdfrwt beam="1">  1        2 0.15169622E+00 0.90676699E+02</pdfrwt>
<pdfrwt beam="2">  1       -2 0.32072287E-03 0.90676699E+02</pdfrwt>
<totfact> 0.25348728E+05</totfact>
</mgrwt>
</event>
<event>
 7    1  0.3960685E-009  0.9572061E+02  0.7818608E-02  0.1289561E+00
         -2   -1    0    0    0  501 -0.00000000000E+00  0.00000000000E+00  0.51534668227E+01  0.51534674536E+01  0.25500000000E-02 0.  1.
          2   -1    0    0  501    0  0.00000000000E+00 -0.00000000000E+00 -0.44447921373E+03  0.44447921373E+03  0.25500000000E-02 0. -1.
         23    2    1    2    0    0 -0.71054273576E-14  0.35527136788E-14 -0.43932574690E+03  0.44963268119E+03  0.95720614808E+02 0.  0.
    9000005    2    3    3    0    0 -0.29732997261E+02  0.15466607887E+02 -0.38013738260E+03  0.38161408406E+03  0.12698112494E+01 0.  0.
         22    1    3    3    0    0  0.29732997261E+02 -0.15466607887E+02 -0.59188364303E+02  0.68018597122E+02  0.00000000000E+00 0.  1.
         22    1    4    4    0    0 -0.25047108775E+02  0.12535322248E+02 -0.31549404713E+03  0.31673488241E+03  0.00000000000E+00 0.  1.
         22    1    4    4    0    0 -0.46858884852E+01  0.29312856385E+01 -0.64643335466E+02  0.64879201649E+02  0.00000000000E+00 0.  1.
<mgrwt>
<rscale>  0 0.95720615E+02</rscale>
<asrwt>0</asrwt>
<pdfrwt beam="2">  1        2 0.68381388E-01 0.95720615E+02</pdfrwt>
<pdfrwt beam="1">  1       -2 0.79284145E-03 0.95720615E+02</pdfrwt>
<totfact> 0.18203327E+05</totfact>
</mgrwt>
</event>
<event>
 7    1  0.3960685E-009  0.8951652E+02  0.7818608E-02  0.1304027E+00
          2   -1    0    0  501    0  0.00000000000E+00  0.00000000000E+00  0.69704959179E+02  0.69704959225E+02  0.25500000000E-02 0.  1.
         -2   -1    0    0    0  501 -0.00000000000E+00 -0.00000000000E+00 -0.28739730880E+02  0.28739730993E+02  0.25500000000E-02 0. -1.
         23    2    1    2    0    0  0.00000000000E+00 -0.17763568394E-14  0.40965228298E+02  0.98444690218E+02  0.89516518602E+02 0.  0.
    9000005    2    3    3    0    0  0.33665785648E+02 -0.15407736480E+02 -0.40699454607E+01  0.40144172706E+02  0.14973532631E+02 0.  0.
         22    1    3    3    0    0 -0.33665785648E+02  0.15407736480E+02  0.45035173759E+02  0.58300517513E+02  0.00000000000E+00 0.  1.
         22    1    4    4    0    0  0.70021011922E+01  0.12071193039E+01  0.33617036549E+01  0.78605094989E+01  0.00000000000E+00 0.  1.
         22    1    4    4    0    0  0.26663684456E+02 -0.16614855784E+02 -0.74316491157E+01  0.32283663207E+02  0.00000000000E+00 0.  1.
<mgrwt>
<rscale>  0 0.89516519E+02</rscale>
<asrwt>0</asrwt>
<pdfrwt beam="1">  1        2 0.10723840E-01 0.89516519E+02</pdfrwt>
<pdfrwt beam="2">  1       -2 0.44214971E-02 0.89516519E+02</pdfrwt>
<totfact> 0.11630688E+05</totfact>
</mgrwt>
</event>
<event>
 7    1  0.3960685E-009  0.9117217E+02  0.7818608E-02  0.1300038E+00
         -2   -1    0    0    0  501 -0.00000000000E+00  0.00000000000E+00  0.12543697634E+03  0.12543697636E+03  0.25500000000E-02 0. -1.
          2   -1    0    0  501    0  0.00000000000E+00 -0.00000000000E+00 -0.16566813117E+02  0.16566813314E+02  0.25500000000E-02 0.  1.
         23    2    1    2    0    0  0.00000000000E+00  0.00000000000E+00  0.10887016322E+03  0.14200378968E+03  0.91172165945E+02 0.  0.
    9000005    2    3    3    0    0  0.33303937994E+02  0.29423976707E+02  0.70073835877E+02  0.83011606242E+02  0.23794127953E+01 0.  0.
         22    1    3    3    0    0 -0.33303937994E+02 -0.29423976707E+02  0.38796327344E+02  0.58992183435E+02  0.00000000000E+00 0.  1.
         22    1    4    4    0    0  0.60819124216E+01  0.63234192318E+01  0.15013356311E+02  0.17388966536E+02  0.00000000000E+00 0. -1.
         22    1    4    4    0    0  0.27222025572E+02  0.23100557475E+02  0.55060479566E+02  0.65622639706E+02  0.00000000000E+00 0. -1.
<mgrwt>
<rscale>  0 0.91172166E+02</rscale>
<asrwt>0</asrwt>
<pdfrwt beam="2">  1        2 0.25487403E-02 0.91172166E+02</pdfrwt>
<pdfrwt beam="1">  1       -2 0.19297998E-01 0.91172166E+02</pdfrwt>
<totfact> 0.74340033E+04</totfact>
</mgrwt>
</event>
<event>
 6    1  0.3960685E-009  0.2325856E+03  0.7818608E-02  0.1124833E+00
         -2   -1    0    0    0  501 -0.00000000000E+00  0.00000000000E+00  0.15871234932E+04  0.15871234932E+04  0.25500000000E-02 0.  1.
          2   -1    0    0  501    0  0.00000000000E+00 -0.00000000000E+00 -0.85210876427E+01  0.85210880242E+01  0.25500000000E-02 0. -1.
    9000005    2    1    2    0    0  0.41534252117E+01 -0.45750405443E+02  0.15221610494E+04  0.15228711161E+04  0.71989872604E+01 0.  0.
         22    1    1    2    0    0 -0.41534252117E+01  0.45750405443E+02  0.56441356107E+02  0.72773465070E+02  0.00000000000E+00 0. -1.
         22    1    3    3    0    0  0.14030247050E+01 -0.34825863938E+02  0.12276974942E+04  0.12281921456E+04  0.00000000000E+00 0.  1.
         22    1    3    3    0    0  0.27504005067E+01 -0.10924541505E+02  0.29446355525E+03  0.29467897055E+03  0.00000000000E+00 0.  1.
<mgrwt>
<rscale>  0 0.23258563E+03</rscale>
<asrwt>0</asrwt>
<pdfrwt beam="2">  1        2 0.13109374E-02 0.23258563E+03</pdfrwt>
<pdfrwt beam="1">  1       -2 0.24417270E+00 0.23258563E+03</pdfrwt>
<totfact> 0.76299060E+02</totfact>
</mgrwt>
</event>
<event>
 7    1  0.3960685E-009  0.9069162E+02  0.7818608E-02  0.1301185E+00
          2   -1    0    0  501    0  0.00000000000E+00  0.00000000000E+00  0.71805422626E+02  0.71805422671E+02  0.25500000000E-02 0.  1.
         -2   -1    0    0    0  501 -0.00000000000E+00 -0.00000000000E+00 -0.28636309277E+02  0.28636309390E+02  0.25500000000E-02 0. -1.
         23    2    1    2    0    0  0.00000000000E+00  0.00000000000E+00  0.43169113349E+02  0.10044173206E+03  0.90691615887E+02 0.  0.
    9000005    2    3    3    0    0 -0.63608650091E+01  0.41448406389E+02  0.39568955044E+01  0.43030678908E+02  0.88063221284E+01 0.  0.
         22    1    3    3    0    0  0.63608650091E+01 -0.41448406389E+02  0.39212217844E+02  0.57411053153E+02  0.00000000000E+00 0.  1.
         22    1    4    4    0    0  0.25120822708E+00 -0.37733362347E+00 -0.17170209813E+00  0.48473482158E+00  0.00000000000E+00 0. -1.
         22    1    4    4    0    0 -0.66120732362E+01  0.41825740013E+02  0.41285976026E+01  0.42545944087E+02  0.00000000000E+00 0. -1.
<mgrwt>
<rscale>  0 0.90691616E+02</rscale>
<asrwt>0</asrwt>
<pdfrwt beam="1">  1        2 0.11046988E-01 0.90691616E+02</pdfrwt>
<pdfrwt beam="2">  1       -2 0.44055861E-02 0.90691616E+02</pdfrwt>
<totfact> 0.11307696E+05</totfact>
</mgrwt>
</event>
<event>
 7    1  0.3960685E-009  0.9067209E+02  0.7818608E-02  0.1301232E+00
          2   -1    0    0  501    0  0.00000000000E+00  0.00000000000E+00  0.56402183501E+02  0.56402183558E+02  0.25500000000E-02 0. -1.
         -2   -1    0    0    0  501 -0.00000000000E+00 -0.00000000000E+00 -0.36441088864E+02  0.36441088954E+02  0.25500000000E-02 0.  1.
         23    2    1    2    0    0 -0.17763568394E-14  0.00000000000E+00  0.19961094636E+02  0.92843272512E+02  0.90672090257E+02 0.  0.
    9000005    2    3    3    0    0  0.99115997217E+01 -0.43129672608E+02  0.10856583338E+02  0.47662517822E+02  0.13980047749E+02 0.  0.
         22    1    3    3    0    0 -0.99115997217E+01  0.43129672608E+02  0.91045112981E+01  0.45180754689E+02  0.00000000000E+00 0.  1.
         22    1    4    4    0    0  0.11546529020E+02 -0.34288580880E+02  0.12954907915E+02  0.38429919988E+02  0.00000000000E+00 0. -1.
         22    1    4    4    0    0 -0.16349292980E+01 -0.88410917281E+01 -0.20983245764E+01  0.92325978350E+01  0.00000000000E+00 0. -1.
<mgrwt>
<rscale>  0 0.90672090E+02</rscale>
<asrwt>0</asrwt>
<pdfrwt beam="1">  1        2 0.86772591E-02 0.90672090E+02</pdfrwt>
<pdfrwt beam="2">  1       -2 0.56063213E-02 0.90672090E+02</pdfrwt>
<totfact> 0.10598467E+05</totfact>
</mgrwt>
</event>
<event>
 7    1  0.3960685E-009  0.9121044E+02  0.7818608E-02  0.1299947E+00
         -2   -1    0    0    0  501 -0.00000000000E+00  0.00000000000E+00  0.46695773119E+01  0.46695780082E+01  0.25500000000E-02 0.  1.
          2   -1    0    0  501    0  0.00000000000E+00 -0.00000000000E+00 -0.44540136320E+03  0.44540136321E+03  0.25500000000E-02 0. -1.
         23    2    1    2    0    0  0.00000000000E+00  0.00000000000E+00 -0.44073178589E+03  0.45007094121E+03  0.91210443670E+02 0.  0.
    9000005    2    3    3    0    0 -0.13907728891E+02  0.37973655341E+02 -0.32372370268E+03  0.32627144623E+03  0.45384495884E+01 0.  0.
         22    1    3    3    0    0  0.13907728891E+02 -0.37973655341E+02 -0.11700808321E+03  0.12379949499E+03  0.00000000000E+00 0. -1.
         22    1    4    4    0    0 -0.69056060423E+01  0.22101577560E+02 -0.16922771448E+03  0.17080452709E+03  0.00000000000E+00 0. -1.
         22    1    4    4    0    0 -0.70021228488E+01  0.15872077781E+02 -0.15449598820E+03  0.15546691914E+03  0.00000000000E+00 0. -1.
<mgrwt>
<rscale>  0 0.91210444E+02</rscale>
<asrwt>0</asrwt>
<pdfrwt beam="2">  1        2 0.68523253E-01 0.91210444E+02</pdfrwt>
<pdfrwt beam="1">  1       -2 0.71839692E-03 0.91210444E+02</pdfrwt>
<totfact> 0.20710481E+05</totfact>
</mgrwt>
</event>
<event>
 7    1  0.3960685E-009  0.9117954E+02  0.7818608E-02  0.1300020E+00
          2   -1    0    0  501    0  0.00000000000E+00  0.00000000000E+00  0.11087325855E+04  0.11087325855E+04  0.25500000000E-02 0.  1.
         -2   -1    0    0    0  501 -0.00000000000E+00 -0.00000000000E+00 -0.18745966212E+01  0.18745983556E+01  0.25500000000E-02 0. -1.
         23    2    1    2    0    0  0.00000000000E+00  0.00000000000E+00  0.11068579888E+04  0.11106071838E+04  0.91179544269E+02 0.  0.
    9000005    2    3    3    0    0 -0.30354266318E+02  0.12713315523E+02  0.93707439358E+03  0.93766361183E+03  0.46497268579E+01 0.  0.
         22    1    3    3    0    0  0.30354266318E+02 -0.12713315523E+02  0.16978359526E+03  0.17294357199E+03  0.00000000000E+00 0. -1.
         22    1    4    4    0    0 -0.23346918465E+02  0.99490300527E+01  0.77280575445E+03  0.77322234571E+03  0.00000000000E+00 0. -1.
         22    1    4    4    0    0 -0.70073478535E+01  0.27642854700E+01  0.16426863914E+03  0.16444126612E+03  0.00000000000E+00 0. -1.
<mgrwt>
<rscale>  0 0.91179544E+02</rscale>
<asrwt>0</asrwt>
<pdfrwt beam="1">  1        2 0.17057465E+00 0.91179544E+02</pdfrwt>
<pdfrwt beam="2">  1       -2 0.28839892E-03 0.91179544E+02</pdfrwt>
<totfact> 0.25010271E+05</totfact>
</mgrwt>
</event>
<event>
 7    1  0.3960685E-009  0.8913755E+02  0.7818608E-02  0.1304954E+00
         -2   -1    0    0    0  501 -0.00000000000E+00  0.00000000000E+00  0.21497181266E+02  0.21497181417E+02  0.25500000000E-02 0.  1.
          2   -1    0    0  501    0  0.00000000000E+00 -0.00000000000E+00 -0.92401683438E+02  0.92401683474E+02  0.25500000000E-02 0. -1.
         23    2    1    2    0    0  0.00000000000E+00  0.00000000000E+00 -0.70904502173E+02  0.11389886489E+03  0.89137550982E+02 0.  0.
    9000005    2    3    3    0    0  0.28354234433E+02  0.20934155187E+02 -0.30579885406E+01  0.37443970503E+02  0.12267769539E+02 0.  0.
         22    1    3    3    0    0 -0.28354234433E+02 -0.20934155187E+02 -0.67846513632E+02  0.76454894387E+02  0.00000000000E+00 0. -1.
         22    1    4    4    0    0  0.17533067437E+02  0.53936895414E+01 -0.23505087244E+01  0.18493924189E+02  0.00000000000E+00 0.  1.
         22    1    4    4    0    0  0.10821166996E+02  0.15540465646E+02 -0.70747981620E+00  0.18950046315E+02  0.00000000000E+00 0.  1.
<mgrwt>
<rscale>  0 0.89137551E+02</rscale>
<asrwt>0</asrwt>
<pdfrwt beam="2">  1        2 0.14215643E-01 0.89137551E+02</pdfrwt>
<pdfrwt beam="1">  1       -2 0.33072587E-02 0.89137551E+02</pdfrwt>
<totfact> 0.12749353E+05</totfact>
</mgrwt>
</event>
<event>
 7    1  0.3960685E-009  0.9197965E+02  0.7818608E-02  0.1298127E+00
         -2   -1    0    0    0  501 -0.00000000000E+00  0.00000000000E+00  0.10214913482E+02  0.10214913801E+02  0.25500000000E-02 0. -1.
          2   -1    0    0  501    0  0.00000000000E+00 -0.00000000000E+00 -0.20705649292E+03  0.20705649294E+03  0.25500000000E-02 0.  1.
         23    2    1    2    0    0  0.00000000000E+00  0.00000000000E+00 -0.19684157944E+03  0.21727140674E+03  0.91979654216E+02 0.  0.
    9000005    2    3    3    0    0  0.38037623666E+02  0.17341276015E+02 -0.53419034766E+02  0.67880620581E+02  0.25699624810E+01 0.  0.
         22    1    3    3    0    0 -0.38037623666E+02 -0.17341276015E+02 -0.14342254468E+03  0.14939078616E+03  0.00000000000E+00 0.  1.
         22    1    4    4    0    0  0.11496360982E+02  0.55358763247E+01 -0.18209335137E+02  0.22234930372E+02  0.00000000000E+00 0.  1.
         22    1    4    4    0    0  0.26541262684E+02  0.11805399690E+02 -0.35209699629E+02  0.45645690209E+02  0.00000000000E+00 0.  1.
<mgrwt>
<rscale>  0 0.91979654E+02</rscale>
<asrwt>0</asrwt>
<pdfrwt beam="2">  1        2 0.31854842E-01 0.91979654E+02</pdfrwt>
<pdfrwt beam="1">  1       -2 0.15715253E-02 0.91979654E+02</pdfrwt>
<totfact> 0.15298104E+05</totfact>
</mgrwt>
</event>
<event>
 7    1  0.3960685E-009  0.8944421E+02  0.7818608E-02  0.1304203E+00
          2   -1    0    0  501    0  0.00000000000E+00  0.00000000000E+00  0.62714783824E+03  0.62714783824E+03  0.25500000000E-02 0. -1.
         -2   -1    0    0    0  501 -0.00000000000E+00 -0.00000000000E+00 -0.31891464929E+01  0.31891475124E+01  0.25500000000E-02 0.  1.
         23    2    1    2    0    0  0.00000000000E+00 -0.11796119637E-15  0.62395869175E+03  0.63033698576E+03  0.89444209467E+02 0.  0.
    9000005    2    3    3    0    0  0.12908905743E+02  0.32820258303E-01  0.61366942674E+03  0.61382911191E+03  0.54196294188E+01 0.  0.
         22    1    3    3    0    0 -0.12908905743E+02 -0.32820258303E-01  0.10289265002E+02  0.16507873847E+02  0.00000000000E+00 0.  1.
         22    1    4    4    0    0  0.36494283933E+01 -0.24709865465E+01  0.19690179060E+03  0.19695110877E+03  0.00000000000E+00 0.  1.
         22    1    4    4    0    0  0.92594773500E+01  0.25038068048E+01  0.41676763614E+03  0.41687800314E+03  0.00000000000E+00 0.  1.
<mgrwt>
<rscale>  0 0.89444209E+02</rscale>
<asrwt>0</asrwt>
<pdfrwt beam="1">  1        2 0.96484359E-01 0.89444209E+02</pdfrwt>
<pdfrwt beam="2">  1       -2 0.49063762E-03 0.89444209E+02</pdfrwt>
<totfact> 0.24262918E+05</totfact>
</mgrwt>
</event>
<event>
 7    1  0.3960685E-009  0.9207504E+02  0.7818608E-02  0.1297903E+00
          2   -1    0    0  501    0  0.00000000000E+00  0.00000000000E+00  0.22066843081E+03  0.22066843082E+03  0.25500000000E-02 0. -1.
         -2   -1    0    0    0  501 -0.00000000000E+00 -0.00000000000E+00 -0.96046951113E+01  0.96046954498E+01  0.25500000000E-02 0.  1.
         23    2    1    2    0    0 -0.44408920985E-15  0.00000000000E+00  0.21106373570E+03  0.23027312627E+03  0.92075035471E+02 0.  0.
    9000005    2    3    3    0    0  0.35538731517E+01 -0.35882191848E+02  0.17539923384E+03  0.17955706966E+03  0.13254747250E+02 0.  0.
         22    1    3    3    0    0 -0.35538731517E+01  0.35882191848E+02  0.35664501853E+02  0.50716056616E+02  0.00000000000E+00 0.  1.
         22    1    4    4    0    0  0.59308108770E+01 -0.35501543000E+02  0.16559933130E+03  0.16946584493E+03  0.00000000000E+00 0.  1.
         22    1    4    4    0    0 -0.23769377253E+01 -0.38064884848E+00  0.97999025467E+01  0.10091224724E+02  0.00000000000E+00 0.  1.
<mgrwt>
<rscale>  0 0.92075035E+02</rscale>
<asrwt>0</asrwt>
<pdfrwt beam="1">  1        2 0.33948984E-01 0.92075035E+02</pdfrwt>
<pdfrwt beam="2">  1       -2 0.14776457E-02 0.92075035E+02</pdfrwt>
<totfact> 0.15614673E+05</totfact>
</mgrwt>
</event>
<event>
 7    1  0.3960685E-009  0.9100522E+02  0.7818608E-02  0.1300436E+00
          2   -1    0    0  501    0  0.00000000000E+00  0.00000000000E+00  0.43314163750E+03  0.43314163751E+03  0.25500000000E-02 0. -1.
         -2   -1    0    0    0  501 -0.00000000000E+00 -0.00000000000E+00 -0.47801628540E+01  0.47801635341E+01  0.25500000000E-02 0.  1.
         23    2    1    2    0    0  0.00000000000E+00  0.00000000000E+00  0.42836147465E+03  0.43792180105E+03  0.91005224392E+02 0.  0.
    9000005    2    3    3    0    0  0.11227272562E+02  0.39551732146E+02  0.30676735214E+03  0.30956479191E+03  0.58104119695E+01 0.  0.
         22    1    3    3    0    0 -0.11227272562E+02 -0.39551732146E+02  0.12159412251E+03  0.12835700914E+03  0.00000000000E+00 0.  1.
         22    1    4    4    0    0  0.95069494196E+00  0.54269025058E+01  0.57369523261E+02  0.57633473701E+02  0.00000000000E+00 0.  1.
         22    1    4    4    0    0  0.10276577620E+02  0.34124829640E+02  0.24939782887E+03  0.25193131821E+03  0.00000000000E+00 0.  1.
<mgrwt>
<rscale>  0 0.91005224E+02</rscale>
<asrwt>0</asrwt>
<pdfrwt beam="1">  1        2 0.66637178E-01 0.91005224E+02</pdfrwt>
<pdfrwt beam="2">  1       -2 0.73540969E-03 0.91005224E+02</pdfrwt>
<totfact> 0.20634236E+05</totfact>
</mgrwt>
</event>
<event>
 7    1  0.3960685E-009  0.9197203E+02  0.7818608E-02  0.1298145E+00
         -2   -1    0    0    0  501 -0.00000000000E+00  0.00000000000E+00  0.89592023701E+01  0.89592027330E+01  0.25500000000E-02 0.  1.
          2   -1    0    0  501    0  0.00000000000E+00 -0.00000000000E+00 -0.23603815420E+03  0.23603815421E+03  0.25500000000E-02 0. -1.
         23    2    1    2    0    0  0.00000000000E+00 -0.35527136788E-14 -0.22707895183E+03  0.24499735695E+03  0.91972031329E+02 0.  0.
    9000005    2    3    3    0    0 -0.11433434718E+02  0.26642442135E+02 -0.20819347096E+03  0.21039671331E+03  0.90394949457E+01 0.  0.
         22    1    3    3    0    0  0.11433434718E+02 -0.26642442135E+02 -0.18885480869E+02  0.34600643636E+02  0.00000000000E+00 0.  1.
         22    1    4    4    0    0  0.12031253636E+01  0.73811560769E+00 -0.14822489757E+02  0.14889544247E+02  0.00000000000E+00 0. -1.
         22    1    4    4    0    0 -0.12636560082E+02  0.25904326527E+02 -0.19337098120E+03  0.19550716906E+03  0.00000000000E+00 0. -1.
<mgrwt>
<rscale>  0 0.91972031E+02</rscale>
<asrwt>0</asrwt>
<pdfrwt beam="2">  1        2 0.36313558E-01 0.91972031E+02</pdfrwt>
<pdfrwt beam="1">  1       -2 0.13783390E-02 0.91972031E+02</pdfrwt>
<totfact> 0.16054806E+05</totfact>
</mgrwt>
</event>
<event>
 7    1  0.3960685E-009  0.9137167E+02  0.7818608E-02  0.1299564E+00
          2   -1    0    0  501    0  0.00000000000E+00  0.00000000000E+00  0.80211568210E+01  0.80211572263E+01  0.25500000000E-02 0. -1.
         -2   -1    0    0    0  501 -0.00000000000E+00 -0.00000000000E+00 -0.26021130403E+03  0.26021130404E+03  0.25500000000E-02 0.  1.
         23    2    1    2    0    0 -0.17763568394E-14  0.00000000000E+00 -0.25219014720E+03  0.26823246126E+03  0.91371674653E+02 0.  0.
    9000005    2    3    3    0    0  0.15594313103E+02 -0.38464335303E+02 -0.17768736811E+03  0.18294851328E+03  0.13216279087E+02 0.  0.
         22    1    3    3    0    0 -0.15594313103E+02  0.38464335303E+02 -0.74502779094E+02  0.85283947987E+02  0.00000000000E+00 0. -1.
         22    1    4    4    0    0  0.16041568372E+02 -0.25573520878E+02 -0.13604970044E+03  0.13935873807E+03  0.00000000000E+00 0.  1.
         22    1    4    4    0    0 -0.44725526907E+00 -0.12890814425E+02 -0.41637667672E+02  0.43589775211E+02  0.00000000000E+00 0.  1.
<mgrwt>
<rscale>  0 0.91371675E+02</rscale>
<asrwt>0</asrwt>
<pdfrwt beam="1">  1        2 0.12340244E-02 0.91371675E+02</pdfrwt>
<pdfrwt beam="2">  1       -2 0.40032502E-01 0.91371675E+02</pdfrwt>
<totfact> 0.54749883E+04</totfact>
</mgrwt>
</event>
<event>
 7    1  0.3960685E-009  0.9097040E+02  0.7818608E-02  0.1300519E+00
         -2   -1    0    0    0  501 -0.00000000000E+00  0.00000000000E+00  0.51134895838E+01  0.51134902196E+01  0.25500000000E-02 0. -1.
          2   -1    0    0  501    0  0.00000000000E+00 -0.00000000000E+00 -0.40459716455E+03  0.40459716455E+03  0.25500000000E-02 0.  1.
         23    2    1    2    0    0  0.00000000000E+00  0.00000000000E+00 -0.39948367496E+03  0.40971065477E+03  0.90970402185E+02 0.  0.
    9000005    2    3    3    0    0  0.37276193470E+02 -0.25918521102E+02 -0.20923430269E+03  0.21411896787E+03  0.25796596413E+01 0.  0.
         22    1    3    3    0    0 -0.37276193470E+02  0.25918521102E+02 -0.19024937227E+03  0.19559168691E+03  0.00000000000E+00 0. -1.
         22    1    4    4    0    0  0.16239981132E+02 -0.97580757694E+01 -0.88013580082E+02  0.90029702369E+02  0.00000000000E+00 0. -1.
         22    1    4    4    0    0  0.21036212338E+02 -0.16160445333E+02 -0.12122072261E+03  0.12408926550E+03  0.00000000000E+00 0. -1.
<mgrwt>
<rscale>  0 0.90970402E+02</rscale>
<asrwt>0</asrwt>
<pdfrwt beam="2">  1        2 0.62245692E-01 0.90970402E+02</pdfrwt>
<pdfrwt beam="1">  1       -2 0.78669107E-03 0.90970402E+02</pdfrwt>
<totfact> 0.20165050E+05</totfact>
</mgrwt>
</event>
<event>
 7    1  0.3960685E-009  0.9294617E+02  0.7818608E-02  0.1295870E+00
          2   -1    0    0  501    0  0.00000000000E+00  0.00000000000E+00  0.77064750301E+02  0.77064750344E+02  0.25500000000E-02 0. -1.
         -2   -1    0    0    0  501 -0.00000000000E+00 -0.00000000000E+00 -0.28025103635E+02  0.28025103751E+02  0.25500000000E-02 0.  1.
         23    2    1    2    0    0 -0.71054273576E-14 -0.35527136788E-14  0.49039646666E+02  0.10508985410E+03  0.92946169844E+02 0.  0.
    9000005    2    3    3    0    0  0.38683961753E+02  0.20360330027E+02  0.86799398068E+01  0.45592813215E+02  0.96110002665E+01 0.  0.
         22    1    3    3    0    0 -0.38683961753E+02 -0.20360330027E+02  0.40359706859E+02  0.59497040880E+02  0.00000000000E+00 0.  1.
         22    1    4    4    0    0  0.17344992742E+02  0.41774019265E+01  0.52200522537E+01  0.18588932341E+02  0.00000000000E+00 0.  1.
         22    1    4    4    0    0  0.21338969011E+02  0.16182928100E+02  0.34598875531E+01  0.27003880874E+02  0.00000000000E+00 0.  1.
<mgrwt>
<rscale>  0 0.92946170E+02</rscale>
<asrwt>0</asrwt>
<pdfrwt beam="1">  1        2 0.11856115E-01 0.92946170E+02</pdfrwt>
<pdfrwt beam="2">  1       -2 0.43115545E-02 0.92946170E+02</pdfrwt>
<totfact> 0.10770427E+05</totfact>
</mgrwt>
</event>
<event>
 7    1  0.3960685E-009  0.1032763E+03  0.7818608E-02  0.1273553E+00
          2   -1    0    0  501    0  0.00000000000E+00  0.00000000000E+00  0.21646791549E+03  0.21646791551E+03  0.25500000000E-02 0. -1.
         -2   -1    0    0    0  501 -0.00000000000E+00 -0.00000000000E+00 -0.12318221801E+02  0.12318222065E+02  0.25500000000E-02 0.  1.
         23    2    1    2    0    0  0.00000000000E+00 -0.71054273576E-14  0.20414969369E+03  0.22878613757E+03  0.10327632503E+03 0.  0.
    9000005    2    3    3    0    0  0.27510374010E+02 -0.42196811622E+02  0.92217878632E+02  0.10604200202E+03  0.14261047104E+02 0.  0.
         22    1    3    3    0    0 -0.27510374010E+02  0.42196811622E+02  0.11193181506E+03  0.12274413555E+03  0.00000000000E+00 0. -1.
         22    1    4    4    0    0  0.22697027986E+02 -0.41675738852E+02  0.82184528691E+02  0.94901628250E+02  0.00000000000E+00 0. -1.
         22    1    4    4    0    0  0.48133460245E+01 -0.52107277009E+00  0.10033349941E+02  0.11140373774E+02  0.00000000000E+00 0. -1.
<mgrwt>
<rscale>  0 0.10327633E+03</rscale>
<asrwt>0</asrwt>
<pdfrwt beam="1">  1        2 0.33302753E-01 0.10327633E+03</pdfrwt>
<pdfrwt beam="2">  1       -2 0.18951113E-02 0.10327633E+03</pdfrwt>
<totfact> 0.11359581E+05</totfact>
</mgrwt>
</event>
<event>
 7    1  0.3960685E-009  0.9074858E+02  0.7818608E-02  0.1301049E+00
          2   -1    0    0  501    0  0.00000000000E+00  0.00000000000E+00  0.11292072372E+02  0.11292072660E+02  0.25500000000E-02 0. -1.
         -2   -1    0    0    0  501 -0.00000000000E+00 -0.00000000000E+00 -0.18232493187E+03  0.18232493189E+03  0.25500000000E-02 0.  1.
         23    2    1    2    0    0  0.00000000000E+00  0.00000000000E+00 -0.17103285950E+03  0.19361700455E+03  0.90748583583E+02 0.  0.
    9000005    2    3    3    0    0 -0.88140152020E+01  0.43101740772E+02 -0.75993854684E+02  0.88889456322E+02  0.13813854420E+02 0.  0.
         22    1    3    3    0    0  0.88140152020E+01 -0.43101740772E+02 -0.95039004816E+02  0.10472754823E+03  0.00000000000E+00 0.  1.
         22    1    4    4    0    0 -0.87887755523E+01  0.20873158686E+02 -0.28116755163E+02  0.36103784430E+02  0.00000000000E+00 0. -1.
         22    1    4    4    0    0 -0.25239649758E-01  0.22228582086E+02 -0.47877099521E+02  0.52785671892E+02  0.00000000000E+00 0. -1.
<mgrwt>
<rscale>  0 0.90748584E+02</rscale>
<asrwt>0</asrwt>
<pdfrwt beam="1">  1        2 0.17372421E-02 0.90748584E+02</pdfrwt>
<pdfrwt beam="2">  1       -2 0.28049987E-01 0.90748584E+02</pdfrwt>
<totfact> 0.65575263E+04</totfact>
</mgrwt>
</event>
<event>
 7    1  0.3960685E-009  0.8908294E+02  0.7818608E-02  0.1305088E+00
         -2   -1    0    0    0  501 -0.00000000000E+00  0.00000000000E+00  0.87410459190E+02  0.87410459227E+02  0.25500000000E-02 0. -1.
          2   -1    0    0  501    0  0.00000000000E+00 -0.00000000000E+00 -0.22696856435E+02  0.22696856578E+02  0.25500000000E-02 0.  1.
         23    2    1    2    0    0  0.00000000000E+00  0.00000000000E+00  0.64713602755E+02  0.11010731581E+03  0.89082942320E+02 0.  0.
    9000005    2    3    3    0    0 -0.38798392202E+02  0.12786839957E+02  0.50750706334E+02  0.66935785950E+02  0.15360557730E+02 0.  0.
         22    1    3    3    0    0  0.38798392202E+02 -0.12786839957E+02  0.13962896420E+02  0.43171529855E+02  0.00000000000E+00 0.  1.
         22    1    4    4    0    0 -0.11168391015E+01 -0.26797939346E+01  0.30621584813E+01  0.42196492360E+01  0.00000000000E+00 0.  1.
         22    1    4    4    0    0 -0.37681553101E+02  0.15466633891E+02  0.47688547853E+02  0.62716136714E+02  0.00000000000E+00 0.  1.
<mgrwt>
<rscale>  0 0.89082942E+02</rscale>
<asrwt>0</asrwt>
<pdfrwt beam="2">  1        2 0.34918241E-02 0.89082942E+02</pdfrwt>
<pdfrwt beam="1">  1       -2 0.13447763E-01 0.89082942E+02</pdfrwt>
<totfact> 0.87892997E+04</totfact>
</mgrwt>
</event>
<event>
 7    1  0.3960685E-009  0.8848614E+02  0.7818608E-02  0.1306560E+00
          2   -1    0    0  501    0  0.00000000000E+00  0.00000000000E+00  0.97912616487E+02  0.97912616520E+02  0.25500000000E-02 0. -1.
         -2   -1    0    0    0  501 -0.00000000000E+00 -0.00000000000E+00 -0.19991798203E+02  0.19991798366E+02  0.25500000000E-02 0.  1.
         23    2    1    2    0    0  0.35527136788E-14  0.00000000000E+00  0.77920818284E+02  0.11790441489E+03  0.88486140879E+02 0.  0.
    9000005    2    3    3    0    0 -0.22189015022E+02  0.35956047590E+02  0.51698236323E+02  0.68177022529E+02  0.13791628477E+02 0.  0.
         22    1    3    3    0    0  0.22189015022E+02 -0.35956047590E+02  0.26222581961E+02  0.49727392357E+02  0.00000000000E+00 0.  1.
         22    1    4    4    0    0 -0.63742763923E+01  0.16082138232E+02  0.12017128912E+02  0.21063664376E+02  0.00000000000E+00 0. -1.
         22    1    4    4    0    0 -0.15814738630E+02  0.19873909357E+02  0.39681107411E+02  0.47113358153E+02  0.00000000000E+00 0. -1.
<mgrwt>
<rscale>  0 0.88486141E+02</rscale>
<asrwt>0</asrwt>
<pdfrwt beam="1">  1        2 0.15063480E-01 0.88486141E+02</pdfrwt>
<pdfrwt beam="2">  1       -2 0.30756613E-02 0.88486141E+02</pdfrwt>
<totfact> 0.13234750E+05</totfact>
</mgrwt>
</event>
<event>
 7    1  0.3960685E-009  0.9062381E+02  0.7818608E-02  0.1301348E+00
          2   -1    0    0  501    0  0.00000000000E+00  0.00000000000E+00  0.13132051816E+04  0.13132051816E+04  0.25500000000E-02 0.  1.
         -2   -1    0    0    0  501 -0.00000000000E+00 -0.00000000000E+00 -0.15634780285E+01  0.15634801080E+01  0.25500000000E-02 0. -1.
         23    2    1    2    0    0  0.00000000000E+00  0.00000000000E+00  0.13116417036E+04  0.13147686617E+04  0.90623811816E+02 0.  0.
    9000005    2    3    3    0    0 -0.72400302348E+01 -0.20696817944E+02  0.12308552828E+04  0.12310595099E+04  0.46918526918E+01 0.  0.
         22    1    3    3    0    0  0.72400302348E+01  0.20696817944E+02  0.80786420780E+02  0.83709151789E+02  0.00000000000E+00 0. -1.
         22    1    4    4    0    0 -0.21079808220E+01 -0.11831006390E+02  0.73727984357E+03  0.73737777566E+03  0.00000000000E+00 0. -1.
         22    1    4    4    0    0 -0.51320494128E+01 -0.88658115536E+01  0.49357543921E+03  0.49368173425E+03  0.00000000000E+00 0. -1.
<mgrwt>
<rscale>  0 0.90623812E+02</rscale>
<asrwt>0</asrwt>
<pdfrwt beam="1">  1        2 0.20203112E+00 0.90623812E+02</pdfrwt>
<pdfrwt beam="2">  1       -2 0.24053577E-03 0.90623812E+02</pdfrwt>
<totfact> 0.24915738E+05</totfact>
</mgrwt>
</event>
<event>
 7    1  0.3960685E-009  0.8899764E+02  0.7818608E-02  0.1305297E+00
         -2   -1    0    0    0  501 -0.00000000000E+00  0.00000000000E+00  0.49132853220E+02  0.49132853286E+02  0.25500000000E-02 0.  1.
          2   -1    0    0  501    0  0.00000000000E+00 -0.00000000000E+00 -0.40301854847E+02  0.40301854927E+02  0.25500000000E-02 0. -1.
         23    2    1    2    0    0  0.00000000000E+00  0.00000000000E+00  0.88309983732E+01  0.89434708214E+02  0.88997643233E+02 0.  0.
    9000005    2    3    3    0    0 -0.92188560170E+01  0.37548872741E+02 -0.15721158766E+02  0.43633905049E+02  0.12722330230E+02 0.  0.
         22    1    3    3    0    0  0.92188560170E+01 -0.37548872741E+02  0.24552157139E+02  0.45800803165E+02  0.00000000000E+00 0.  1.
         22    1    4    4    0    0  0.85510681167E+00  0.20539284151E+02 -0.10974631601E+02  0.23303131546E+02  0.00000000000E+00 0. -1.
         22    1    4    4    0    0 -0.10073962829E+02  0.17009588590E+02 -0.47465271651E+01  0.20330773502E+02  0.00000000000E+00 0. -1.
<mgrwt>
<rscale>  0 0.88997643E+02</rscale>
<asrwt>0</asrwt>
<pdfrwt beam="2">  1        2 0.62002854E-02 0.88997643E+02</pdfrwt>
<pdfrwt beam="1">  1       -2 0.75589005E-02 0.88997643E+02</pdfrwt>
<totfact> 0.10248315E+05</totfact>
</mgrwt>
</event>
<event>
 7    1  0.3960685E-009  0.9087090E+02  0.7818608E-02  0.1300756E+00
          2   -1    0    0  501    0  0.00000000000E+00  0.00000000000E+00  0.43108536489E+02  0.43108536564E+02  0.25500000000E-02 0. -1.
         -2   -1    0    0    0  501 -0.00000000000E+00 -0.00000000000E+00 -0.47887969032E+02  0.47887969100E+02  0.25500000000E-02 0.  1.
         23    2    1    2    0    0  0.00000000000E+00  0.35527136788E-14 -0.47794325428E+01  0.90996505664E+02  0.90870903306E+02 0.  0.
    9000005    2    3    3    0    0  0.39014041792E+02 -0.23184327662E+02 -0.41534966137E+01  0.45609279467E+02  0.18292986003E+01 0.  0.
         22    1    3    3    0    0 -0.39014041792E+02  0.23184327662E+02 -0.62593592910E+00  0.45387226197E+02  0.00000000000E+00 0.  1.
         22    1    4    4    0    0  0.26403772046E+02 -0.16507109511E+02 -0.23680619301E+01  0.31229017915E+02  0.00000000000E+00 0. -1.
         22    1    4    4    0    0  0.12610269746E+02 -0.66772181510E+01 -0.17854346836E+01  0.14380261552E+02  0.00000000000E+00 0. -1.
<mgrwt>
<rscale>  0 0.90870903E+02</rscale>
<asrwt>0</asrwt>
<pdfrwt beam="1">  1        2 0.66320825E-02 0.90870903E+02</pdfrwt>
<pdfrwt beam="2">  1       -2 0.73673799E-02 0.90870903E+02</pdfrwt>
<totfact> 0.98200130E+04</totfact>
</mgrwt>
</event>
<event>
 7    1  0.3960685E-009  0.1125490E+03  0.7818608E-02  0.1255921E+00
         -2   -1    0    0    0  501 -0.00000000000E+00  0.00000000000E+00  0.11276145113E+02  0.11276145401E+02  0.25500000000E-02 0.  1.
          2   -1    0    0  501    0  0.00000000000E+00 -0.00000000000E+00 -0.28084239576E+03  0.28084239577E+03  0.25500000000E-02 0. -1.
         23    2    1    2    0    0 -0.35527136788E-14  0.71054273576E-14 -0.26956625065E+03  0.29211854117E+03  0.11254900537E+03 0.  0.
    9000005    2    3    3    0    0 -0.26784956096E+02  0.35409914666E+02 -0.45225946828E+02  0.63426897584E+02  0.25078159684E+01 0.  0.
         22    1    3    3    0    0  0.26784956096E+02 -0.35409914666E+02 -0.22434030382E+03  0.22869164359E+03  0.00000000000E+00 0. -1.
         22    1    4    4    0    0 -0.14129996715E+02  0.19720367427E+02 -0.23157393942E+02  0.33538255662E+02  0.00000000000E+00 0. -1.
         22    1    4    4    0    0 -0.12654959381E+02  0.15689547238E+02 -0.22068552886E+02  0.29888641922E+02  0.00000000000E+00 0. -1.
<mgrwt>
<rscale>  0 0.11254901E+03</rscale>
<asrwt>0</asrwt>
<pdfrwt beam="2">  1        2 0.43206517E-01 0.11254901E+03</pdfrwt>
<pdfrwt beam="1">  1       -2 0.17347918E-02 0.11254901E+03</pdfrwt>
<totfact> 0.99174398E+04</totfact>
</mgrwt>
</event>
<event>
 7    1  0.3960685E-009  0.9156483E+02  0.7818608E-02  0.1299106E+00
          2   -1    0    0  501    0  0.00000000000E+00  0.00000000000E+00  0.32072381180E+01  0.32072391317E+01  0.25500000000E-02 0. -1.
         -2   -1    0    0    0  501 -0.00000000000E+00 -0.00000000000E+00 -0.65353096124E+03  0.65353096124E+03  0.25500000000E-02 0.  1.
         23    2    1    2    0    0 -0.17763568394E-14  0.00000000000E+00 -0.65032372312E+03  0.65673820037E+03  0.91564834836E+02 0.  0.
    9000005    2    3    3    0    0  0.15990223892E+02  0.39044423478E+02 -0.43633053636E+03  0.43862529786E+03  0.15088429183E+02 0.  0.
         22    1    3    3    0    0 -0.15990223892E+02 -0.39044423478E+02 -0.21399318676E+03  0.21811290252E+03  0.00000000000E+00 0. -1.
         22    1    4    4    0    0  0.73565357824E+01  0.83156374464E+01 -0.66553259587E+02  0.67472993164E+02  0.00000000000E+00 0.  1.
         22    1    4    4    0    0  0.86336881097E+01  0.30728786032E+02 -0.36977727677E+03  0.37115230469E+03  0.00000000000E+00 0.  1.
<mgrwt>
<rscale>  0 0.91564835E+02</rscale>
<asrwt>0</asrwt>
<pdfrwt beam="1">  1        2 0.49342185E-03 0.91564835E+02</pdfrwt>
<pdfrwt beam="2">  1       -2 0.10054312E+00 0.91564835E+02</pdfrwt>
<totfact> 0.28663028E+04</totfact>
</mgrwt>
</event>
<event>
 7    1  0.3960685E-009  0.9244263E+02  0.7818608E-02  0.1297042E+00
         -2   -1    0    0    0  501 -0.00000000000E+00  0.00000000000E+00  0.30051958201E+01  0.30051969020E+01  0.25500000000E-02 0.  1.
          2   -1    0    0  501    0  0.00000000000E+00 -0.00000000000E+00 -0.71090531277E+03  0.71090531278E+03  0.25500000000E-02 0. -1.
         23    2    1    2    0    0 -0.35527136788E-14  0.55511151231E-16 -0.70790011695E+03  0.71391050968E+03  0.92442632205E+02 0.  0.
    9000005    2    3    3    0    0 -0.25653451555E+02  0.45056189931E+00 -0.65072477257E+03  0.65124215572E+03  0.39132043131E+01 0.  0.
         22    1    3    3    0    0  0.25653451555E+02 -0.45056189931E+00 -0.57175344384E+02  0.62668353961E+02  0.00000000000E+00 0.  1.
         22    1    4    4    0    0 -0.97754247995E+00 -0.77105038070E+00 -0.29187933821E+02  0.29214475671E+02  0.00000000000E+00 0. -1.
         22    1    4    4    0    0 -0.24675909075E+02  0.12216122800E+01 -0.62153683875E+03  0.62202768005E+03  0.00000000000E+00 0. -1.
<mgrwt>
<rscale>  0 0.92442632E+02</rscale>
<asrwt>0</asrwt>
<pdfrwt beam="2">  1        2 0.10936991E+00 0.92442632E+02</pdfrwt>
<pdfrwt beam="1">  1       -2 0.46233847E-03 0.92442632E+02</pdfrwt>
<totfact> 0.22948137E+05</totfact>
</mgrwt>
</event>
<event>
 7    1  0.3960685E-009  0.9035493E+02  0.7818608E-02  0.1301994E+00
          2   -1    0    0  501    0  0.00000000000E+00  0.00000000000E+00  0.83252524260E+02  0.83252524299E+02  0.25500000000E-02 0.  1.
         -2   -1    0    0    0  501 -0.00000000000E+00 -0.00000000000E+00 -0.24515814339E+02  0.24515814471E+02  0.25500000000E-02 0. -1.
         23    2    1    2    0    0  0.00000000000E+00  0.00000000000E+00  0.58736709921E+02  0.10776833877E+03  0.90354932068E+02 0.  0.
    9000005    2    3    3    0    0 -0.34229226952E+02 -0.21230939752E+02  0.53315730528E+02  0.67126244852E+02  0.64010034943E+01 0.  0.
         22    1    3    3    0    0  0.34229226952E+02  0.21230939752E+02  0.54209793935E+01  0.40642093918E+02  0.00000000000E+00 0. -1.
         22    1    4    4    0    0 -0.64936314058E+01 -0.62283711294E+01  0.89057833991E+01  0.12659890746E+02  0.00000000000E+00 0.  1.
         22    1    4    4    0    0 -0.27735595546E+02 -0.15002568622E+02  0.44409947129E+02  0.54466354106E+02  0.00000000000E+00 0.  1.
<mgrwt>
<rscale>  0 0.90354932E+02</rscale>
<asrwt>0</asrwt>
<pdfrwt beam="1">  1        2 0.12808081E-01 0.90354932E+02</pdfrwt>
<pdfrwt beam="2">  1       -2 0.37716637E-02 0.90354932E+02</pdfrwt>
<totfact> 0.11913100E+05</totfact>
</mgrwt>
</event>
<event>
 7    1  0.3960685E-009  0.9538968E+02  0.7818608E-02  0.1290301E+00
          2   -1    0    0  501    0  0.00000000000E+00  0.00000000000E+00  0.32822031075E+03  0.32822031076E+03  0.25500000000E-02 0. -1.
         -2   -1    0    0    0  501 -0.00000000000E+00 -0.00000000000E+00 -0.69307028816E+01  0.69307033508E+01  0.25500000000E-02 0.  1.
         23    2    1    2    0    0  0.00000000000E+00  0.71054273576E-14  0.32128960787E+03  0.33515101411E+03  0.95389675203E+02 0.  0.
    9000005    2    3    3    0    0 -0.13504335080E+01 -0.47421585454E+02  0.17697891627E+03  0.18324246877E+03  0.23738406971E+01 0.  0.
         22    1    3    3    0    0  0.13504335080E+01  0.47421585454E+02  0.14431069160E+03  0.15190854534E+03  0.00000000000E+00 0.  1.
         22    1    4    4    0    0 -0.19738596892E+01 -0.35511759404E+02  0.13393120670E+03  0.13857326332E+03  0.00000000000E+00 0. -1.
         22    1    4    4    0    0  0.62342618114E+00 -0.11909826050E+02  0.43047709566E+02  0.44669205451E+02  0.00000000000E+00 0. -1.
<mgrwt>
<rscale>  0 0.95389675E+02</rscale>
<asrwt>0</asrwt>
<pdfrwt beam="1">  1        2 0.50495438E-01 0.95389675E+02</pdfrwt>
<pdfrwt beam="2">  1       -2 0.10662619E-02 0.95389675E+02</pdfrwt>
<totfact> 0.16463772E+05</totfact>
</mgrwt>
</event>
<event>
 7    1  0.3960685E-009  0.9012982E+02  0.7818608E-02  0.1302538E+00
         -2   -1    0    0    0  501 -0.00000000000E+00  0.00000000000E+00  0.11370801127E+03  0.11370801129E+03  0.25500000000E-02 0.  1.
          2   -1    0    0  501    0  0.00000000000E+00 -0.00000000000E+00 -0.17860186779E+02  0.17860186961E+02  0.25500000000E-02 0. -1.
         23    2    1    2    0    0  0.00000000000E+00  0.00000000000E+00  0.95847824487E+02  0.13156819825E+03  0.90129824881E+02 0.  0.
    9000005    2    3    3    0    0 -0.17875548676E+02  0.31475045667E+02  0.10933699115E+02  0.39260980618E+02  0.10567170034E+02 0.  0.
         22    1    3    3    0    0  0.17875548676E+02 -0.31475045667E+02  0.84914125371E+02  0.92307217637E+02  0.00000000000E+00 0.  1.
         22    1    4    4    0    0 -0.16413692773E+02  0.30806541551E+02  0.12441241737E+02  0.37057209943E+02  0.00000000000E+00 0. -1.
         22    1    4    4    0    0 -0.14618559027E+01  0.66850411630E+00 -0.15075426214E+01  0.22037706753E+01  0.00000000000E+00 0. -1.
<mgrwt>
<rscale>  0 0.90129825E+02</rscale>
<asrwt>0</asrwt>
<pdfrwt beam="2">  1        2 0.27477210E-02 0.90129825E+02</pdfrwt>
<pdfrwt beam="1">  1       -2 0.17493540E-01 0.90129825E+02</pdfrwt>
<totfact> 0.78974009E+04</totfact>
</mgrwt>
</event>
<event>
 6    1  0.3960685E-009  0.1385257E+03  0.7818608E-02  0.1215327E+00
          2   -1    0    0  501    0  0.00000000000E+00  0.00000000000E+00  0.58757460091E+03  0.58757460092E+03  0.25500000000E-02 0.  1.
         -2   -1    0    0    0  501 -0.00000000000E+00 -0.00000000000E+00 -0.81646514183E+01  0.81646518165E+01  0.25500000000E-02 0. -1.
    9000005    2    1    2    0    0 -0.62512161706E+02 -0.24389172607E+02  0.23500707954E+03  0.24486044327E+03  0.15023552863E+02 0.  0.
         22    1    1    2    0    0  0.62512161706E+02  0.24389172607E+02  0.34440286995E+03  0.35087880946E+03  0.00000000000E+00 0.  1.
         22    1    3    3    0    0 -0.99403749353E+01 -0.10227046985E+02  0.52857071887E+02  0.54747361511E+02  0.00000000000E+00 0.  1.
         22    1    3    3    0    0 -0.52571786771E+02 -0.14162125622E+02  0.18215000766E+03  0.19011308176E+03  0.00000000000E+00 0.  1.
<mgrwt>
<rscale>  0 0.13852569E+03</rscale>
<asrwt>0</asrwt>
<pdfrwt beam="1">  1        2 0.90396108E-01 0.13852569E+03</pdfrwt>
<pdfrwt beam="2">  1       -2 0.12561000E-02 0.13852569E+03</pdfrwt>
<totfact> 0.73231619E+04</totfact>
</mgrwt>
</event>
<event>
 7    1  0.3960685E-009  0.8773198E+02  0.7818608E-02  0.1308439E+00
          2   -1    0    0  501    0  0.00000000000E+00  0.00000000000E+00  0.64278779094E+01  0.64278784152E+01  0.25500000000E-02 0. -1.
         -2   -1    0    0    0  501 -0.00000000000E+00 -0.00000000000E+00 -0.29935618395E+03  0.29935618396E+03  0.25500000000E-02 0.  1.
         23    2    1    2    0    0  0.00000000000E+00  0.00000000000E+00 -0.29292830604E+03  0.30578406238E+03  0.87731980049E+02 0.  0.
    9000005    2    3    3    0    0  0.26099029267E+02  0.29180867709E+02 -0.90371563417E+02  0.99478666540E+02  0.14010826285E+02 0.  0.
         22    1    3    3    0    0 -0.26099029267E+02 -0.29180867709E+02 -0.20255674262E+03  0.20630539584E+03  0.00000000000E+00 0.  1.
         22    1    4    4    0    0  0.16611408389E+02  0.26412363885E+02 -0.61499834977E+02  0.68962174827E+02  0.00000000000E+00 0. -1.
         22    1    4    4    0    0  0.94876208778E+01  0.27685038234E+01 -0.28871728440E+02  0.30516491713E+02  0.00000000000E+00 0. -1.
<mgrwt>
<rscale>  0 0.87731980E+02</rscale>
<asrwt>0</asrwt>
<pdfrwt beam="1">  1        2 0.98890456E-03 0.87731980E+02</pdfrwt>
<pdfrwt beam="2">  1       -2 0.46054787E-01 0.87731980E+02</pdfrwt>
<totfact> 0.56378140E+04</totfact>
</mgrwt>
</event>
<event>
 7    1  0.3960685E-009  0.9124649E+02  0.7818608E-02  0.1299861E+00
          2   -1    0    0  501    0  0.00000000000E+00  0.00000000000E+00  0.84665240418E+02  0.84665240457E+02  0.25500000000E-02 0.  1.
         -2   -1    0    0    0  501 -0.00000000000E+00 -0.00000000000E+00 -0.24584830479E+02  0.24584830611E+02  0.25500000000E-02 0. -1.
         23    2    1    2    0    0  0.00000000000E+00  0.00000000000E+00  0.60080409940E+02  0.10925007107E+03  0.91246492370E+02 0.  0.
    9000005    2    3    3    0    0 -0.10040704685E+02 -0.41952059769E+02  0.45050962394E+02  0.63569929179E+02  0.12278257765E+02 0.  0.
         22    1    3    3    0    0  0.10040704685E+02  0.41952059769E+02  0.15029447545E+02  0.45680141888E+02  0.00000000000E+00 0. -1.
         22    1    4    4    0    0 -0.69969858436E+01 -0.23151018876E+02  0.33421176356E+02  0.41254121187E+02  0.00000000000E+00 0. -1.
         22    1    4    4    0    0 -0.30437188414E+01 -0.18801040893E+02  0.11629786039E+02  0.22315807993E+02  0.00000000000E+00 0. -1.
<mgrwt>
<rscale>  0 0.91246492E+02</rscale>
<asrwt>0</asrwt>
<pdfrwt beam="1">  1        2 0.13025422E-01 0.91246492E+02</pdfrwt>
<pdfrwt beam="2">  1       -2 0.37822816E-02 0.91246492E+02</pdfrwt>
<totfact> 0.11650048E+05</totfact>
</mgrwt>
</event>
<event>
 7    1  0.3960685E-009  0.9213072E+02  0.7818608E-02  0.1297772E+00
          2   -1    0    0  501    0  0.00000000000E+00  0.00000000000E+00  0.29797944101E+03  0.29797944102E+03  0.25500000000E-02 0. -1.
         -2   -1    0    0    0  501 -0.00000000000E+00 -0.00000000000E+00 -0.71213542220E+01  0.71213546786E+01  0.25500000000E-02 0.  1.
         23    2    1    2    0    0  0.00000000000E+00 -0.44408920985E-15  0.29085808679E+03  0.30510079570E+03  0.92130716303E+02 0.  0.
    9000005    2    3    3    0    0  0.11824263297E+02 -0.24830795867E+01  0.29232290065E+03  0.29293015207E+03  0.14471242439E+02 0.  0.
         22    1    3    3    0    0 -0.11824263297E+02  0.24830795867E+01 -0.14648138645E+01  0.12170643632E+02  0.00000000000E+00 0.  1.
         22    1    4    4    0    0  0.65452451568E+01  0.36421469841E+01  0.22480614627E+03  0.22493089799E+03  0.00000000000E+00 0. -1.
         22    1    4    4    0    0  0.52790181404E+01 -0.61252265708E+01  0.67516754383E+02  0.67999254080E+02  0.00000000000E+00 0. -1.
<mgrwt>
<rscale>  0 0.92130716E+02</rscale>
<asrwt>0</asrwt>
<pdfrwt beam="1">  1        2 0.45842992E-01 0.92130716E+02</pdfrwt>
<pdfrwt beam="2">  1       -2 0.10955930E-02 0.92130716E+02</pdfrwt>
<totfact> 0.17429399E+05</totfact>
</mgrwt>
</event>
<event>
 6    1  0.3960685E-009  0.1630480E+03  0.7818608E-02  0.1185298E+00
          2   -1    0    0  501    0  0.00000000000E+00  0.00000000000E+00  0.10900514907E+04  0.10900514907E+04  0.25500000000E-02 0. -1.
         -2   -1    0    0    0  501 -0.00000000000E+00 -0.00000000000E+00 -0.60971106962E+01  0.60971112294E+01  0.25500000000E-02 0.  1.
    9000005    2    1    2    0    0  0.56213282071E+02  0.24935400435E+02  0.90159598137E+03  0.90370044573E+03  0.41802749145E+01 0.  0.
         22    1    1    2    0    0 -0.56213282071E+02 -0.24935400435E+02  0.18235839860E+03  0.19244815618E+03  0.00000000000E+00 0.  1.
         22    1    3    3    0    0  0.43241808862E+02  0.20049349137E+02  0.72039525302E+03  0.72197032558E+03  0.00000000000E+00 0.  1.
         22    1    3    3    0    0  0.12971473209E+02  0.48860512977E+01  0.18120072835E+03  0.18173012015E+03  0.00000000000E+00 0.  1.
<mgrwt>
<rscale>  0 0.16304803E+03</rscale>
<asrwt>0</asrwt>
<pdfrwt beam="1">  1        2 0.16770032E+00 0.16304803E+03</pdfrwt>
<pdfrwt beam="2">  1       -2 0.93801656E-03 0.16304803E+03</pdfrwt>
<totfact> 0.51876890E+04</totfact>
</mgrwt>
</event>
<event>
 7    1  0.3960685E-009  0.1035087E+03  0.7818608E-02  0.1273086E+00
          2   -1    0    0  501    0  0.00000000000E+00  0.00000000000E+00  0.38857500915E+03  0.38857500916E+03  0.25500000000E-02 0. -1.
         -2   -1    0    0    0  501 -0.00000000000E+00 -0.00000000000E+00 -0.68931715195E+01  0.68931719912E+01  0.25500000000E-02 0.  1.
         23    2    1    2    0    0  0.00000000000E+00 -0.22204460493E-15  0.38168183763E+03  0.39546818115E+03  0.10350872970E+03 0.  0.
    9000005    2    3    3    0    0  0.12062769966E+02 -0.11254592557E+01  0.38299655171E+03  0.38328189579E+03  0.84779680205E+01 0.  0.
         22    1    3    3    0    0 -0.12062769966E+02  0.11254592557E+01 -0.13147140767E+01  0.12186285361E+02  0.00000000000E+00 0.  1.
         22    1    4    4    0    0 -0.92042892382E+00  0.92759650370E+00  0.66002412827E+02  0.66015347638E+02  0.00000000000E+00 0.  1.
         22    1    4    4    0    0  0.12983198890E+02 -0.20530557594E+01  0.31699413888E+03  0.31726654816E+03  0.00000000000E+00 0.  1.
<mgrwt>
<rscale>  0 0.10350873E+03</rscale>
<asrwt>0</asrwt>
<pdfrwt beam="1">  1        2 0.59780795E-01 0.10350873E+03</pdfrwt>
<pdfrwt beam="2">  1       -2 0.10604875E-02 0.10350873E+03</pdfrwt>
<totfact> 0.14071121E+05</totfact>
</mgrwt>
</event>
<event>
 7    1  0.3960685E-009  0.8618407E+02  0.7818608E-02  0.1312365E+00
         -2   -1    0    0    0  501 -0.00000000000E+00  0.00000000000E+00  0.17373353022E+02  0.17373353209E+02  0.25500000000E-02 0.  1.
          2   -1    0    0  501    0  0.00000000000E+00 -0.00000000000E+00 -0.10688343395E+03  0.10688343398E+03  0.25500000000E-02 0. -1.
         23    2    1    2    0    0  0.00000000000E+00  0.17763568394E-14 -0.89510080930E+02  0.12425678719E+03  0.86184073790E+02 0.  0.
    9000005    2    3    3    0    0  0.15348892444E+02  0.84382731438E+01  0.10098406183E+02  0.23120029986E+02  0.11214500712E+02 0.  0.
         22    1    3    3    0    0 -0.15348892444E+02 -0.84382731438E+01 -0.99608487113E+02  0.10113675721E+03  0.00000000000E+00 0. -1.
         22    1    4    4    0    0  0.15017426405E+02  0.10292126964E+02  0.70221901812E+01  0.19513127075E+02  0.00000000000E+00 0. -1.
         22    1    4    4    0    0  0.33146603861E+00 -0.18538538203E+01  0.30762160022E+01  0.36069029117E+01  0.00000000000E+00 0. -1.
<mgrwt>
<rscale>  0 0.86184074E+02</rscale>
<asrwt>0</asrwt>
<pdfrwt beam="2">  1        2 0.16443605E-01 0.86184074E+02</pdfrwt>
<pdfrwt beam="1">  1       -2 0.26728236E-02 0.86184074E+02</pdfrwt>
<totfact> 0.14604187E+05</totfact>
</mgrwt>
</event>
<event>
 7    1  0.3960685E-009  0.8959186E+02  0.7818608E-02  0.1303843E+00
          2   -1    0    0  501    0  0.00000000000E+00  0.00000000000E+00  0.30735794686E+03  0.30735794687E+03  0.25500000000E-02 0. -1.
         -2   -1    0    0    0  501 -0.00000000000E+00 -0.00000000000E+00 -0.65287889305E+01  0.65287894285E+01  0.25500000000E-02 0.  1.
         23    2    1    2    0    0  0.00000000000E+00  0.00000000000E+00  0.30082915792E+03  0.31388673629E+03  0.89591857687E+02 0.  0.
    9000005    2    3    3    0    0 -0.27896628483E+02  0.35656763178E+01  0.27234585694E+03  0.27385881650E+03  0.59539610238E+01 0.  0.
         22    1    3    3    0    0  0.27896628483E+02 -0.35656763178E+01  0.28483300981E+02  0.40027919795E+02  0.00000000000E+00 0.  1.
         22    1    4    4    0    0 -0.65936414061E+01  0.21090924936E+01  0.90300036067E+02  0.90565009202E+02  0.00000000000E+00 0. -1.
         22    1    4    4    0    0 -0.21302987077E+02  0.14565838243E+01  0.18204582088E+03  0.18329380730E+03  0.00000000000E+00 0. -1.
<mgrwt>
<rscale>  0 0.89591858E+02</rscale>
<asrwt>0</asrwt>
<pdfrwt beam="1">  1        2 0.47285846E-01 0.89591858E+02</pdfrwt>
<pdfrwt beam="2">  1       -2 0.10044289E-02 0.89591858E+02</pdfrwt>
<totfact> 0.18995413E+05</totfact>
</mgrwt>
</event>
<event>
 7    1  0.3960685E-009  0.8944234E+02  0.7818608E-02  0.1304208E+00
          2   -1    0    0  501    0  0.00000000000E+00  0.00000000000E+00  0.16043162846E+03  0.16043162848E+03  0.25500000000E-02 0. -1.
         -2   -1    0    0    0  501 -0.00000000000E+00 -0.00000000000E+00 -0.12466262898E+02  0.12466263159E+02  0.25500000000E-02 0.  1.
         23    2    1    2    0    0  0.00000000000E+00 -0.17763568394E-14  0.14796536557E+03  0.17289789164E+03  0.89442336328E+02 0.  0.
    9000005    2    3    3    0    0 -0.16270247216E+02 -0.69152242207E+01  0.15332145056E+03  0.15442550910E+03  0.52181786745E+01 0.  0.
         22    1    3    3    0    0  0.16270247216E+02  0.69152242207E+01 -0.53560849909E+01  0.18472382546E+02  0.00000000000E+00 0.  1.
         22    1    4    4    0    0 -0.96792965382E+01 -0.68046984187E+01  0.10077351344E+03  0.10146572679E+03  0.00000000000E+00 0.  1.
         22    1    4    4    0    0 -0.65909506781E+01 -0.11052580199E+00  0.52547937118E+02  0.52959782309E+02  0.00000000000E+00 0.  1.
<mgrwt>
<rscale>  0 0.89442336E+02</rscale>
<asrwt>0</asrwt>
<pdfrwt beam="1">  1        2 0.24681789E-01 0.89442336E+02</pdfrwt>
<pdfrwt beam="2">  1       -2 0.19178866E-02 0.89442336E+02</pdfrwt>
<totfact> 0.15069385E+05</totfact>
</mgrwt>
</event>
<event>
 6    1  0.3960685E-009  0.3183795E+03  0.7818608E-02  0.1076398E+00
         -2   -1    0    0    0  501 -0.00000000000E+00  0.00000000000E+00  0.71881657744E+02  0.71881657789E+02  0.25500000000E-02 0.  1.
          2   -1    0    0  501    0  0.00000000000E+00 -0.00000000000E+00 -0.35254309913E+03  0.35254309914E+03  0.25500000000E-02 0. -1.
    9000005    2    1    2    0    0 -0.21904579600E+02  0.59199840501E+02 -0.33502358772E+03  0.34112004712E+03  0.11732454949E+02 0.  0.
         22    1    1    2    0    0  0.21904579600E+02 -0.59199840501E+02  0.54362146329E+02  0.83304709809E+02  0.00000000000E+00 0.  1.
         22    1    3    3    0    0  0.53793286398E+00  0.32352489465E+01 -0.31133625207E+02  0.31305891236E+02  0.00000000000E+00 0. -1.
         22    1    3    3    0    0 -0.22442512464E+02  0.55964591555E+02 -0.30388996251E+03  0.30981415589E+03  0.00000000000E+00 0. -1.
<mgrwt>
<rscale>  0 0.31837954E+03</rscale>
<asrwt>0</asrwt>
<pdfrwt beam="2">  1        2 0.54237399E-01 0.31837954E+03</pdfrwt>
<pdfrwt beam="1">  1       -2 0.11058717E-01 0.31837954E+03</pdfrwt>
<totfact> 0.51757996E+03</totfact>
</mgrwt>
</event>
<event>
 7    1  0.3960685E-009  0.9154148E+02  0.7818608E-02  0.1299161E+00
         -2   -1    0    0    0  501 -0.00000000000E+00  0.00000000000E+00  0.11808494736E+02  0.11808495012E+02  0.25500000000E-02 0.  1.
          2   -1    0    0  501    0  0.00000000000E+00 -0.00000000000E+00 -0.17741132180E+03  0.17741132182E+03  0.25500000000E-02 0. -1.
         23    2    1    2    0    0  0.00000000000E+00 -0.35527136788E-14 -0.16560282707E+03  0.18921981683E+03  0.91541481033E+02 0.  0.
    9000005    2    3    3    0    0  0.39242616796E+02 -0.20154946852E+02 -0.95545816731E+02  0.10642978390E+03  0.15877372295E+02 0.  0.
         22    1    3    3    0    0 -0.39242616796E+02  0.20154946852E+02 -0.70057010335E+02  0.82790032930E+02  0.00000000000E+00 0. -1.
         22    1    4    4    0    0  0.33468972001E+02 -0.21832752169E+02 -0.74481341449E+02  0.84524028407E+02  0.00000000000E+00 0.  1.
         22    1    4    4    0    0  0.57736447951E+01  0.16778053174E+01 -0.21064475282E+02  0.21905755495E+02  0.00000000000E+00 0.  1.
<mgrwt>
<rscale>  0 0.91541481E+02</rscale>
<asrwt>0</asrwt>
<pdfrwt beam="2">  1        2 0.27294048E-01 0.91541481E+02</pdfrwt>
<pdfrwt beam="1">  1       -2 0.18166917E-02 0.91541481E+02</pdfrwt>
<totfact> 0.14659296E+05</totfact>
</mgrwt>
</event>
<event>
 6    1  0.3960685E-009  0.1596018E+03  0.7818608E-02  0.1189147E+00
         -2   -1    0    0    0  501 -0.00000000000E+00  0.00000000000E+00  0.84121686790E+02  0.84121686829E+02  0.25500000000E-02 0.  1.
          2   -1    0    0  501    0  0.00000000000E+00 -0.00000000000E+00 -0.75702047585E+02  0.75702047628E+02  0.25500000000E-02 0. -1.
    9000005    2    1    2    0    0  0.36558700174E+02  0.70375026910E+02  0.78526863875E+01  0.80517338709E+02  0.11497572718E+02 0.  0.
         22    1    1    2    0    0 -0.36558700174E+02 -0.70375026910E+02  0.56695281826E+00  0.79306395747E+02  0.00000000000E+00 0.  1.
         22    1    3    3    0    0  0.38856492651E+00  0.66863821135E+01  0.22291134881E+01  0.70588692730E+01  0.00000000000E+00 0. -1.
         22    1    3    3    0    0  0.36170135247E+02  0.63688644796E+02  0.56235728994E+01  0.73458469436E+02  0.00000000000E+00 0. -1.
<mgrwt>
<rscale>  0 0.15960180E+03</rscale>
<asrwt>0</asrwt>
<pdfrwt beam="2">  1        2 0.11646469E-01 0.15960180E+03</pdfrwt>
<pdfrwt beam="1">  1       -2 0.12941798E-01 0.15960180E+03</pdfrwt>
<totfact> 0.21761059E+04</totfact>
</mgrwt>
</event>
<event>
 7    1  0.3960685E-009  0.9233915E+02  0.7818608E-02  0.1297284E+00
          2   -1    0    0  501    0  0.00000000000E+00  0.00000000000E+00  0.16536430790E+03  0.16536430792E+03  0.25500000000E-02 0. -1.
         -2   -1    0    0    0  501 -0.00000000000E+00 -0.00000000000E+00 -0.12890505189E+02  0.12890505441E+02  0.25500000000E-02 0.  1.
         23    2    1    2    0    0  0.00000000000E+00  0.00000000000E+00  0.15247380271E+03  0.17825481336E+03  0.92339146482E+02 0.  0.
    9000005    2    3    3    0    0 -0.29421780868E+02  0.29940371274E+02  0.11239483786E+03  0.12021697704E+03  0.75799055900E+01 0.  0.
         22    1    3    3    0    0  0.29421780868E+02 -0.29940371274E+02  0.40078964845E+02  0.58037836318E+02  0.00000000000E+00 0.  1.
         22    1    4    4    0    0 -0.24978632884E+02  0.27806683221E+02  0.93621609739E+02  0.10080748753E+03  0.00000000000E+00 0. -1.
         22    1    4    4    0    0 -0.44431479842E+01  0.21336880528E+01  0.18773228125E+02  0.19409489507E+02  0.00000000000E+00 0. -1.
<mgrwt>
<rscale>  0 0.92339146E+02</rscale>
<asrwt>0</asrwt>
<pdfrwt beam="1">  1        2 0.25440663E-01 0.92339146E+02</pdfrwt>
<pdfrwt beam="2">  1       -2 0.19831547E-02 0.92339146E+02</pdfrwt>
<totfact> 0.13969858E+05</totfact>
</mgrwt>
</event>
<event>
 6    1  0.3960685E-009  0.1612939E+03  0.7818608E-02  0.1187244E+00
          2   -1    0    0  501    0  0.00000000000E+00  0.00000000000E+00  0.37140168078E+03  0.37140168079E+03  0.25500000000E-02 0. -1.
         -2   -1    0    0    0  501 -0.00000000000E+00 -0.00000000000E+00 -0.17511859546E+02  0.17511859732E+02  0.25500000000E-02 0.  1.
    9000005    2    1    2    0    0  0.26238889164E+02 -0.46644533563E+02  0.32221297877E+03  0.32672339529E+03  0.79234791568E+01 0.  0.
         22    1    1    2    0    0 -0.26238889164E+02  0.46644533563E+02  0.31676842460E+02  0.62190145233E+02  0.00000000000E+00 0.  1.
         22    1    3    3    0    0  0.13025903740E+02 -0.20688652591E+02  0.12462480116E+03  0.12700014007E+03  0.00000000000E+00 0.  1.
         22    1    3    3    0    0  0.13212985424E+02 -0.25955880972E+02  0.19758817762E+03  0.19972325522E+03  0.00000000000E+00 0.  1.
<mgrwt>
<rscale>  0 0.16129394E+03</rscale>
<asrwt>0</asrwt>
<pdfrwt beam="1">  1        2 0.57138719E-01 0.16129394E+03</pdfrwt>
<pdfrwt beam="2">  1       -2 0.26941323E-02 0.16129394E+03</pdfrwt>
<totfact> 0.40598695E+04</totfact>
</mgrwt>
</event>
<event>
 7    1  0.3960685E-009  0.8837483E+02  0.7818608E-02  0.1306836E+00
          2   -1    0    0  501    0  0.00000000000E+00  0.00000000000E+00  0.26759608827E+03  0.26759608828E+03  0.25500000000E-02 0. -1.
         -2   -1    0    0    0  501 -0.00000000000E+00 -0.00000000000E+00 -0.72965469017E+01  0.72965473473E+01  0.25500000000E-02 0.  1.
         23    2    1    2    0    0  0.00000000000E+00  0.00000000000E+00  0.26029954136E+03  0.27489263563E+03  0.88374826091E+02 0.  0.
    9000005    2    3    3    0    0  0.24606332922E+02  0.17998889660E+02  0.22874086414E+03  0.23101346338E+03  0.10742703863E+02 0.  0.
         22    1    3    3    0    0 -0.24606332922E+02 -0.17998889660E+02  0.31558677225E+02  0.43879172247E+02  0.00000000000E+00 0.  1.
         22    1    4    4    0    0  0.73095092536E+01  0.62587199226E+01  0.41089923057E+02  0.42201685718E+02  0.00000000000E+00 0. -1.
         22    1    4    4    0    0  0.17296823668E+02  0.11740169738E+02  0.18765094108E+03  0.18881177766E+03  0.00000000000E+00 0. -1.
<mgrwt>
<rscale>  0 0.88374826E+02</rscale>
<asrwt>0</asrwt>
<pdfrwt beam="1">  1        2 0.41168626E-01 0.88374826E+02</pdfrwt>
<pdfrwt beam="2">  1       -2 0.11225458E-02 0.88374826E+02</pdfrwt>
<totfact> 0.18711201E+05</totfact>
</mgrwt>
</event>
<event>
 7    1  0.3960685E-009  0.9091204E+02  0.7818608E-02  0.1300658E+00
         -2   -1    0    0    0  501 -0.00000000000E+00  0.00000000000E+00  0.51145477275E+01  0.51145483632E+01  0.25500000000E-02 0.  1.
          2   -1    0    0  501    0  0.00000000000E+00 -0.00000000000E+00 -0.40399462991E+03  0.40399462992E+03  0.25500000000E-02 0. -1.
         23    2    1    2    0    0  0.00000000000E+00 -0.71054273576E-14 -0.39888008218E+03  0.40910917828E+03  0.90912044262E+02 0.  0.
    9000005    2    3    3    0    0 -0.10256038738E+02  0.42625651330E+02 -0.17279669994E+03  0.17881408887E+03  0.13915688464E+02 0.  0.
         22    1    3    3    0    0  0.10256038738E+02 -0.42625651330E+02 -0.22608338224E+03  0.23029508941E+03  0.00000000000E+00 0.  1.
         22    1    4    4    0    0 -0.80160891183E+01  0.41844248244E+02 -0.16936891148E+03  0.17464543216E+03  0.00000000000E+00 0. -1.
         22    1    4    4    0    0 -0.22399496193E+01  0.78140308597E+00 -0.34277884606E+01  0.41686567154E+01  0.00000000000E+00 0. -1.
<mgrwt>
<rscale>  0 0.90912044E+02</rscale>
<asrwt>0</asrwt>
<pdfrwt beam="2">  1        2 0.62152995E-01 0.90912044E+02</pdfrwt>
<pdfrwt beam="1">  1       -2 0.78685386E-03 0.90912044E+02</pdfrwt>
<totfact> 0.20188676E+05</totfact>
</mgrwt>
</event>
<event>
 7    1  0.3960685E-009  0.9205593E+02  0.7818608E-02  0.1297948E+00
         -2   -1    0    0    0  501 -0.00000000000E+00  0.00000000000E+00  0.27162888979E+01  0.27162900949E+01  0.25500000000E-02 0.  1.
          2   -1    0    0  501    0  0.00000000000E+00 -0.00000000000E+00 -0.77995137865E+03  0.77995137865E+03  0.25500000000E-02 0. -1.
         23    2    1    2    0    0  0.00000000000E+00  0.22204460493E-15 -0.77723508975E+03  0.78266766875E+03  0.92055933883E+02 0.  0.
    9000005    2    3    3    0    0  0.26290848081E+02  0.14197529731E+01 -0.70837751617E+03  0.70894799817E+03  0.10739380614E+02 0.  0.
         22    1    3    3    0    0 -0.26290848081E+02 -0.14197529731E+01 -0.68857573578E+02  0.73719670579E+02  0.00000000000E+00 0.  1.
         22    1    4    4    0    0  0.57401360891E+01  0.47034377502E+01 -0.22586371312E+03  0.22598559333E+03  0.00000000000E+00 0.  1.
         22    1    4    4    0    0  0.20550711992E+02 -0.32836847770E+01 -0.48251380305E+03  0.48296240483E+03  0.00000000000E+00 0.  1.
<mgrwt>
<rscale>  0 0.92055934E+02</rscale>
<asrwt>0</asrwt>
<pdfrwt beam="2">  1        2 0.11999234E+00 0.92055934E+02</pdfrwt>
<pdfrwt beam="1">  1       -2 0.41789131E-03 0.92055934E+02</pdfrwt>
<totfact> 0.23655524E+05</totfact>
</mgrwt>
</event>
<event>
 7    1  0.3960685E-009  0.8934864E+02  0.7818608E-02  0.1304437E+00
          2   -1    0    0  501    0  0.00000000000E+00  0.00000000000E+00  0.51393755644E+03  0.51393755645E+03  0.25500000000E-02 0. -1.
         -2   -1    0    0    0  501 -0.00000000000E+00 -0.00000000000E+00 -0.38833411578E+01  0.38833419951E+01  0.25500000000E-02 0.  1.
         23    2    1    2    0    0  0.00000000000E+00  0.00000000000E+00  0.51005421528E+03  0.51782089844E+03  0.89348644844E+02 0.  0.
    9000005    2    3    3    0    0 -0.65112850247E+01  0.24556690745E+02  0.46633547077E+03  0.46725651854E+03  0.14644279674E+02 0.  0.
         22    1    3    3    0    0  0.65112850247E+01 -0.24556690745E+02  0.43718744511E+02  0.50564379899E+02  0.00000000000E+00 0.  1.
         22    1    4    4    0    0 -0.74370986947E+01  0.22742352907E+02  0.45953578686E+03  0.46015830369E+03  0.00000000000E+00 0. -1.
         22    1    4    4    0    0  0.92581366995E+00  0.18143378382E+01  0.67996839123E+01  0.70982148495E+01  0.00000000000E+00 0. -1.
<mgrwt>
<rscale>  0 0.89348645E+02</rscale>
<asrwt>0</asrwt>
<pdfrwt beam="1">  1        2 0.79067286E-01 0.89348645E+02</pdfrwt>
<pdfrwt beam="2">  1       -2 0.59743739E-03 0.89348645E+02</pdfrwt>
<totfact> 0.22936635E+05</totfact>
</mgrwt>
</event>
<event>
 7    1  0.3960685E-009  0.9149418E+02  0.7818608E-02  0.1299273E+00
          2   -1    0    0  501    0  0.00000000000E+00  0.00000000000E+00  0.14631650809E+03  0.14631650811E+03  0.25500000000E-02 0. -1.
         -2   -1    0    0    0  501 -0.00000000000E+00 -0.00000000000E+00 -0.14303212837E+02  0.14303213064E+02  0.25500000000E-02 0.  1.
         23    2    1    2    0    0  0.71054273576E-14  0.00000000000E+00  0.13201329525E+03  0.16061972118E+03  0.91494178543E+02 0.  0.
    9000005    2    3    3    0    0 -0.33367951899E+02 -0.15982133939E+02  0.20935946772E+02  0.43542711628E+02  0.94236431110E+01 0.  0.
         22    1    3    3    0    0  0.33367951899E+02  0.15982133939E+02  0.11107734848E+03  0.11707700955E+03  0.00000000000E+00 0. -1.
         22    1    4    4    0    0 -0.12311759379E+02 -0.10037087399E+02  0.12004578391E+02  0.19910611362E+02  0.00000000000E+00 0.  1.
         22    1    4    4    0    0 -0.21056192521E+02 -0.59450465398E+01  0.89313683804E+01  0.23632100266E+02  0.00000000000E+00 0.  1.
<mgrwt>
<rscale>  0 0.91494179E+02</rscale>
<asrwt>0</asrwt>
<pdfrwt beam="1">  1        2 0.22510231E-01 0.91494179E+02</pdfrwt>
<pdfrwt beam="2">  1       -2 0.22004944E-02 0.91494179E+02</pdfrwt>
<totfact> 0.13733208E+05</totfact>
</mgrwt>
</event>
<event>
 7    1  0.3960685E-009  0.9250187E+02  0.7818608E-02  0.1296904E+00
         -2   -1    0    0    0  501 -0.00000000000E+00  0.00000000000E+00  0.63004447887E+01  0.63004453047E+01  0.25500000000E-02 0.  1.
          2   -1    0    0  501    0  0.00000000000E+00 -0.00000000000E+00 -0.33952346121E+03  0.33952346122E+03  0.25500000000E-02 0. -1.
         23    2    1    2    0    0  0.35527136788E-14  0.00000000000E+00 -0.33322301642E+03  0.34582390652E+03  0.92501868363E+02 0.  0.
    9000005    2    3    3    0    0  0.25004221846E+02 -0.37612893063E+02 -0.16915387108E+03  0.17565156656E+03  0.14159798735E+02 0.  0.
         22    1    3    3    0    0 -0.25004221846E+02  0.37612893063E+02 -0.16406914534E+03  0.17017233996E+03  0.00000000000E+00 0.  1.
         22    1    4    4    0    0  0.14696338494E+02 -0.27638779758E+02 -0.92107489443E+02  0.97281417152E+02  0.00000000000E+00 0.  1.
         22    1    4    4    0    0  0.10307883352E+02 -0.99741133049E+01 -0.77046381637E+02  0.78370149412E+02  0.00000000000E+00 0.  1.
<mgrwt>
<rscale>  0 0.92501868E+02</rscale>
<asrwt>0</asrwt>
<pdfrwt beam="2">  1        2 0.52234365E-01 0.92501868E+02</pdfrwt>
<pdfrwt beam="1">  1       -2 0.96929950E-03 0.92501868E+02</pdfrwt>
<totfact> 0.18099140E+05</totfact>
</mgrwt>
</event>
<event>
 7    1  0.3960685E-009  0.8482338E+02  0.7818608E-02  0.1315895E+00
          2   -1    0    0  501    0  0.00000000000E+00  0.00000000000E+00  0.44039995483E+03  0.44039995483E+03  0.25500000000E-02 0.  1.
         -2   -1    0    0    0  501 -0.00000000000E+00 -0.00000000000E+00 -0.40843587127E+01  0.40843595087E+01  0.25500000000E-02 0. -1.
         23    2    1    2    0    0  0.00000000000E+00  0.00000000000E+00  0.43631559611E+03  0.44448431434E+03  0.84823382887E+02 0.  0.
    9000005    2    3    3    0    0  0.24784050823E+02  0.20639931429E+02  0.35970452427E+03  0.36136083828E+03  0.12411877907E+02 0.  0.
         22    1    3    3    0    0 -0.24784050823E+02 -0.20639931429E+02  0.76611071839E+02  0.83123476064E+02  0.00000000000E+00 0. -1.
         22    1    4    4    0    0  0.17719779201E+02  0.86821969144E+01  0.16823716198E+03  0.16939041823E+03  0.00000000000E+00 0.  1.
         22    1    4    4    0    0  0.70642716225E+01  0.11957734514E+02  0.19146736230E+03  0.19197042005E+03  0.00000000000E+00 0.  1.
<mgrwt>
<rscale>  0 0.84823383E+02</rscale>
<asrwt>0</asrwt>
<pdfrwt beam="1">  1        2 0.67753803E-01 0.84823383E+02</pdfrwt>
<pdfrwt beam="2">  1       -2 0.62836328E-03 0.84823383E+02</pdfrwt>
<totfact> 0.24988519E+05</totfact>
</mgrwt>
</event>
<event>
 7    1  0.3960685E-009  0.9164046E+02  0.7818608E-02  0.1298927E+00
          2   -1    0    0  501    0  0.00000000000E+00  0.00000000000E+00  0.29637128732E+02  0.29637128841E+02  0.25500000000E-02 0. -1.
         -2   -1    0    0    0  501 -0.00000000000E+00 -0.00000000000E+00 -0.70839975103E+02  0.70839975149E+02  0.25500000000E-02 0.  1.
         23    2    1    2    0    0  0.00000000000E+00  0.00000000000E+00 -0.41202846372E+02  0.10047710399E+03  0.91640459826E+02 0.  0.
    9000005    2    3    3    0    0 -0.11513172018E+02  0.94399647584E+01 -0.67669918282E+02  0.70109819620E+02  0.10700602891E+02 0.  0.
         22    1    3    3    0    0  0.11513172018E+02 -0.94399647584E+01  0.26467071910E+02  0.30367284371E+02  0.00000000000E+00 0. -1.
         22    1    4    4    0    0 -0.11328787179E+02  0.45925391680E+01 -0.58198047963E+02  0.59468021841E+02  0.00000000000E+00 0. -1.
         22    1    4    4    0    0 -0.18438483886E+00  0.48474255904E+01 -0.94718703193E+01  0.10641797779E+02  0.00000000000E+00 0. -1.
<mgrwt>
<rscale>  0 0.91640460E+02</rscale>
<asrwt>0</asrwt>
<pdfrwt beam="1">  1        2 0.45595583E-02 0.91640460E+02</pdfrwt>
<pdfrwt beam="2">  1       -2 0.10898458E-01 0.91640460E+02</pdfrwt>
<totfact> 0.86857819E+04</totfact>
</mgrwt>
</event>
<event>
 7    1  0.3960685E-009  0.1047329E+03  0.7818608E-02  0.1270647E+00
         -2   -1    0    0    0  501 -0.00000000000E+00  0.00000000000E+00  0.93043280548E+01  0.93043284042E+01  0.25500000000E-02 0.  1.
          2   -1    0    0  501    0  0.00000000000E+00 -0.00000000000E+00 -0.29472804040E+03  0.29472804041E+03  0.25500000000E-02 0. -1.
         23    2    1    2    0    0  0.00000000000E+00  0.00000000000E+00 -0.28542371235E+03  0.30403236882E+03  0.10473292567E+03 0.  0.
    9000005    2    3    3    0    0  0.41114796531E+02 -0.31227327228E+02 -0.16687329734E+03  0.17472740620E+03  0.41709293790E+01 0.  0.
         22    1    3    3    0    0 -0.41114796531E+02  0.31227327228E+02 -0.11855041500E+03  0.12930496262E+03  0.00000000000E+00 0.  1.
         22    1    4    4    0    0  0.16355891885E+02 -0.12687066210E+02 -0.60148702853E+02  0.63610874096E+02  0.00000000000E+00 0. -1.
         22    1    4    4    0    0  0.24758904646E+02 -0.18540261018E+02 -0.10672459449E+03  0.11111653210E+03  0.00000000000E+00 0. -1.
<mgrwt>
<rscale>  0 0.10473293E+03</rscale>
<asrwt>0</asrwt>
<pdfrwt beam="2">  1        2 0.45342768E-01 0.10473293E+03</pdfrwt>
<pdfrwt beam="1">  1       -2 0.14314353E-02 0.10473293E+03</pdfrwt>
<totfact> 0.12291461E+05</totfact>
</mgrwt>
</event>
<event>
 7    1  0.3960685E-009  0.9063740E+02  0.7818608E-02  0.1301315E+00
         -2   -1    0    0    0  501 -0.00000000000E+00  0.00000000000E+00  0.51965568644E+01  0.51965574900E+01  0.25500000000E-02 0.  1.
          2   -1    0    0  501    0  0.00000000000E+00 -0.00000000000E+00 -0.39522019882E+03  0.39522019883E+03  0.25500000000E-02 0. -1.
         23    2    1    2    0    0 -0.35527136788E-14  0.00000000000E+00 -0.39002364195E+03  0.40041675632E+03  0.90637395461E+02 0.  0.
    9000005    2    3    3    0    0  0.31217762383E+02  0.12548173114E+02 -0.32595207119E+03  0.32804845167E+03  0.15460549663E+02 0.  0.
         22    1    3    3    0    0 -0.31217762383E+02 -0.12548173114E+02 -0.64071570764E+02  0.72368304642E+02  0.00000000000E+00 0.  1.
         22    1    4    4    0    0  0.24269121536E+02  0.13946177820E+02 -0.29348136703E+03  0.29481315936E+03  0.00000000000E+00 0.  1.
         22    1    4    4    0    0  0.69486408464E+01 -0.13980047064E+01 -0.32470704155E+02  0.33235292313E+02  0.00000000000E+00 0.  1.
<mgrwt>
<rscale>  0 0.90637395E+02</rscale>
<asrwt>0</asrwt>
<pdfrwt beam="2">  1        2 0.60803084E-01 0.90637395E+02</pdfrwt>
<pdfrwt beam="1">  1       -2 0.79947065E-03 0.90637395E+02</pdfrwt>
<totfact> 0.20192228E+05</totfact>
</mgrwt>
</event>
<event>
 6    1  0.3960685E-009  0.3111296E+03  0.7818608E-02  0.1079806E+00
         -2   -1    0    0    0  501 -0.00000000000E+00  0.00000000000E+00  0.28412219201E+03  0.28412219202E+03  0.25500000000E-02 0. -1.
          2   -1    0    0  501    0  0.00000000000E+00 -0.00000000000E+00 -0.85176028105E+02  0.85176028144E+02  0.25500000000E-02 0.  1.
    9000005    2    1    2    0    0  0.10046024213E+03  0.78042345362E+02 -0.67568264604E+01  0.12743754092E+03  0.34357262292E+01 0.  0.
         22    1    1    2    0    0 -0.10046024213E+03 -0.78042345362E+02  0.20570299036E+03  0.24186067924E+03  0.00000000000E+00 0. -1.
         22    1    3    3    0    0  0.99088259370E+02  0.77127253154E+02 -0.70397795041E+01  0.12576428277E+03  0.00000000000E+00 0.  1.
         22    1    3    3    0    0  0.13719827586E+01  0.91509220818E+00  0.28295304366E+00  0.16732581583E+01  0.00000000000E+00 0.  1.
<mgrwt>
<rscale>  0 0.31112955E+03</rscale>
<asrwt>0</asrwt>
<pdfrwt beam="2">  1        2 0.13104004E-01 0.31112955E+03</pdfrwt>
<pdfrwt beam="1">  1       -2 0.43711107E-01 0.31112955E+03</pdfrwt>
<totfact> 0.23040808E+03</totfact>
</mgrwt>
</event>
<event>
 7    1  0.3960685E-009  0.9221829E+02  0.7818608E-02  0.1297567E+00
         -2   -1    0    0    0  501 -0.00000000000E+00  0.00000000000E+00  0.24139236396E+02  0.24139236531E+02  0.25500000000E-02 0. -1.
          2   -1    0    0  501    0  0.00000000000E+00 -0.00000000000E+00 -0.88074589751E+02  0.88074589788E+02  0.25500000000E-02 0.  1.
         23    2    1    2    0    0  0.00000000000E+00  0.00000000000E+00 -0.63935353355E+02  0.11221382632E+03  0.92218292158E+02 0.  0.
    9000005    2    3    3    0    0  0.38250815360E+01 -0.22148319765E+02 -0.80947685927E+02  0.84025197820E+02  0.15895579879E+01 0.  0.
         22    1    3    3    0    0 -0.38250815360E+01  0.22148319765E+02  0.17012332571E+02  0.28188628499E+02  0.00000000000E+00 0. -1.
         22    1    4    4    0    0  0.29060662678E+00 -0.45391772796E+01 -0.17949419067E+02  0.18516755316E+02  0.00000000000E+00 0.  1.
         22    1    4    4    0    0  0.35344749092E+01 -0.17609142485E+02 -0.62998266859E+02  0.65508442503E+02  0.00000000000E+00 0.  1.
<mgrwt>
<rscale>  0 0.92218292E+02</rscale>
<asrwt>0</asrwt>
<pdfrwt beam="2">  1        2 0.13549937E-01 0.92218292E+02</pdfrwt>
<pdfrwt beam="1">  1       -2 0.37137287E-02 0.92218292E+02</pdfrwt>
<totfact> 0.11444209E+05</totfact>
</mgrwt>
</event>
<event>
 7    1  0.3960685E-009  0.8831858E+02  0.7818608E-02  0.1306975E+00
          2   -1    0    0  501    0  0.00000000000E+00  0.00000000000E+00  0.36061787241E+03  0.36061787242E+03  0.25500000000E-02 0. -1.
         -2   -1    0    0    0  501 -0.00000000000E+00 -0.00000000000E+00 -0.54075041464E+01  0.54075047476E+01  0.25500000000E-02 0.  1.
         23    2    1    2    0    0  0.00000000000E+00  0.17763568394E-14  0.35521036826E+03  0.36602537717E+03  0.88318576800E+02 0.  0.
    9000005    2    3    3    0    0 -0.62506496629E+01 -0.15495316165E+02  0.34644318337E+03  0.34715638209E+03  0.14679880034E+02 0.  0.
         22    1    3    3    0    0  0.62506496629E+01  0.15495316165E+02  0.87671848934E+01  0.18868995077E+02  0.00000000000E+00 0.  1.
         22    1    4    4    0    0 -0.47138833463E+01  0.14930260133E+01  0.10117437450E+03  0.10129513255E+03  0.00000000000E+00 0.  1.
         22    1    4    4    0    0 -0.15367663167E+01 -0.16988342178E+02  0.24526880887E+03  0.24586124954E+03  0.00000000000E+00 0.  1.
<mgrwt>
<rscale>  0 0.88318577E+02</rscale>
<asrwt>0</asrwt>
<pdfrwt beam="1">  1        2 0.55479675E-01 0.88318577E+02</pdfrwt>
<pdfrwt beam="2">  1       -2 0.83192374E-03 0.88318577E+02</pdfrwt>
<totfact> 0.20923959E+05</totfact>
</mgrwt>
</event>
<event>
 7    1  0.3960685E-009  0.9621457E+02  0.7818608E-02  0.1288464E+00
         -2   -1    0    0    0  501 -0.00000000000E+00  0.00000000000E+00  0.23551957123E+01  0.23551970928E+01  0.25500000000E-02 0.  1.
          2   -1    0    0  501    0  0.00000000000E+00 -0.00000000000E+00 -0.98264026707E+03  0.98264026707E+03  0.25500000000E-02 0. -1.
         23    2    1    2    0    0  0.00000000000E+00  0.17763568394E-14 -0.98028507135E+03  0.98499546416E+03  0.96214569068E+02 0.  0.
    9000005    2    3    3    0    0  0.34779831500E+01  0.13550173659E+02 -0.96101766166E+03  0.96118503264E+03  0.11225746037E+02 0.  0.
         22    1    3    3    0    0 -0.34779831500E+01 -0.13550173659E+02 -0.19267409692E+02  0.23810431521E+02  0.00000000000E+00 0.  1.
         22    1    4    4    0    0  0.43800637071E+01  0.14731977066E+02 -0.93403608977E+03  0.93416253034E+03  0.00000000000E+00 0. -1.
         22    1    4    4    0    0 -0.90208055710E+00 -0.11818034065E+01 -0.26981571897E+02  0.27022502301E+02  0.00000000000E+00 0. -1.
<mgrwt>
<rscale>  0 0.96214569E+02</rscale>
<asrwt>0</asrwt>
<pdfrwt beam="2">  1        2 0.15117510E+00 0.96214569E+02</pdfrwt>
<pdfrwt beam="1">  1       -2 0.36233869E-03 0.96214569E+02</pdfrwt>
<totfact> 0.21673040E+05</totfact>
</mgrwt>
</event>
<event>
 7    1  0.3960685E-009  0.9126712E+02  0.7818608E-02  0.1299812E+00
         -2   -1    0    0    0  501 -0.00000000000E+00  0.00000000000E+00  0.17131005715E+01  0.17131024694E+01  0.25500000000E-02 0.  1.
          2   -1    0    0  501    0  0.00000000000E+00 -0.00000000000E+00 -0.12155858433E+04  0.12155858433E+04  0.25500000000E-02 0. -1.
         23    2    1    2    0    0  0.00000000000E+00  0.88817841970E-15 -0.12138727427E+04  0.12172989457E+04  0.91267123534E+02 0.  0.
    9000005    2    3    3    0    0 -0.10370026380E+02  0.77337234739E+01 -0.11903733246E+04  0.11904741331E+04  0.85241750275E+01 0.  0.
         22    1    3    3    0    0  0.10370026380E+02 -0.77337234739E+01 -0.23499418043E+02  0.26824812660E+02  0.00000000000E+00 0.  1.
         22    1    4    4    0    0 -0.11449110317E+02  0.67327621368E+01 -0.11448003515E+04  0.11448773983E+04  0.00000000000E+00 0. -1.
         22    1    4    4    0    0  0.10790839371E+01  0.10009613371E+01 -0.45572973108E+02  0.45596734791E+02  0.00000000000E+00 0. -1.
<mgrwt>
<rscale>  0 0.91267124E+02</rscale>
<asrwt>0</asrwt>
<pdfrwt beam="2">  1        2 0.18701252E+00 0.91267124E+02</pdfrwt>
<pdfrwt beam="1">  1       -2 0.26355505E-03 0.91267124E+02</pdfrwt>
<totfact> 0.24766512E+05</totfact>
</mgrwt>
</event>
<event>
 7    1  0.3960685E-009  0.9192784E+02  0.7818608E-02  0.1298249E+00
         -2   -1    0    0    0  501 -0.00000000000E+00  0.00000000000E+00  0.13203389890E+02  0.13203390136E+02  0.25500000000E-02 0.  1.
          2   -1    0    0  501    0  0.00000000000E+00 -0.00000000000E+00 -0.16001057765E+03  0.16001057767E+03  0.25500000000E-02 0. -1.
         23    2    1    2    0    0  0.71054273576E-14  0.35527136788E-14 -0.14680718776E+03  0.17321396781E+03  0.91927842709E+02 0.  0.
    9000005    2    3    3    0    0 -0.29096451846E+02 -0.26178024256E+02 -0.11839134251E+03  0.12484711216E+03  0.61966901934E+01 0.  0.
         22    1    3    3    0    0  0.29096451846E+02  0.26178024256E+02 -0.28415845254E+02  0.48366855650E+02  0.00000000000E+00 0.  1.
         22    1    4    4    0    0 -0.20706100379E+02 -0.18835718332E+02 -0.75223763366E+02  0.80262951932E+02  0.00000000000E+00 0. -1.
         22    1    4    4    0    0 -0.83903514670E+01 -0.73423059241E+01 -0.43167579140E+02  0.44584160224E+02  0.00000000000E+00 0. -1.
<mgrwt>
<rscale>  0 0.91927843E+02</rscale>
<asrwt>0</asrwt>
<pdfrwt beam="2">  1        2 0.24617011E-01 0.91927843E+02</pdfrwt>
<pdfrwt beam="1">  1       -2 0.20312909E-02 0.91927843E+02</pdfrwt>
<totfact> 0.13979421E+05</totfact>
</mgrwt>
</event>
<event>
 7    1  0.3960685E-009  0.9014117E+02  0.7818608E-02  0.1302510E+00
         -2   -1    0    0    0  501 -0.00000000000E+00  0.00000000000E+00  0.62838944097E+03  0.62838944098E+03  0.25500000000E-02 0.  1.
          2   -1    0    0  501    0  0.00000000000E+00 -0.00000000000E+00 -0.32326406579E+01  0.32326416636E+01  0.25500000000E-02 0. -1.
         23    2    1    2    0    0  0.00000000000E+00  0.00000000000E+00  0.62515680032E+03  0.63162208264E+03  0.90141168733E+02 0.  0.
    9000005    2    3    3    0    0  0.34173105071E+02  0.25411521025E+02  0.39771488922E+03  0.40022768030E+03  0.13838947316E+02 0.  0.
         22    1    3    3    0    0 -0.34173105071E+02 -0.25411521025E+02  0.22744191110E+03  0.23139440234E+03  0.00000000000E+00 0. -1.
         22    1    4    4    0    0  0.92232900897E+01  0.13776051597E+02  0.18438734604E+03  0.18513114826E+03  0.00000000000E+00 0. -1.
         22    1    4    4    0    0  0.24949814981E+02  0.11635469428E+02  0.21332754318E+03  0.21509653204E+03  0.00000000000E+00 0. -1.
<mgrwt>
<rscale>  0 0.90141169E+02</rscale>
<asrwt>0</asrwt>
<pdfrwt beam="2">  1        2 0.49732912E-03 0.90141169E+02</pdfrwt>
<pdfrwt beam="1">  1       -2 0.96675355E-01 0.90141169E+02</pdfrwt>
<totfact> 0.30923947E+04</totfact>
</mgrwt>
</event>
<event>
 7    1  0.3960685E-009  0.9102360E+02  0.7818608E-02  0.1300392E+00
          2   -1    0    0  501    0  0.00000000000E+00  0.00000000000E+00  0.50792730397E+01  0.50792736798E+01  0.25500000000E-02 0.  1.
         -2   -1    0    0    0  501 -0.00000000000E+00 -0.00000000000E+00 -0.40779929665E+03  0.40779929666E+03  0.25500000000E-02 0. -1.
         23    2    1    2    0    0  0.00000000000E+00  0.00000000000E+00 -0.40272002362E+03  0.41287857034E+03  0.91023603684E+02 0.  0.
    9000005    2    3    3    0    0 -0.25426895396E+02  0.24360387499E+01 -0.37199670417E+03  0.37292380027E+03  0.61766978042E+01 0.  0.
         22    1    3    3    0    0  0.25426895396E+02 -0.24360387499E+01 -0.30723319442E+02  0.39954770075E+02  0.00000000000E+00 0.  1.
         22    1    4    4    0    0 -0.20462360776E+02  0.38599692399E+01 -0.27335055487E+03  0.27414254215E+03  0.00000000000E+00 0.  1.
         22    1    4    4    0    0 -0.49645346200E+01 -0.14239304900E+01 -0.98646149308E+02  0.98781258118E+02  0.00000000000E+00 0.  1.
<mgrwt>
<rscale>  0 0.91023604E+02</rscale>
<asrwt>0</asrwt>
<pdfrwt beam="1">  1        2 0.78142699E-03 0.91023604E+02</pdfrwt>
<pdfrwt beam="2">  1       -2 0.62738328E-01 0.91023604E+02</pdfrwt>
<totfact> 0.42318752E+04</totfact>
</mgrwt>
</event>
<event>
 7    1  0.3960685E-009  0.9119488E+02  0.7818608E-02  0.1299984E+00
         -2   -1    0    0    0  501 -0.00000000000E+00  0.00000000000E+00  0.14578744042E+02  0.14578744265E+02  0.25500000000E-02 0.  1.
          2   -1    0    0  501    0  0.00000000000E+00 -0.00000000000E+00 -0.14261355845E+03  0.14261355848E+03  0.25500000000E-02 0. -1.
         23    2    1    2    0    0 -0.35527136788E-14  0.71054273576E-14 -0.12803481441E+03  0.15719230274E+03  0.91194881103E+02 0.  0.
    9000005    2    3    3    0    0 -0.27654002920E+02  0.34962222448E+02 -0.59774164440E+02  0.75665514440E+02  0.12853733503E+02 0.  0.
         22    1    3    3    0    0  0.27654002920E+02 -0.34962222448E+02 -0.68260649970E+02  0.81526788299E+02  0.00000000000E+00 0.  1.
         22    1    4    4    0    0 -0.13196751764E+01  0.38893509859E+01 -0.11221465211E+01  0.42576761828E+01  0.00000000000E+00 0.  1.
         22    1    4    4    0    0 -0.26334327744E+02  0.31072871462E+02 -0.58652017919E+02  0.71407838258E+02  0.00000000000E+00 0.  1.
<mgrwt>
<rscale>  0 0.91194881E+02</rscale>
<asrwt>0</asrwt>
<pdfrwt beam="2">  1        2 0.21940547E-01 0.91194881E+02</pdfrwt>
<pdfrwt beam="1">  1       -2 0.22428838E-02 0.91194881E+02</pdfrwt>
<totfact> 0.13736904E+05</totfact>
</mgrwt>
</event>
<event>
 7    1  0.3960685E-009  0.9033891E+02  0.7818608E-02  0.1302033E+00
          2   -1    0    0  501    0  0.00000000000E+00  0.00000000000E+00  0.58469537655E+03  0.58469537656E+03  0.25500000000E-02 0.  1.
         -2   -1    0    0    0  501 -0.00000000000E+00 -0.00000000000E+00 -0.34894743860E+01  0.34894753177E+01  0.25500000000E-02 0. -1.
         23    2    1    2    0    0  0.00000000000E+00  0.00000000000E+00  0.58120590217E+03  0.58818485188E+03  0.90338913338E+02 0.  0.
    9000005    2    3    3    0    0  0.42790945134E+02 -0.67550687011E+01  0.36971229270E+03  0.37230006134E+03  0.65924474469E+01 0.  0.
         22    1    3    3    0    0 -0.42790945134E+02  0.67550687011E+01  0.21149360947E+03  0.21588479054E+03  0.00000000000E+00 0.  1.
         22    1    4    4    0    0  0.40116906266E+02 -0.62644152521E+01  0.35691971344E+03  0.35922178512E+03  0.00000000000E+00 0. -1.
         22    1    4    4    0    0  0.26740388675E+01 -0.49065344898E+00  0.12792579261E+02  0.13078276217E+02  0.00000000000E+00 0. -1.
<mgrwt>
<rscale>  0 0.90338913E+02</rscale>
<asrwt>0</asrwt>
<pdfrwt beam="1">  1        2 0.89953223E-01 0.90338913E+02</pdfrwt>
<pdfrwt beam="2">  1       -2 0.53684176E-03 0.90338913E+02</pdfrwt>
<totfact> 0.23174698E+05</totfact>
</mgrwt>
</event>
<event>
 7    1  0.3960685E-009  0.9014233E+02  0.7818608E-02  0.1302507E+00
          2   -1    0    0  501    0  0.00000000000E+00  0.00000000000E+00  0.10879634671E+04  0.10879634671E+04  0.25500000000E-02 0. -1.
         -2   -1    0    0    0  501 -0.00000000000E+00 -0.00000000000E+00 -0.18671666166E+01  0.18671683579E+01  0.25500000000E-02 0.  1.
         23    2    1    2    0    0  0.00000000000E+00  0.35527136788E-14  0.10860963005E+04  0.10898306355E+04  0.90142332259E+02 0.  0.
    9000005    2    3    3    0    0 -0.95056356519E+01 -0.27635379378E+02  0.95261547356E+03  0.95318802696E+03  0.15398148125E+02 0.  0.
         22    1    3    3    0    0  0.95056356519E+01  0.27635379378E+02  0.13348082691E+03  0.13664260850E+03  0.00000000000E+00 0.  1.
         22    1    4    4    0    0 -0.39838133939E+01 -0.13259118910E+02  0.67780622084E+03  0.67794759975E+03  0.00000000000E+00 0.  1.
         22    1    4    4    0    0 -0.55218222581E+01 -0.14376260468E+02  0.27480925272E+03  0.27524042720E+03  0.00000000000E+00 0.  1.
<mgrwt>
<rscale>  0 0.90142332E+02</rscale>
<asrwt>0</asrwt>
<pdfrwt beam="1">  1        2 0.16737923E+00 0.90142332E+02</pdfrwt>
<pdfrwt beam="2">  1       -2 0.28725613E-03 0.90142332E+02</pdfrwt>
<totfact> 0.25789001E+05</totfact>
</mgrwt>
</event>
<event>
 7    1  0.3960685E-009  0.9161216E+02  0.7818608E-02  0.1298994E+00
          2   -1    0    0  501    0  0.00000000000E+00  0.00000000000E+00  0.34084102102E+03  0.34084102103E+03  0.25500000000E-02 0. -1.
         -2   -1    0    0    0  501 -0.00000000000E+00 -0.00000000000E+00 -0.61559393861E+01  0.61559399143E+01  0.25500000000E-02 0.  1.
         23    2    1    2    0    0  0.00000000000E+00  0.00000000000E+00  0.33468508164E+03  0.34699696095E+03  0.91612155504E+02 0.  0.
    9000005    2    3    3    0    0  0.28295172975E+02  0.35197337728E+02  0.17439857971E+03  0.18046998987E+03  0.10727685733E+02 0.  0.
         22    1    3    3    0    0 -0.28295172975E+02 -0.35197337728E+02  0.16028650193E+03  0.16652697108E+03  0.00000000000E+00 0. -1.
         22    1    4    4    0    0  0.23521160423E+02  0.22679569546E+02  0.11314445158E+03  0.11776788520E+03  0.00000000000E+00 0.  1.
         22    1    4    4    0    0  0.47740125515E+01  0.12517768182E+02  0.61254128128E+02  0.62702104660E+02  0.00000000000E+00 0.  1.
<mgrwt>
<rscale>  0 0.91612156E+02</rscale>
<asrwt>0</asrwt>
<pdfrwt beam="1">  1        2 0.52437102E-01 0.91612156E+02</pdfrwt>
<pdfrwt beam="2">  1       -2 0.94706724E-03 0.91612156E+02</pdfrwt>
<totfact> 0.18598113E+05</totfact>
</mgrwt>
</event>
<event>
 7    1  0.3960685E-009  0.9248146E+02  0.7818608E-02  0.1296951E+00
         -2   -1    0    0    0  501 -0.00000000000E+00  0.00000000000E+00  0.29913448474E+01  0.29913459342E+01  0.25500000000E-02 0. -1.
          2   -1    0    0  501    0  0.00000000000E+00 -0.00000000000E+00 -0.71479714487E+03  0.71479714488E+03  0.25500000000E-02 0.  1.
         23    2    1    2    0    0  0.00000000000E+00  0.00000000000E+00 -0.71180580003E+03  0.71778849081E+03  0.92481460800E+02 0.  0.
    9000005    2    3    3    0    0  0.98931228304E+01  0.35717071912E+02 -0.56746744142E+03  0.56876787187E+03  0.10198622099E+02 0.  0.
         22    1    3    3    0    0 -0.98931228304E+01 -0.35717071912E+02 -0.14433835861E+03  0.14902061895E+03  0.00000000000E+00 0.  1.
         22    1    4    4    0    0  0.64850431540E+01  0.29088934238E+02 -0.50059696547E+03  0.50148334341E+03  0.00000000000E+00 0.  1.
         22    1    4    4    0    0  0.34080796764E+01  0.66281376741E+01 -0.66870475945E+02  0.67284528453E+02  0.00000000000E+00 0.  1.
<mgrwt>
<rscale>  0 0.92481461E+02</rscale>
<asrwt>0</asrwt>
<pdfrwt beam="2">  1        2 0.10996866E+00 0.92481461E+02</pdfrwt>
<pdfrwt beam="1">  1       -2 0.46020755E-03 0.92481461E+02</pdfrwt>
<totfact> 0.22951025E+05</totfact>
</mgrwt>
</event>
<event>
 7    1  0.3960685E-009  0.9110027E+02  0.7818608E-02  0.1300209E+00
         -2   -1    0    0    0  501 -0.00000000000E+00  0.00000000000E+00  0.76603522216E+01  0.76603526460E+01  0.25500000000E-02 0. -1.
          2   -1    0    0  501    0  0.00000000000E+00 -0.00000000000E+00 -0.27085107774E+03  0.27085107775E+03  0.25500000000E-02 0.  1.
         23    2    1    2    0    0  0.00000000000E+00  0.00000000000E+00 -0.26319072551E+03  0.27851143039E+03  0.91100268185E+02 0.  0.
    9000005    2    3    3    0    0 -0.28304929334E+02  0.30230731377E+02 -0.84384196587E+02  0.94971677394E+02  0.13559525405E+02 0.  0.
         22    1    3    3    0    0  0.28304929334E+02 -0.30230731377E+02 -0.17880652893E+03  0.18353975300E+03  0.00000000000E+00 0.  1.
         22    1    4    4    0    0 -0.12623736448E+02  0.15860780413E+02 -0.55611607739E+02  0.59190995874E+02  0.00000000000E+00 0.  1.
         22    1    4    4    0    0 -0.15681192886E+02  0.14369950964E+02 -0.28772588848E+02  0.35780681520E+02  0.00000000000E+00 0.  1.
<mgrwt>
<rscale>  0 0.91100268E+02</rscale>
<asrwt>0</asrwt>
<pdfrwt beam="2">  1        2 0.41669389E-01 0.91100268E+02</pdfrwt>
<pdfrwt beam="1">  1       -2 0.11785160E-02 0.91100268E+02</pdfrwt>
<totfact> 0.17332867E+05</totfact>
</mgrwt>
</event>
<event>
 7    1  0.3960685E-009  0.9113640E+02  0.7818608E-02  0.1300123E+00
         -2   -1    0    0    0  501 -0.00000000000E+00  0.00000000000E+00  0.77525812450E+01  0.77525816644E+01  0.25500000000E-02 0.  1.
          2   -1    0    0  501    0  0.00000000000E+00 -0.00000000000E+00 -0.26784122051E+03  0.26784122053E+03  0.25500000000E-02 0. -1.
         23    2    1    2    0    0  0.00000000000E+00  0.00000000000E+00 -0.26008863927E+03  0.27559380219E+03  0.91136400680E+02 0.  0.
    9000005    2    3    3    0    0  0.18620257811E+02 -0.36336394100E+02 -0.79202603280E+02  0.90157005537E+02  0.13718080913E+02 0.  0.
         22    1    3    3    0    0 -0.18620257811E+02  0.36336394100E+02 -0.18088603599E+03  0.18543679665E+03  0.00000000000E+00 0. -1.
         22    1    4    4    0    0  0.12054059009E+02 -0.33999946504E+02 -0.65113415029E+02  0.74438253053E+02  0.00000000000E+00 0.  1.
         22    1    4    4    0    0  0.65661988025E+01 -0.23364475966E+01 -0.14089188250E+02  0.15718752483E+02  0.00000000000E+00 0.  1.
<mgrwt>
<rscale>  0 0.91136401E+02</rscale>
<asrwt>0</asrwt>
<pdfrwt beam="2">  1        2 0.41206334E-01 0.91136401E+02</pdfrwt>
<pdfrwt beam="1">  1       -2 0.11927050E-02 0.91136401E+02</pdfrwt>
<totfact> 0.17242444E+05</totfact>
</mgrwt>
</event>
<event>
 7    1  0.3960685E-009  0.9163542E+02  0.7818608E-02  0.1298939E+00
          2   -1    0    0  501    0  0.00000000000E+00  0.00000000000E+00  0.53360319935E+01  0.53360326028E+01  0.25500000000E-02 0. -1.
         -2   -1    0    0    0  501 -0.00000000000E+00 -0.00000000000E+00 -0.39341263036E+03  0.39341263037E+03  0.25500000000E-02 0.  1.
         23    2    1    2    0    0  0.00000000000E+00  0.00000000000E+00 -0.38807659837E+03  0.39874866297E+03  0.91635419034E+02 0.  0.
    9000005    2    3    3    0    0 -0.40127341594E+02 -0.18204039669E+02 -0.17465615042E+03  0.18082693802E+03  0.15875138765E+02 0.  0.
         22    1    3    3    0    0  0.40127341594E+02  0.18204039669E+02 -0.21342044795E+03  0.21792172495E+03  0.00000000000E+00 0. -1.
         22    1    4    4    0    0 -0.28616658322E+02 -0.92799225369E+01 -0.14067780152E+03  0.14385852055E+03  0.00000000000E+00 0.  1.
         22    1    4    4    0    0 -0.11510683272E+02 -0.89241171323E+01 -0.33978348906E+02  0.36968417472E+02  0.00000000000E+00 0.  1.
<mgrwt>
<rscale>  0 0.91635419E+02</rscale>
<asrwt>0</asrwt>
<pdfrwt beam="1">  1        2 0.82092836E-03 0.91635419E+02</pdfrwt>
<pdfrwt beam="2">  1       -2 0.60524997E-01 0.91635419E+02</pdfrwt>
<totfact> 0.42615528E+04</totfact>
</mgrwt>
</event>
<event>
 7    1  0.3960685E-009  0.9112358E+02  0.7818608E-02  0.1300153E+00
         -2   -1    0    0    0  501 -0.00000000000E+00  0.00000000000E+00  0.15237705750E+03  0.15237705752E+03  0.25500000000E-02 0.  1.
          2   -1    0    0  501    0  0.00000000000E+00 -0.00000000000E+00 -0.13623289620E+02  0.13623289859E+02  0.25500000000E-02 0. -1.
         23    2    1    2    0    0  0.00000000000E+00 -0.17763568394E-14  0.13875376788E+03  0.16600034738E+03  0.91123582180E+02 0.  0.
    9000005    2    3    3    0    0 -0.34740323844E+02  0.15029522662E+02  0.11526367509E+03  0.12145193426E+03  0.56639993045E+01 0.  0.
         22    1    3    3    0    0  0.34740323844E+02 -0.15029522662E+02  0.23490092792E+02  0.44548413121E+02  0.00000000000E+00 0. -1.
         22    1    4    4    0    0 -0.33968896907E+02  0.15340085515E+02  0.11051278166E+03  0.11662880901E+03  0.00000000000E+00 0.  1.
         22    1    4    4    0    0 -0.77142693773E+00 -0.31056285359E+00  0.47508934319E+01  0.48231252531E+01  0.00000000000E+00 0.  1.
<mgrwt>
<rscale>  0 0.91123582E+02</rscale>
<asrwt>0</asrwt>
<pdfrwt beam="2">  1        2 0.20958906E-02 0.91123582E+02</pdfrwt>
<pdfrwt beam="1">  1       -2 0.23442625E-01 0.91123582E+02</pdfrwt>
<totfact> 0.69559096E+04</totfact>
</mgrwt>
</event>
<event>
 7    1  0.3960685E-009  0.8602495E+02  0.7818608E-02  0.1312774E+00
         -2   -1    0    0    0  501 -0.00000000000E+00  0.00000000000E+00  0.97157581492E+00  0.97157916129E+00  0.25500000000E-02 0. -1.
          2   -1    0    0  501    0  0.00000000000E+00 -0.00000000000E+00 -0.19041949873E+04  0.19041949873E+04  0.25500000000E-02 0.  1.
         23    2    1    2    0    0 -0.17763568394E-14 -0.22204460493E-15 -0.19032234115E+04  0.19051665665E+04  0.86024949541E+02 0.  0.
    9000005    2    3    3    0    0 -0.10623693883E+02 -0.16612337387E+01 -0.18735378898E+04  0.18735935912E+04  0.96487258616E+01 0.  0.
         22    1    3    3    0    0  0.10623693883E+02  0.16612337387E+01 -0.29685521736E+02  0.31572975311E+02  0.00000000000E+00 0. -1.
         22    1    4    4    0    0 -0.20629786240E+01  0.36732807271E+00 -0.63960726781E+02  0.63995041847E+02  0.00000000000E+00 0.  1.
         22    1    4    4    0    0 -0.85607152591E+01 -0.20285618114E+01 -0.18095771630E+04  0.18095985493E+04  0.00000000000E+00 0.  1.
<mgrwt>
<rscale>  0 0.86024950E+02</rscale>
<asrwt>0</asrwt>
<pdfrwt beam="2">  1        2 0.29295009E+00 0.86024950E+02</pdfrwt>
<pdfrwt beam="1">  1       -2 0.14947498E-03 0.86024950E+02</pdfrwt>
<totfact> 0.23946123E+05</totfact>
</mgrwt>
</event>
<event>
 7    1  0.3960685E-009  0.9227172E+02  0.7818608E-02  0.1297442E+00
          2   -1    0    0  501    0  0.00000000000E+00  0.00000000000E+00  0.20058134245E+02  0.20058134408E+02  0.25500000000E-02 0. -1.
         -2   -1    0    0    0  501 -0.00000000000E+00 -0.00000000000E+00 -0.10611742452E+03  0.10611742455E+03  0.25500000000E-02 0.  1.
         23    2    1    2    0    0  0.00000000000E+00  0.00000000000E+00 -0.86059290274E+02  0.12617555896E+03  0.92271719589E+02 0.  0.
    9000005    2    3    3    0    0 -0.12370388147E+02  0.19972149049E+02  0.84973970064E+01  0.28744145389E+02  0.14216430555E+02 0.  0.
         22    1    3    3    0    0  0.12370388147E+02 -0.19972149049E+02 -0.94556687280E+02  0.97431413569E+02  0.00000000000E+00 0.  1.
         22    1    4    4    0    0 -0.12279470939E+02  0.22125201622E+02  0.78523136858E+01  0.26494693498E+02  0.00000000000E+00 0.  1.
         22    1    4    4    0    0 -0.90917207322E-01 -0.21530525724E+01  0.64508332066E+00  0.22494518908E+01  0.00000000000E+00 0.  1.
<mgrwt>
<rscale>  0 0.92271720E+02</rscale>
<asrwt>0</asrwt>
<pdfrwt beam="1">  1        2 0.30858669E-02 0.92271720E+02</pdfrwt>
<pdfrwt beam="2">  1       -2 0.16325757E-01 0.92271720E+02</pdfrwt>
<totfact> 0.76085103E+04</totfact>
</mgrwt>
</event>
<event>
 7    1  0.3960685E-009  0.9056727E+02  0.7818608E-02  0.1301484E+00
          2   -1    0    0  501    0  0.00000000000E+00  0.00000000000E+00  0.55774896764E+02  0.55774896822E+02  0.25500000000E-02 0. -1.
         -2   -1    0    0    0  501 -0.00000000000E+00 -0.00000000000E+00 -0.36765782554E+02  0.36765782643E+02  0.25500000000E-02 0.  1.
         23    2    1    2    0    0  0.00000000000E+00  0.00000000000E+00  0.19009114209E+02  0.92540679465E+02  0.90567272968E+02 0.  0.
    9000005    2    3    3    0    0 -0.18297602619E+02 -0.26013928446E+02 -0.21172358197E+02  0.41295411785E+02  0.15668935766E+02 0.  0.
         22    1    3    3    0    0  0.18297602619E+02  0.26013928446E+02  0.40181472406E+02  0.51245267680E+02  0.00000000000E+00 0. -1.
         22    1    4    4    0    0 -0.39251486370E+01  0.96302425382E+00 -0.58313133910E+01  0.70949576038E+01  0.00000000000E+00 0.  1.
         22    1    4    4    0    0 -0.14372453982E+02 -0.26976952700E+02 -0.15341044806E+02  0.34200454181E+02  0.00000000000E+00 0.  1.
<mgrwt>
<rscale>  0 0.90567273E+02</rscale>
<asrwt>0</asrwt>
<pdfrwt beam="1">  1        2 0.85807533E-02 0.90567273E+02</pdfrwt>
<pdfrwt beam="2">  1       -2 0.56562743E-02 0.90567273E+02</pdfrwt>
<totfact> 0.10601805E+05</totfact>
</mgrwt>
</event>
<event>
 7    1  0.3960685E-009  0.8694291E+02  0.7818608E-02  0.1310428E+00
         -2   -1    0    0    0  501 -0.00000000000E+00  0.00000000000E+00  0.11672393873E+02  0.11672394152E+02  0.25500000000E-02 0. -1.
          2   -1    0    0  501    0  0.00000000000E+00 -0.00000000000E+00 -0.16190058055E+03  0.16190058057E+03  0.25500000000E-02 0.  1.
         23    2    1    2    0    0 -0.13877787808E-15  0.00000000000E+00 -0.15022818667E+03  0.17357297472E+03  0.86942909322E+02 0.  0.
    9000005    2    3    3    0    0 -0.16070489487E+00  0.41644277689E+02 -0.64061899299E+02  0.77870828608E+02  0.15022227396E+02 0.  0.
         22    1    3    3    0    0  0.16070489487E+00 -0.41644277689E+02 -0.86166287376E+02  0.95702146112E+02  0.00000000000E+00 0.  1.
         22    1    4    4    0    0 -0.29626863695E+01  0.40687515552E+02 -0.62161589638E+02  0.74352637200E+02  0.00000000000E+00 0. -1.
         22    1    4    4    0    0  0.28019814746E+01  0.95676213683E+00 -0.19003096610E+01  0.35181914073E+01  0.00000000000E+00 0. -1.
<mgrwt>
<rscale>  0 0.86942909E+02</rscale>
<asrwt>0</asrwt>
<pdfrwt beam="2">  1        2 0.24907780E-01 0.86942909E+02</pdfrwt>
<pdfrwt beam="1">  1       -2 0.17957530E-02 0.86942909E+02</pdfrwt>
<totfact> 0.16316389E+05</totfact>
</mgrwt>
</event>
<event>
 7    1  0.3960685E-009  0.9129988E+02  0.7818608E-02  0.1299734E+00
          2   -1    0    0  501    0  0.00000000000E+00  0.00000000000E+00  0.39460193653E+02  0.39460193735E+02  0.25500000000E-02 0. -1.
         -2   -1    0    0    0  501 -0.00000000000E+00 -0.00000000000E+00 -0.52810614527E+02  0.52810614588E+02  0.25500000000E-02 0.  1.
         23    2    1    2    0    0  0.00000000000E+00 -0.35527136788E-14 -0.13350420874E+02  0.92270808323E+02  0.91299881331E+02 0.  0.
    9000005    2    3    3    0    0  0.33745635245E+02  0.19269497110E+02 -0.30158115197E+02  0.49931937231E+02  0.85793371775E+01 0.  0.
         22    1    3    3    0    0 -0.33745635245E+02 -0.19269497110E+02  0.16807694323E+02  0.42338871093E+02  0.00000000000E+00 0.  1.
         22    1    4    4    0    0  0.30632477431E+02  0.17748945399E+02 -0.30096233948E+02  0.46466730402E+02  0.00000000000E+00 0.  1.
         22    1    4    4    0    0  0.31131578138E+01  0.15205517103E+01 -0.61881248833E-01  0.34652068288E+01  0.00000000000E+00 0.  1.
<mgrwt>
<rscale>  0 0.91299881E+02</rscale>
<asrwt>0</asrwt>
<pdfrwt beam="1">  1        2 0.60707990E-02 0.91299881E+02</pdfrwt>
<pdfrwt beam="2">  1       -2 0.81247099E-02 0.91299881E+02</pdfrwt>
<totfact> 0.94682113E+04</totfact>
</mgrwt>
</event>
<event>
 7    1  0.3960685E-009  0.9042128E+02  0.7818608E-02  0.1301835E+00
         -2   -1    0    0    0  501 -0.00000000000E+00  0.00000000000E+00  0.18334007456E+03  0.18334007458E+03  0.25500000000E-02 0. -1.
          2   -1    0    0  501    0  0.00000000000E+00 -0.00000000000E+00 -0.11148692659E+02  0.11148692950E+02  0.25500000000E-02 0.  1.
         23    2    1    2    0    0  0.35527136788E-14  0.00000000000E+00  0.17219138190E+03  0.19448876753E+03  0.90421284515E+02 0.  0.
    9000005    2    3    3    0    0  0.21095795258E+02 -0.20892158821E+02  0.17745825807E+02  0.37215296545E+02  0.13731317693E+02 0.  0.
         22    1    3    3    0    0 -0.21095795258E+02  0.20892158821E+02  0.15444555609E+03  0.15727347098E+03  0.00000000000E+00 0. -1.
         22    1    4    4    0    0  0.13695500584E+01 -0.79577475838E+01  0.89140046502E+01  0.12027505680E+02  0.00000000000E+00 0.  1.
         22    1    4    4    0    0  0.19726245199E+02 -0.12934411238E+02  0.88318211571E+01  0.25187790865E+02  0.00000000000E+00 0.  1.
<mgrwt>
<rscale>  0 0.90421285E+02</rscale>
<asrwt>0</asrwt>
<pdfrwt beam="2">  1        2 0.17151835E-02 0.90421285E+02</pdfrwt>
<pdfrwt beam="1">  1       -2 0.28206165E-01 0.90421285E+02</pdfrwt>
<totfact> 0.66030711E+04</totfact>
</mgrwt>
</event>
<event>
 7    1  0.3960685E-009  0.8296492E+02  0.7818608E-02  0.1320842E+00
          2   -1    0    0  501    0  0.00000000000E+00  0.00000000000E+00  0.15370956084E+04  0.15370956084E+04  0.25500000000E-02 0. -1.
         -2   -1    0    0    0  501 -0.00000000000E+00 -0.00000000000E+00 -0.11195090338E+01  0.11195119380E+01  0.25500000000E-02 0.  1.
         23    2    1    2    0    0  0.35527136788E-14  0.00000000000E+00  0.15359760993E+04  0.15382151203E+04  0.82964924026E+02 0.  0.
    9000005    2    3    3    0    0  0.19212182849E+02  0.10961194971E+02  0.14160072998E+04  0.14162242656E+04  0.11191143356E+02 0.  0.
         22    1    3    3    0    0 -0.19212182849E+02 -0.10961194971E+02  0.11996879955E+03  0.12199085470E+03  0.00000000000E+00 0.  1.
         22    1    4    4    0    0  0.17532923551E+02  0.10879016107E+02  0.99653000785E+03  0.99674360442E+03  0.00000000000E+00 0. -1.
         22    1    4    4    0    0  0.16792592978E+01  0.82178864350E-01  0.41947729194E+03  0.41948066120E+03  0.00000000000E+00 0. -1.
<mgrwt>
<rscale>  0 0.82964924E+02</rscale>
<asrwt>0</asrwt>
<pdfrwt beam="1">  1        2 0.23647602E+00 0.82964924E+02</pdfrwt>
<pdfrwt beam="2">  1       -2 0.17223255E-03 0.82964924E+02</pdfrwt>
<totfact> 0.29936057E+05</totfact>
</mgrwt>
</event>
<event>
 7    1  0.3960685E-009  0.9266979E+02  0.7818608E-02  0.1296512E+00
          2   -1    0    0  501    0  0.00000000000E+00  0.00000000000E+00  0.24713056446E+02  0.24713056577E+02  0.25500000000E-02 0. -1.
         -2   -1    0    0    0  501 -0.00000000000E+00 -0.00000000000E+00 -0.86874016000E+02  0.86874016037E+02  0.25500000000E-02 0.  1.
         23    2    1    2    0    0  0.00000000000E+00  0.00000000000E+00 -0.62160959554E+02  0.11158707261E+03  0.92669789479E+02 0.  0.
    9000005    2    3    3    0    0  0.26075828406E+02  0.37414471442E+02 -0.22618160148E+02  0.51226286625E+02  0.57236153372E+01 0.  0.
         22    1    3    3    0    0 -0.26075828406E+02 -0.37414471442E+02 -0.39542799407E+02  0.60360785990E+02  0.00000000000E+00 0.  1.
         22    1    4    4    0    0  0.95230616047E+01  0.13104730894E+02 -0.11117615268E+02  0.19647494583E+02  0.00000000000E+00 0.  1.
         22    1    4    4    0    0  0.16552766802E+02  0.24309740548E+02 -0.11500544880E+02  0.31578792042E+02  0.00000000000E+00 0.  1.
<mgrwt>
<rscale>  0 0.92669789E+02</rscale>
<asrwt>0</asrwt>
<pdfrwt beam="1">  1        2 0.38020087E-02 0.92669789E+02</pdfrwt>
<pdfrwt beam="2">  1       -2 0.13365233E-01 0.92669789E+02</pdfrwt>
<totfact> 0.79868355E+04</totfact>
</mgrwt>
</event>
<event>
 7    1  0.6089644E-009  0.9132271E+02  0.7818608E-02  0.1299680E+00
         -2   -1    0    0    0  501 -0.00000000000E+00  0.00000000000E+00  0.27366118653E+01  0.27366130533E+01  0.25500000000E-02 0.  1.
          2   -1    0    0  501    0  0.00000000000E+00 -0.00000000000E+00 -0.76187606167E+03  0.76187606168E+03  0.25500000000E-02 0. -1.
         23    2    1    2    0    0  0.00000000000E+00  0.44408920985E-15 -0.75913944981E+03  0.76461267473E+03  0.91322714066E+02 0.  0.
    9000005    2    3    3    0    0 -0.35959405987E+02  0.28040397019E+01 -0.60815377235E+03  0.60937860529E+03  0.13796095266E+02 0.  0.
         22    1    3    3    0    0  0.35959405987E+02 -0.28040397019E+01 -0.15098567746E+03  0.15523406944E+03  0.00000000000E+00 0.  1.
         22    1    4    4    0    0 -0.34866190582E+02  0.38440405820E+01 -0.60270150668E+03  0.60372140433E+03  0.00000000000E+00 0. -1.
         22    1    4    4    0    0 -0.10932154051E+01 -0.10400008801E+01 -0.54522656682E+01  0.56572009571E+01  0.00000000000E+00 0. -1.
<mgrwt>
<rscale>  0 0.91322714E+02</rscale>
<asrwt>0</asrwt>
<pdfrwt beam="2">  1        2 0.11721153E+00 0.91322714E+02</pdfrwt>
<pdfrwt beam="1">  1       -2 0.42101791E-03 0.91322714E+02</pdfrwt>
<totfact> 0.24050695E+05</totfact>
</mgrwt>
</event>
<event>
 7    1  0.3960685E-009  0.1225020E+03  0.7818608E-02  0.1239026E+00
          2   -1    0    0  501    0  0.00000000000E+00  0.00000000000E+00  0.35449183768E+02  0.35449183860E+02  0.25500000000E-02 0.  1.
         -2   -1    0    0    0  501 -0.00000000000E+00 -0.00000000000E+00 -0.10583275392E+03  0.10583275395E+03  0.25500000000E-02 0. -1.
         23    2    1    2    0    0  0.00000000000E+00  0.00000000000E+00 -0.70383570148E+02  0.14128193781E+03  0.12250199592E+03 0.  0.
    9000005    2    3    3    0    0  0.17567301562E+02  0.61519220385E+01 -0.10229183249E+03  0.10434153398E+03  0.87795495005E+01 0.  0.
         22    1    3    3    0    0 -0.17567301562E+02 -0.61519220385E+01  0.31908262346E+02  0.36940403827E+02  0.00000000000E+00 0.  1.
         22    1    4    4    0    0  0.58674721156E+01 -0.37416820874E+00 -0.16635864261E+02  0.17644240154E+02  0.00000000000E+00 0.  1.
         22    1    4    4    0    0  0.11699829447E+02  0.65260902473E+01 -0.85655968233E+02  0.86697293827E+02  0.00000000000E+00 0.  1.
<mgrwt>
<rscale>  0 0.12250200E+03</rscale>
<asrwt>0</asrwt>
<pdfrwt beam="1">  1        2 0.54537206E-02 0.12250200E+03</pdfrwt>
<pdfrwt beam="2">  1       -2 0.16281962E-01 0.12250200E+03</pdfrwt>
<totfact> 0.37678881E+04</totfact>
</mgrwt>
</event>
<event>
 7    1  0.3960685E-009  0.9121341E+02  0.7818608E-02  0.1299940E+00
          2   -1    0    0  501    0  0.00000000000E+00  0.00000000000E+00  0.11566993256E+03  0.11566993259E+03  0.25500000000E-02 0.  1.
         -2   -1    0    0    0  501 -0.00000000000E+00 -0.00000000000E+00 -0.17981953200E+02  0.17981953380E+02  0.25500000000E-02 0. -1.
         23    2    1    2    0    0  0.00000000000E+00 -0.71054273576E-14  0.97687979361E+02  0.13365188597E+03  0.91213405328E+02 0.  0.
    9000005    2    3    3    0    0  0.10063198190E+02 -0.36826565155E+02  0.12333703566E+02  0.40148857914E+02  0.15318907348E+01 0.  0.
         22    1    3    3    0    0 -0.10063198190E+02  0.36826565155E+02  0.85354275796E+02  0.93503028055E+02  0.00000000000E+00 0.  1.
         22    1    4    4    0    0  0.61089383922E+01 -0.23172401569E+02  0.84838364310E+01  0.25421542111E+02  0.00000000000E+00 0. -1.
         22    1    4    4    0    0  0.39542597975E+01 -0.13654163587E+02  0.38498671347E+01  0.14727315803E+02  0.00000000000E+00 0. -1.
<mgrwt>
<rscale>  0 0.91213405E+02</rscale>
<asrwt>0</asrwt>
<pdfrwt beam="1">  1        2 0.17795374E-01 0.91213405E+02</pdfrwt>
<pdfrwt beam="2">  1       -2 0.27664544E-02 0.91213405E+02</pdfrwt>
<totfact> 0.12821154E+05</totfact>
</mgrwt>
</event>
<event>
 7    1  0.3960685E-009  0.9085179E+02  0.7818608E-02  0.1300802E+00
          2   -1    0    0  501    0  0.00000000000E+00  0.00000000000E+00  0.98721732029E+03  0.98721732030E+03  0.25500000000E-02 0. -1.
         -2   -1    0    0    0  501 -0.00000000000E+00 -0.00000000000E+00 -0.20902301032E+01  0.20902316586E+01  0.25500000000E-02 0.  1.
         23    2    1    2    0    0  0.00000000000E+00  0.17763568394E-14  0.98512709019E+03  0.98930755195E+03  0.90851794309E+02 0.  0.
    9000005    2    3    3    0    0  0.25931944620E+02  0.14947108262E+02  0.86179762207E+03  0.86239797981E+03  0.11800523913E+02 0.  0.
         22    1    3    3    0    0 -0.25931944620E+02 -0.14947108262E+02  0.12332946812E+03  0.12690957215E+03  0.00000000000E+00 0.  1.
         22    1    4    4    0    0  0.13400568062E+02  0.14340881492E+02  0.52637600652E+03  0.52674181184E+03  0.00000000000E+00 0.  1.
         22    1    4    4    0    0  0.12531376558E+02  0.60622676975E+00  0.33542161556E+03  0.33565616796E+03  0.00000000000E+00 0.  1.
<mgrwt>
<rscale>  0 0.90851794E+02</rscale>
<asrwt>0</asrwt>
<pdfrwt beam="1">  1        2 0.15188022E+00 0.90851794E+02</pdfrwt>
<pdfrwt beam="2">  1       -2 0.32157264E-03 0.90851794E+02</pdfrwt>
<totfact> 0.25221974E+05</totfact>
</mgrwt>
</event>
<event>
 7    1  0.3960685E-009  0.9227450E+02  0.7818608E-02  0.1297435E+00
         -2   -1    0    0    0  501 -0.00000000000E+00  0.00000000000E+00  0.26265541908E+02  0.26265542032E+02  0.25500000000E-02 0. -1.
          2   -1    0    0  501    0  0.00000000000E+00 -0.00000000000E+00 -0.81043278846E+02  0.81043278887E+02  0.25500000000E-02 0.  1.
         23    2    1    2    0    0  0.00000000000E+00  0.00000000000E+00 -0.54777736938E+02  0.10730882092E+03  0.92274495842E+02 0.  0.
    9000005    2    3    3    0    0  0.36913944929E+02  0.18934826915E+02 -0.67290537882E+01  0.43827776874E+02  0.12426860436E+02 0.  0.
         22    1    3    3    0    0 -0.36913944929E+02 -0.18934826915E+02 -0.48048683150E+02  0.63481044045E+02  0.00000000000E+00 0.  1.
         22    1    4    4    0    0  0.37433242005E+02  0.16700886743E+02 -0.60362190406E+01  0.41431909988E+02  0.00000000000E+00 0. -1.
         22    1    4    4    0    0 -0.51929707535E+00  0.22339401726E+01 -0.69283474762E+00  0.23958668858E+01  0.00000000000E+00 0. -1.
<mgrwt>
<rscale>  0 0.92274496E+02</rscale>
<asrwt>0</asrwt>
<pdfrwt beam="2">  1        2 0.12468197E-01 0.92274496E+02</pdfrwt>
<pdfrwt beam="1">  1       -2 0.40408527E-02 0.92274496E+02</pdfrwt>
<totfact> 0.11150697E+05</totfact>
</mgrwt>
</event>
<event>
 7    1  0.3960685E-009  0.9187853E+02  0.7818608E-02  0.1298365E+00
          2   -1    0    0  501    0  0.00000000000E+00  0.00000000000E+00  0.66115304048E+03  0.66115304048E+03  0.25500000000E-02 0. -1.
         -2   -1    0    0    0  501 -0.00000000000E+00 -0.00000000000E+00 -0.31920232156E+01  0.31920242342E+01  0.25500000000E-02 0.  1.
         23    2    1    2    0    0 -0.35527136788E-14  0.35527136788E-14  0.65796101726E+03  0.66434506472E+03  0.91878532732E+02 0.  0.
    9000005    2    3    3    0    0 -0.24605705842E+02 -0.17662065945E+02  0.57851416896E+03  0.57932041513E+03  0.40137709313E+01 0.  0.
         22    1    3    3    0    0  0.24605705842E+02  0.17662065945E+02  0.79446848298E+02  0.85024649590E+02  0.00000000000E+00 0.  1.
         22    1    4    4    0    0 -0.21150558058E+02 -0.13511290054E+02  0.46215218131E+03  0.46283316622E+03  0.00000000000E+00 0. -1.
         22    1    4    4    0    0 -0.34551477836E+01 -0.41507758908E+01  0.11636198766E+03  0.11648724891E+03  0.00000000000E+00 0. -1.
<mgrwt>
<rscale>  0 0.91878533E+02</rscale>
<asrwt>0</asrwt>
<pdfrwt beam="1">  1        2 0.10171586E+00 0.91878533E+02</pdfrwt>
<pdfrwt beam="2">  1       -2 0.49108055E-03 0.91878533E+02</pdfrwt>
<totfact> 0.22918470E+05</totfact>
</mgrwt>
</event>
<event>
 7    1  0.3960685E-009  0.8997806E+02  0.7818608E-02  0.1302905E+00
          2   -1    0    0  501    0  0.00000000000E+00  0.00000000000E+00  0.14729797509E+04  0.14729797509E+04  0.25500000000E-02 0. -1.
         -2   -1    0    0    0  501 -0.00000000000E+00 -0.00000000000E+00 -0.13740928764E+01  0.13740952425E+01  0.25500000000E-02 0.  1.
         23    2    1    2    0    0  0.00000000000E+00  0.00000000000E+00  0.14716056580E+04  0.14743538461E+04  0.89978057963E+02 0.  0.
    9000005    2    3    3    0    0 -0.78962081140E+01  0.66158768723E+01  0.14531342558E+04  0.14532040795E+04  0.98392743477E+01 0.  0.
         22    1    3    3    0    0  0.78962081140E+01 -0.66158768723E+01  0.18471402161E+02  0.21149766598E+02  0.00000000000E+00 0.  1.
         22    1    4    4    0    0 -0.53966123860E+01  0.25504187618E+01  0.29700080616E+03  0.29706077985E+03  0.00000000000E+00 0.  1.
         22    1    4    4    0    0 -0.24995957280E+01  0.40654581105E+01  0.11561334497E+04  0.11561432997E+04  0.00000000000E+00 0.  1.
<mgrwt>
<rscale>  0 0.89978058E+02</rscale>
<asrwt>0</asrwt>
<pdfrwt beam="1">  1        2 0.22661354E+00 0.89978058E+02</pdfrwt>
<pdfrwt beam="2">  1       -2 0.21139790E-03 0.89978058E+02</pdfrwt>
<totfact> 0.24596209E+05</totfact>
</mgrwt>
</event>
<event>
 7    1  0.3960685E-009  0.9060454E+02  0.7818608E-02  0.1301394E+00
          2   -1    0    0  501    0  0.00000000000E+00  0.00000000000E+00  0.61417811250E+03  0.61417811251E+03  0.25500000000E-02 0. -1.
         -2   -1    0    0    0  501 -0.00000000000E+00 -0.00000000000E+00 -0.33415309584E+01  0.33415319314E+01  0.25500000000E-02 0.  1.
         23    2    1    2    0    0 -0.88817841970E-15  0.35527136788E-14  0.61083658155E+03  0.61751964444E+03  0.90604535846E+02 0.  0.
    9000005    2    3    3    0    0 -0.51510952340E+01 -0.29652844671E+02  0.53338240290E+03  0.53442346661E+03  0.14346740711E+02 0.  0.
         22    1    3    3    0    0  0.51510952340E+01  0.29652844671E+02  0.77454178650E+02  0.83096177827E+02  0.00000000000E+00 0.  1.
         22    1    4    4    0    0  0.42700433839E+01 -0.57948508394E+01  0.15938672138E+03  0.15954917900E+03  0.00000000000E+00 0.  1.
         22    1    4    4    0    0 -0.94211386180E+01 -0.23857993831E+02  0.37399568151E+03  0.37487428761E+03  0.00000000000E+00 0.  1.
<mgrwt>
<rscale>  0 0.90604536E+02</rscale>
<asrwt>0</asrwt>
<pdfrwt beam="1">  1        2 0.94488966E-01 0.90604536E+02</pdfrwt>
<pdfrwt beam="2">  1       -2 0.51408162E-03 0.90604536E+02</pdfrwt>
<totfact> 0.23318835E+05</totfact>
</mgrwt>
</event>
<event>
 7    1  0.3960685E-009  0.1060497E+03  0.7818608E-02  0.1268065E+00
          2   -1    0    0  501    0  0.00000000000E+00  0.00000000000E+00  0.62483436969E+02  0.62483437021E+02  0.25500000000E-02 0. -1.
         -2   -1    0    0    0  501 -0.00000000000E+00 -0.00000000000E+00 -0.44998064660E+02  0.44998064732E+02  0.25500000000E-02 0.  1.
         23    2    1    2    0    0  0.00000000000E+00  0.35527136788E-14  0.17485372310E+02  0.10748150175E+03  0.10604968163E+03 0.  0.
    9000005    2    3    3    0    0  0.91200164262E+01  0.26180910667E+02  0.53421445954E+02  0.62094100727E+02  0.15271269569E+02 0.  0.
         22    1    3    3    0    0 -0.91200164262E+01 -0.26180910667E+02 -0.35936073645E+02  0.45387401027E+02  0.00000000000E+00 0.  1.
         22    1    4    4    0    0  0.52526605336E+01  0.26757977490E+02  0.42520659083E+02  0.50513228474E+02  0.00000000000E+00 0.  1.
         22    1    4    4    0    0  0.38673558926E+01 -0.57706682286E+00  0.10900786872E+02  0.11580872253E+02  0.00000000000E+00 0.  1.
<mgrwt>
<rscale>  0 0.10604968E+03</rscale>
<asrwt>0</asrwt>
<pdfrwt beam="1">  1        2 0.96128365E-02 0.10604968E+03</pdfrwt>
<pdfrwt beam="2">  1       -2 0.69227792E-02 0.10604968E+03</pdfrwt>
<totfact> 0.69654145E+04</totfact>
</mgrwt>
</event>
<event>
 7    1  0.3960685E-009  0.9207172E+02  0.7818608E-02  0.1297911E+00
         -2   -1    0    0    0  501 -0.00000000000E+00  0.00000000000E+00  0.60895437984E+01  0.60895443323E+01  0.25500000000E-02 0.  1.
          2   -1    0    0  501    0  0.00000000000E+00 -0.00000000000E+00 -0.34802284173E+03  0.34802284174E+03  0.25500000000E-02 0. -1.
         23    2    1    2    0    0  0.00000000000E+00  0.00000000000E+00 -0.34193329794E+03  0.35411238608E+03  0.92071720605E+02 0.  0.
    9000005    2    3    3    0    0 -0.33864243981E+02  0.28916066317E+02 -0.14219425719E+03  0.14946974558E+03  0.11792885733E+02 0.  0.
         22    1    3    3    0    0  0.33864243981E+02 -0.28916066317E+02 -0.19973904075E+03  0.20464264050E+03  0.00000000000E+00 0. -1.
         22    1    4    4    0    0 -0.44873621917E+01  0.99058445669E+01 -0.39949209638E+02  0.41402916887E+02  0.00000000000E+00 0.  1.
         22    1    4    4    0    0 -0.29376881789E+02  0.19010221750E+02 -0.10224504755E+03  0.10806682869E+03  0.00000000000E+00 0.  1.
<mgrwt>
<rscale>  0 0.92071721E+02</rscale>
<asrwt>0</asrwt>
<pdfrwt beam="2">  1        2 0.53541960E-01 0.92071721E+02</pdfrwt>
<pdfrwt beam="1">  1       -2 0.93685321E-03 0.92071721E+02</pdfrwt>
<totfact> 0.18492832E+05</totfact>
</mgrwt>
</event>
<event>
 7    1  0.3960685E-009  0.9236231E+02  0.7818608E-02  0.1297230E+00
         -2   -1    0    0    0  501 -0.00000000000E+00  0.00000000000E+00  0.14909315637E+01  0.14909337444E+01  0.25500000000E-02 0.  1.
          2   -1    0    0  501    0  0.00000000000E+00 -0.00000000000E+00 -0.14304463299E+04  0.14304463299E+04  0.25500000000E-02 0. -1.
         23    2    1    2    0    0  0.17763568394E-14  0.35527136788E-14 -0.14289553983E+04  0.14319372636E+04  0.92362311497E+02 0.  0.
    9000005    2    3    3    0    0 -0.11768114551E+02  0.28245261917E+02 -0.12494060619E+04  0.12497992732E+04  0.68141393103E+01 0.  0.
         22    1    3    3    0    0  0.11768114551E+02 -0.28245261917E+02 -0.17954933641E+03  0.18213799039E+03  0.00000000000E+00 0.  1.
         22    1    4    4    0    0 -0.19338831156E+01  0.36467057346E+01 -0.95516602934E+02  0.95605751933E+02  0.00000000000E+00 0. -1.
         22    1    4    4    0    0 -0.98342314356E+01  0.24598556182E+02 -0.11538894590E+04  0.11541935213E+04  0.00000000000E+00 0. -1.
<mgrwt>
<rscale>  0 0.92362311E+02</rscale>
<asrwt>0</asrwt>
<pdfrwt beam="2">  1        2 0.22006757E+00 0.92362311E+02</pdfrwt>
<pdfrwt beam="1">  1       -2 0.22937540E-03 0.92362311E+02</pdfrwt>
<totfact> 0.23183036E+05</totfact>
</mgrwt>
</event>
<event>
 7    1  0.3960685E-009  0.9298141E+02  0.7818608E-02  0.1295788E+00
          2   -1    0    0  501    0  0.00000000000E+00  0.00000000000E+00  0.31569477447E+02  0.31569477550E+02  0.25500000000E-02 0. -1.
         -2   -1    0    0    0  501 -0.00000000000E+00 -0.00000000000E+00 -0.68464414629E+02  0.68464414677E+02  0.25500000000E-02 0.  1.
         23    2    1    2    0    0  0.00000000000E+00  0.35527136788E-14 -0.36894937182E+02  0.10003389223E+03  0.92981413220E+02 0.  0.
    9000005    2    3    3    0    0 -0.39776159035E+02  0.21821125603E+02 -0.12531668474E+02  0.48537550490E+02  0.11855241147E+02 0.  0.
         22    1    3    3    0    0  0.39776159035E+02 -0.21821125603E+02 -0.24363268708E+02  0.51496341737E+02  0.00000000000E+00 0. -1.
         22    1    4    4    0    0 -0.87848047450E+01  0.74886103983E-01 -0.44949462172E+00  0.87966156987E+01  0.00000000000E+00 0.  1.
         22    1    4    4    0    0 -0.30991354290E+02  0.21746239499E+02 -0.12082173852E+02  0.39740934791E+02  0.00000000000E+00 0.  1.
<mgrwt>
<rscale>  0 0.92981413E+02</rscale>
<asrwt>0</asrwt>
<pdfrwt beam="1">  1        2 0.48568427E-02 0.92981413E+02</pdfrwt>
<pdfrwt beam="2">  1       -2 0.10532987E-01 0.92981413E+02</pdfrwt>
<totfact> 0.84612698E+04</totfact>
</mgrwt>
</event>
<event>
 7    1  0.3960685E-009  0.1146519E+03  0.7818608E-02  0.1252190E+00
         -2   -1    0    0    0  501 -0.00000000000E+00  0.00000000000E+00  0.65671290637E+03  0.65671290638E+03  0.25500000000E-02 0.  1.
          2   -1    0    0  501    0  0.00000000000E+00 -0.00000000000E+00 -0.50041107590E+01  0.50041114088E+01  0.25500000000E-02 0. -1.
         23    2    1    2    0    0  0.00000000000E+00  0.00000000000E+00  0.65170879561E+03  0.66171701779E+03  0.11465189640E+03 0.  0.
    9000005    2    3    3    0    0 -0.24559519732E+02 -0.57476884485E+01  0.62237045214E+03  0.62302665297E+03  0.13454541275E+02 0.  0.
         22    1    3    3    0    0  0.24559519732E+02  0.57476884485E+01  0.29338343476E+02  0.38690364820E+02  0.00000000000E+00 0. -1.
         22    1    4    4    0    0 -0.11187716168E+02 -0.86212608534E+01  0.24337966274E+03  0.24378915350E+03  0.00000000000E+00 0. -1.
         22    1    4    4    0    0 -0.13371803564E+02  0.28735724050E+01  0.37899078940E+03  0.37923749946E+03  0.00000000000E+00 0. -1.
<mgrwt>
<rscale>  0 0.11465190E+03</rscale>
<asrwt>0</asrwt>
<pdfrwt beam="2">  1        2 0.76986384E-03 0.11465190E+03</pdfrwt>
<pdfrwt beam="1">  1       -2 0.10103268E+00 0.11465190E+03</pdfrwt>
<totfact> 0.15849336E+04</totfact>
</mgrwt>
</event>
<event>
 7    1  0.3960685E-009  0.8011037E+02  0.7818608E-02  0.1328739E+00
          2   -1    0    0  501    0  0.00000000000E+00  0.00000000000E+00  0.39059592878E+03  0.39059592878E+03  0.25500000000E-02 0. -1.
         -2   -1    0    0    0  501 -0.00000000000E+00 -0.00000000000E+00 -0.41076150886E+01  0.41076158801E+01  0.25500000000E-02 0.  1.
         23    2    1    2    0    0  0.35527136788E-14  0.00000000000E+00  0.38648831369E+03  0.39470354466E+03  0.80110371074E+02 0.  0.
    9000005    2    3    3    0    0 -0.17662057295E+02 -0.13098176674E+02  0.35714613613E+03  0.35803647656E+03  0.12379236212E+02 0.  0.
         22    1    3    3    0    0  0.17662057295E+02  0.13098176674E+02  0.29342177553E+02  0.36667068108E+02  0.00000000000E+00 0.  1.
         22    1    4    4    0    0 -0.13831047319E+02 -0.63977109056E+01  0.29792498019E+03  0.29831446896E+03  0.00000000000E+00 0. -1.
         22    1    4    4    0    0 -0.38310099763E+01 -0.67004657681E+01  0.59221155948E+02  0.59722007592E+02  0.00000000000E+00 0. -1.
<mgrwt>
<rscale>  0 0.80110371E+02</rscale>
<asrwt>0</asrwt>
<pdfrwt beam="1">  1        2 0.60091699E-01 0.80110371E+02</pdfrwt>
<pdfrwt beam="2">  1       -2 0.63194066E-03 0.80110371E+02</pdfrwt>
<totfact> 0.27841281E+05</totfact>
</mgrwt>
</event>
<event>
 7    1  0.3960685E-009  0.9151529E+02  0.7818608E-02  0.1299223E+00
          2   -1    0    0  501    0  0.00000000000E+00  0.00000000000E+00  0.42069267788E+03  0.42069267789E+03  0.25500000000E-02 0. -1.
         -2   -1    0    0    0  501 -0.00000000000E+00 -0.00000000000E+00 -0.49769392449E+01  0.49769398981E+01  0.25500000000E-02 0.  1.
         23    2    1    2    0    0  0.00000000000E+00  0.00000000000E+00  0.41571573863E+03  0.42566961778E+03  0.91515289198E+02 0.  0.
    9000005    2    3    3    0    0 -0.26292838732E+02  0.14746693838E+02  0.36568642127E+03  0.36725976465E+03  0.15633223569E+02 0.  0.
         22    1    3    3    0    0  0.26292838732E+02 -0.14746693838E+02  0.50029317364E+02  0.58409853139E+02  0.00000000000E+00 0.  1.
         22    1    4    4    0    0 -0.92232425756E+01  0.24794148192E+01  0.20249610320E+03  0.20272120637E+03  0.00000000000E+00 0.  1.
         22    1    4    4    0    0 -0.17069596156E+02  0.12267279019E+02  0.16319031807E+03  0.16453855828E+03  0.00000000000E+00 0.  1.
<mgrwt>
<rscale>  0 0.91515289E+02</rscale>
<asrwt>0</asrwt>
<pdfrwt beam="1">  1        2 0.64721964E-01 0.91515289E+02</pdfrwt>
<pdfrwt beam="2">  1       -2 0.76568285E-03 0.91515289E+02</pdfrwt>
<totfact> 0.20123963E+05</totfact>
</mgrwt>
</event>
<event>
 7    1  0.3960685E-009  0.9398054E+02  0.7818608E-02  0.1293489E+00
          2   -1    0    0  501    0  0.00000000000E+00  0.00000000000E+00  0.72794590665E+03  0.72794590666E+03  0.25500000000E-02 0. -1.
         -2   -1    0    0    0  501 -0.00000000000E+00 -0.00000000000E+00 -0.30333093380E+01  0.30333104098E+01  0.25500000000E-02 0.  1.
         23    2    1    2    0    0  0.00000000000E+00  0.00000000000E+00  0.72491259732E+03  0.73097921707E+03  0.93980540743E+02 0.  0.
    9000005    2    3    3    0    0  0.35591728643E+02  0.13940014298E+02  0.57288629862E+03  0.57422115303E+03  0.83741442426E+01 0.  0.
         22    1    3    3    0    0 -0.35591728643E+02 -0.13940014298E+02  0.15202629870E+03  0.15675806404E+03  0.00000000000E+00 0.  1.
         22    1    4    4    0    0  0.57716360681E+01 -0.73758061376E+00  0.73393773127E+02  0.73624056815E+02  0.00000000000E+00 0.  1.
         22    1    4    4    0    0  0.29820092575E+02  0.14677594912E+02  0.49949252549E+03  0.50059709621E+03  0.00000000000E+00 0.  1.
<mgrwt>
<rscale>  0 0.93980541E+02</rscale>
<asrwt>0</asrwt>
<pdfrwt beam="1">  1        2 0.11199172E+00 0.93980541E+02</pdfrwt>
<pdfrwt beam="2">  1       -2 0.46666290E-03 0.93980541E+02</pdfrwt>
<totfact> 0.22084954E+05</totfact>
</mgrwt>
</event>
<event>
 7    1  0.3960685E-009  0.8887870E+02  0.7818608E-02  0.1305590E+00
          2   -1    0    0  501    0  0.00000000000E+00  0.00000000000E+00  0.31013710448E+03  0.31013710449E+03  0.25500000000E-02 0.  1.
         -2   -1    0    0    0  501 -0.00000000000E+00 -0.00000000000E+00 -0.63676867920E+01  0.63676873026E+01  0.25500000000E-02 0. -1.
         23    2    1    2    0    0  0.00000000000E+00  0.00000000000E+00  0.30376941769E+03  0.31650479179E+03  0.88878704454E+02 0.  0.
    9000005    2    3    3    0    0 -0.42051415891E+02  0.11123265793E+01  0.11297249329E+03  0.12112560864E+03  0.11792793563E+02 0.  0.
         22    1    3    3    0    0  0.42051415891E+02 -0.11123265793E+01  0.19079692440E+03  0.19537918315E+03  0.00000000000E+00 0.  1.
         22    1    4    4    0    0 -0.23685035786E+02  0.21247803370E+01  0.78890769249E+02  0.82396899725E+02  0.00000000000E+00 0. -1.
         22    1    4    4    0    0 -0.18366380105E+02 -0.10124537578E+01  0.34081724039E+02  0.38728708915E+02  0.00000000000E+00 0. -1.
<mgrwt>
<rscale>  0 0.88878704E+02</rscale>
<asrwt>0</asrwt>
<pdfrwt beam="1">  1        2 0.47713396E-01 0.88878704E+02</pdfrwt>
<pdfrwt beam="2">  1       -2 0.97964426E-03 0.88878704E+02</pdfrwt>
<totfact> 0.19468213E+05</totfact>
</mgrwt>
</event>
<event>
 7    1  0.3960685E-009  0.9132025E+02  0.7818608E-02  0.1299686E+00
         -2   -1    0    0    0  501 -0.00000000000E+00  0.00000000000E+00  0.11108280652E+02  0.11108280945E+02  0.25500000000E-02 0.  1.
          2   -1    0    0  501    0  0.00000000000E+00 -0.00000000000E+00 -0.18768405447E+03  0.18768405448E+03  0.25500000000E-02 0. -1.
         23    2    1    2    0    0  0.00000000000E+00 -0.35527136788E-14 -0.17657577381E+03  0.19879233543E+03  0.91320253653E+02 0.  0.
    9000005    2    3    3    0    0 -0.23154191529E+02  0.29808384708E+02 -0.14198066581E+03  0.14759196549E+03  0.14149997469E+02 0.  0.
         22    1    3    3    0    0  0.23154191529E+02 -0.29808384708E+02 -0.34595108004E+02  0.51200369941E+02  0.00000000000E+00 0.  1.
         22    1    4    4    0    0 -0.75060283412E+01  0.14431364594E+02 -0.38225462655E+02  0.41542637623E+02  0.00000000000E+00 0. -1.
         22    1    4    4    0    0 -0.15648163188E+02  0.15377020114E+02 -0.10375520316E+03  0.10604932787E+03  0.00000000000E+00 0. -1.
<mgrwt>
<rscale>  0 0.91320254E+02</rscale>
<asrwt>0</asrwt>
<pdfrwt beam="2">  1        2 0.28874468E-01 0.91320254E+02</pdfrwt>
<pdfrwt beam="1">  1       -2 0.17089664E-02 0.91320254E+02</pdfrwt>
<totfact> 0.15054277E+05</totfact>
</mgrwt>
</event>
<event>
 7    1  0.3960685E-009  0.8956581E+02  0.7818608E-02  0.1303907E+00
          2   -1    0    0  501    0  0.00000000000E+00  0.00000000000E+00  0.35283082667E+03  0.35283082668E+03  0.25500000000E-02 0. -1.
         -2   -1    0    0    0  501 -0.00000000000E+00 -0.00000000000E+00 -0.56840509977E+01  0.56840515697E+01  0.25500000000E-02 0.  1.
         23    2    1    2    0    0  0.00000000000E+00  0.00000000000E+00  0.34714677567E+03  0.35851487825E+03  0.89565808578E+02 0.  0.
    9000005    2    3    3    0    0 -0.20641441405E+02 -0.38728999698E+02  0.14533837379E+03  0.15198973307E+03  0.71855091634E+01 0.  0.
         22    1    3    3    0    0  0.20641441405E+02  0.38728999698E+02  0.20180840188E+03  0.20652514518E+03  0.00000000000E+00 0.  1.
         22    1    4    4    0    0 -0.11797900769E+02 -0.25706119297E+02  0.82675107286E+02  0.87379450654E+02  0.00000000000E+00 0.  1.
         22    1    4    4    0    0 -0.88435406363E+01 -0.13022880401E+02  0.62663266508E+02  0.64610282420E+02  0.00000000000E+00 0.  1.
<mgrwt>
<rscale>  0 0.89565809E+02</rscale>
<asrwt>0</asrwt>
<pdfrwt beam="1">  1        2 0.54281666E-01 0.89565809E+02</pdfrwt>
<pdfrwt beam="2">  1       -2 0.87446942E-03 0.89565809E+02</pdfrwt>
<totfact> 0.20000873E+05</totfact>
</mgrwt>
</event>
<event>
 7    1  0.3960685E-009  0.9076040E+02  0.7818608E-02  0.1301021E+00
          2   -1    0    0  501    0  0.00000000000E+00  0.00000000000E+00  0.93176963870E+02  0.93176963905E+02  0.25500000000E-02 0. -1.
         -2   -1    0    0    0  501 -0.00000000000E+00 -0.00000000000E+00 -0.22101628695E+02  0.22101628842E+02  0.25500000000E-02 0.  1.
         23    2    1    2    0    0  0.44408920985E-15  0.00000000000E+00  0.71075335176E+02  0.11527859275E+03  0.90760402574E+02 0.  0.
    9000005    2    3    3    0    0  0.28374224082E+01  0.39560071304E+02  0.83405163605E+01  0.41057923798E+02  0.65680047132E+01 0.  0.
         22    1    3    3    0    0 -0.28374224082E+01 -0.39560071304E+02  0.62734818815E+02  0.74220668949E+02  0.00000000000E+00 0. -1.
         22    1    4    4    0    0 -0.15147864704E+01  0.59644355374E+01 -0.65784724366E-01  0.61541365732E+01  0.00000000000E+00 0. -1.
         22    1    4    4    0    0  0.43522088785E+01  0.33595635766E+02  0.84063010849E+01  0.34903787224E+02  0.00000000000E+00 0. -1.
<mgrwt>
<rscale>  0 0.90760403E+02</rscale>
<asrwt>0</asrwt>
<pdfrwt beam="1">  1        2 0.14334917E-01 0.90760403E+02</pdfrwt>
<pdfrwt beam="2">  1       -2 0.34002506E-02 0.90760403E+02</pdfrwt>
<totfact> 0.12161626E+05</totfact>
</mgrwt>
</event>
<event>
 7    1  0.3960685E-009  0.9530411E+02  0.7818608E-02  0.1290493E+00
          2   -1    0    0  501    0  0.00000000000E+00  0.00000000000E+00  0.81506749571E+01  0.81506753560E+01  0.25500000000E-02 0. -1.
         -2   -1    0    0    0  501 -0.00000000000E+00 -0.00000000000E+00 -0.27859267229E+03  0.27859267230E+03  0.25500000000E-02 0.  1.
         23    2    1    2    0    0  0.00000000000E+00  0.00000000000E+00 -0.27044199734E+03  0.28674334766E+03  0.95304110638E+02 0.  0.
    9000005    2    3    3    0    0 -0.22707670451E+02  0.16274654822E+02 -0.25073520133E+03  0.25255474582E+03  0.11629951170E+02 0.  0.
         22    1    3    3    0    0  0.22707670451E+02 -0.16274654822E+02 -0.19706796007E+02  0.34188601840E+02  0.00000000000E+00 0. -1.
         22    1    4    4    0    0 -0.21405674081E+02  0.16424005416E+02 -0.20105359694E+03  0.20285585937E+03  0.00000000000E+00 0.  1.
         22    1    4    4    0    0 -0.13019963701E+01 -0.14935059364E+00 -0.49681604385E+02  0.49698886450E+02  0.00000000000E+00 0.  1.
<mgrwt>
<rscale>  0 0.95304111E+02</rscale>
<asrwt>0</asrwt>
<pdfrwt beam="1">  1        2 0.12539502E-02 0.95304111E+02</pdfrwt>
<pdfrwt beam="2">  1       -2 0.42860404E-01 0.95304111E+02</pdfrwt>
<totfact> 0.47391711E+04</totfact>
</mgrwt>
</event>
<event>
 7    1  0.3960685E-009  0.8945181E+02  0.7818608E-02  0.1304185E+00
          2   -1    0    0  501    0  0.00000000000E+00  0.00000000000E+00  0.37457182515E+02  0.37457182602E+02  0.25500000000E-02 0. -1.
         -2   -1    0    0    0  501 -0.00000000000E+00 -0.00000000000E+00 -0.53405154803E+02  0.53405154864E+02  0.25500000000E-02 0.  1.
         23    2    1    2    0    0  0.00000000000E+00 -0.88817841970E-15 -0.15947972288E+02  0.90862337466E+02  0.89451811327E+02 0.  0.
    9000005    2    3    3    0    0 -0.32306015079E+02 -0.40421248048E+01  0.22854958306E+02  0.40209748136E+02  0.58700377167E+01 0.  0.
         22    1    3    3    0    0  0.32306015079E+02  0.40421248048E+01 -0.38802930594E+02  0.50652589330E+02  0.00000000000E+00 0.  1.
         22    1    4    4    0    0 -0.19085613398E+02 -0.29816981584E+01  0.10053856119E+02  0.21776849762E+02  0.00000000000E+00 0.  1.
         22    1    4    4    0    0 -0.13220401680E+02 -0.10604266464E+01  0.12801102187E+02  0.18432898374E+02  0.00000000000E+00 0.  1.
<mgrwt>
<rscale>  0 0.89451811E+02</rscale>
<asrwt>0</asrwt>
<pdfrwt beam="1">  1        2 0.57626435E-02 0.89451811E+02</pdfrwt>
<pdfrwt beam="2">  1       -2 0.82161777E-02 0.89451811E+02</pdfrwt>
<totfact> 0.99125398E+04</totfact>
</mgrwt>
</event>
<event>
 7    1  0.3960685E-009  0.9129985E+02  0.7818608E-02  0.1299734E+00
         -2   -1    0    0    0  501 -0.00000000000E+00  0.00000000000E+00  0.21835193606E+02  0.21835193755E+02  0.25500000000E-02 0.  1.
          2   -1    0    0  501    0  0.00000000000E+00 -0.00000000000E+00 -0.95438383314E+02  0.95438383348E+02  0.25500000000E-02 0. -1.
         23    2    1    2    0    0  0.35527136788E-14  0.00000000000E+00 -0.73603189708E+02  0.11727357710E+03  0.91299848583E+02 0.  0.
    9000005    2    3    3    0    0  0.29160864900E+02  0.16946416027E+02  0.14649983559E+01  0.34976736841E+02  0.91481605801E+01 0.  0.
         22    1    3    3    0    0 -0.29160864900E+02 -0.16946416027E+02 -0.75068188064E+02  0.82296840262E+02  0.00000000000E+00 0. -1.
         22    1    4    4    0    0  0.14857999525E+02  0.34531079114E+01 -0.64752605582E-01  0.15254123935E+02  0.00000000000E+00 0. -1.
         22    1    4    4    0    0  0.14302865375E+02  0.13493308115E+02  0.15297509614E+01  0.19722612906E+02  0.00000000000E+00 0. -1.
<mgrwt>
<rscale>  0 0.91299849E+02</rscale>
<asrwt>0</asrwt>
<pdfrwt beam="2">  1        2 0.14682828E-01 0.91299849E+02</pdfrwt>
<pdfrwt beam="1">  1       -2 0.33592606E-02 0.91299849E+02</pdfrwt>
<totfact> 0.12050617E+05</totfact>
</mgrwt>
</event>
<event>
 7    1  0.3960685E-009  0.9090689E+02  0.7818608E-02  0.1300670E+00
          2   -1    0    0  501    0  0.00000000000E+00  0.00000000000E+00  0.28796879096E+02  0.28796879209E+02  0.25500000000E-02 0. -1.
         -2   -1    0    0    0  501 -0.00000000000E+00 -0.00000000000E+00 -0.71744425346E+02  0.71744425391E+02  0.25500000000E-02 0.  1.
         23    2    1    2    0    0  0.00000000000E+00 -0.35527136788E-14 -0.42947546250E+02  0.10054130460E+03  0.90906887538E+02 0.  0.
    9000005    2    3    3    0    0  0.29401077606E+02  0.29189714579E+02 -0.39166708107E+02  0.58938930405E+02  0.14943349414E+02 0.  0.
         22    1    3    3    0    0 -0.29401077606E+02 -0.29189714579E+02 -0.37808381430E+01  0.41602374196E+02  0.00000000000E+00 0. -1.
         22    1    4    4    0    0  0.30926236080E+02  0.27476838680E+02 -0.38590537245E+02  0.56574184102E+02  0.00000000000E+00 0.  1.
         22    1    4    4    0    0 -0.15251584735E+01  0.17128758992E+01 -0.57617086148E+00  0.23647463029E+01  0.00000000000E+00 0.  1.
<mgrwt>
<rscale>  0 0.90906888E+02</rscale>
<asrwt>0</asrwt>
<pdfrwt beam="1">  1        2 0.44302891E-02 0.90906888E+02</pdfrwt>
<pdfrwt beam="2">  1       -2 0.11037604E-01 0.90906888E+02</pdfrwt>
<totfact> 0.88276717E+04</totfact>
</mgrwt>
</event>
<event>
 7    1  0.3960685E-009  0.9071083E+02  0.7818608E-02  0.1301139E+00
          2   -1    0    0  501    0  0.00000000000E+00  0.00000000000E+00  0.10734604447E+03  0.10734604450E+03  0.25500000000E-02 0.  1.
         -2   -1    0    0    0  501 -0.00000000000E+00 -0.00000000000E+00 -0.19163386990E+02  0.19163387160E+02  0.25500000000E-02 0. -1.
         23    2    1    2    0    0  0.11102230246E-15 -0.35527136788E-14  0.88182657483E+02  0.12650943166E+03  0.90710832975E+02 0.  0.
    9000005    2    3    3    0    0  0.80654458815E+00  0.27437534620E+02  0.93359779280E+02  0.98576092975E+02  0.15739405919E+02 0.  0.
         22    1    3    3    0    0 -0.80654458815E+00 -0.27437534620E+02 -0.51771217969E+01  0.27933338689E+02  0.00000000000E+00 0. -1.
         22    1    4    4    0    0 -0.27984226079E+01 -0.20290979868E+00  0.18177601169E+02  0.18392866164E+02  0.00000000000E+00 0. -1.
         22    1    4    4    0    0  0.36049671961E+01  0.27640444419E+02  0.75182178111E+02  0.80183226810E+02  0.00000000000E+00 0. -1.
<mgrwt>
<rscale>  0 0.90710833E+02</rscale>
<asrwt>0</asrwt>
<pdfrwt beam="1">  1        2 0.16514776E-01 0.90710833E+02</pdfrwt>
<pdfrwt beam="2">  1       -2 0.29482134E-02 0.90710833E+02</pdfrwt>
<totfact> 0.12715508E+05</totfact>
</mgrwt>
</event>
<event>
 7    1  0.3960685E-009  0.9089330E+02  0.7818608E-02  0.1300703E+00
          2   -1    0    0  501    0  0.00000000000E+00  0.00000000000E+00  0.37336895954E+02  0.37336896041E+02  0.25500000000E-02 0. -1.
         -2   -1    0    0    0  501 -0.00000000000E+00 -0.00000000000E+00 -0.55317882092E+02  0.55317882151E+02  0.25500000000E-02 0.  1.
         23    2    1    2    0    0  0.00000000000E+00  0.00000000000E+00 -0.17980986139E+02  0.92654778192E+02  0.90893300409E+02 0.  0.
    9000005    2    3    3    0    0 -0.32074723951E+02  0.25217124132E+02 -0.27632318104E+02  0.50728181922E+02  0.12046251336E+02 0.  0.
         22    1    3    3    0    0  0.32074723951E+02 -0.25217124132E+02  0.96513319652E+01  0.41926596270E+02  0.00000000000E+00 0. -1.
         22    1    4    4    0    0 -0.33587271001E+01  0.54231908309E+01 -0.94354808088E+01  0.11389483949E+02  0.00000000000E+00 0.  1.
         22    1    4    4    0    0 -0.28715996851E+02  0.19793933301E+02 -0.18196837295E+02  0.39338697973E+02  0.00000000000E+00 0.  1.
<mgrwt>
<rscale>  0 0.90893300E+02</rscale>
<asrwt>0</asrwt>
<pdfrwt beam="1">  1        2 0.57441378E-02 0.90893300E+02</pdfrwt>
<pdfrwt beam="2">  1       -2 0.85104434E-02 0.90893300E+02</pdfrwt>
<totfact> 0.94554118E+04</totfact>
</mgrwt>
</event>
<event>
 7    1  0.3960685E-009  0.9207776E+02  0.7818608E-02  0.1297897E+00
         -2   -1    0    0    0  501 -0.00000000000E+00  0.00000000000E+00  0.45184947320E+02  0.45184947392E+02  0.25500000000E-02 0. -1.
          2   -1    0    0  501    0  0.00000000000E+00 -0.00000000000E+00 -0.46908947627E+02  0.46908947696E+02  0.25500000000E-02 0.  1.
         23    2    1    2    0    0  0.00000000000E+00  0.00000000000E+00 -0.17240003064E+01  0.92093895088E+02  0.92077757007E+02 0.  0.
    9000005    2    3    3    0    0 -0.13704258898E+02  0.38521040852E+02  0.20067091180E+02  0.45763246825E+02  0.44619851276E+01 0.  0.
         22    1    3    3    0    0  0.13704258898E+02 -0.38521040852E+02 -0.21791091487E+02  0.46330648263E+02  0.00000000000E+00 0.  1.
         22    1    4    4    0    0 -0.88382044974E+01  0.29467212077E+02  0.13736961639E+02  0.33691758064E+02  0.00000000000E+00 0. -1.
         22    1    4    4    0    0 -0.48660544004E+01  0.90538287750E+01  0.63301295416E+01  0.12071488762E+02  0.00000000000E+00 0. -1.
<mgrwt>
<rscale>  0 0.92077757E+02</rscale>
<asrwt>0</asrwt>
<pdfrwt beam="2">  1        2 0.72167612E-02 0.92077757E+02</pdfrwt>
<pdfrwt beam="1">  1       -2 0.69515304E-02 0.92077757E+02</pdfrwt>
<totfact> 0.96643459E+04</totfact>
</mgrwt>
</event>
<event>
 7    1  0.3960685E-009  0.9091447E+02  0.7818608E-02  0.1300652E+00
          2   -1    0    0  501    0  0.00000000000E+00  0.00000000000E+00  0.37550125527E+03  0.37550125528E+03  0.25500000000E-02 0. -1.
         -2   -1    0    0    0  501 -0.00000000000E+00 -0.00000000000E+00 -0.55029377493E+01  0.55029383401E+01  0.25500000000E-02 0.  1.
         23    2    1    2    0    0  0.00000000000E+00  0.00000000000E+00  0.36999831752E+03  0.38100419362E+03  0.90914468523E+02 0.  0.
    9000005    2    3    3    0    0 -0.11465822165E+02 -0.39101031770E+02  0.26387943312E+03  0.26733109483E+03  0.13160671406E+02 0.  0.
         22    1    3    3    0    0  0.11465822165E+02  0.39101031770E+02  0.10611888440E+03  0.11367309879E+03  0.00000000000E+00 0.  1.
         22    1    4    4    0    0  0.10119824720E+00 -0.42909184627E+01  0.11045774894E+02  0.11850374060E+02  0.00000000000E+00 0.  1.
         22    1    4    4    0    0 -0.11567020412E+02 -0.34810113308E+02  0.25283365823E+03  0.25548072077E+03  0.00000000000E+00 0.  1.
<mgrwt>
<rscale>  0 0.90914469E+02</rscale>
<asrwt>0</asrwt>
<pdfrwt beam="1">  1        2 0.57769433E-01 0.90914469E+02</pdfrwt>
<pdfrwt beam="2">  1       -2 0.84660572E-03 0.90914469E+02</pdfrwt>
<totfact> 0.19662782E+05</totfact>
</mgrwt>
</event>
<event>
 7    1  0.3960685E-009  0.9182327E+02  0.7818608E-02  0.1298495E+00
         -2   -1    0    0    0  501 -0.00000000000E+00  0.00000000000E+00  0.93172182606E+01  0.93172186095E+01  0.25500000000E-02 0.  1.
          2   -1    0    0  501    0  0.00000000000E+00 -0.00000000000E+00 -0.22623473213E+03  0.22623473215E+03  0.25500000000E-02 0. -1.
         23    2    1    2    0    0 -0.17763568394E-14  0.00000000000E+00 -0.21691751387E+03  0.23555195076E+03  0.91823274178E+02 0.  0.
    9000005    2    3    3    0    0  0.11377476748E+02 -0.34305933679E+02 -0.37609393787E+02  0.52637364156E+02  0.70626865638E+01 0.  0.
         22    1    3    3    0    0 -0.11377476748E+02  0.34305933679E+02 -0.17930812009E+03  0.18291458660E+03  0.00000000000E+00 0. -1.
         22    1    4    4    0    0  0.11615664072E+02 -0.25772357207E+02 -0.29625656363E+02  0.40948962902E+02  0.00000000000E+00 0. -1.
         22    1    4    4    0    0 -0.23818732373E+00 -0.85335764728E+01 -0.79837374236E+01  0.11688401254E+02  0.00000000000E+00 0. -1.
<mgrwt>
<rscale>  0 0.91823274E+02</rscale>
<asrwt>0</asrwt>
<pdfrwt beam="2">  1        2 0.34805339E-01 0.91823274E+02</pdfrwt>
<pdfrwt beam="1">  1       -2 0.14334184E-02 0.91823274E+02</pdfrwt>
<totfact> 0.15874705E+05</totfact>
</mgrwt>
</event>
<event>
 7    1  0.3960685E-009  0.8967911E+02  0.7818608E-02  0.1303631E+00
          2   -1    0    0  501    0  0.00000000000E+00  0.00000000000E+00  0.51204908693E+03  0.51204908694E+03  0.25500000000E-02 0. -1.
         -2   -1    0    0    0  501 -0.00000000000E+00 -0.00000000000E+00 -0.39265479042E+01  0.39265487323E+01  0.25500000000E-02 0.  1.
         23    2    1    2    0    0  0.00000000000E+00 -0.44408920985E-15  0.50812253902E+03  0.51597563567E+03  0.89679105357E+02 0.  0.
    9000005    2    3    3    0    0  0.34701786199E+02 -0.13627584819E+01  0.41291162554E+03  0.41462876042E+03  0.14660401905E+02 0.  0.
         22    1    3    3    0    0 -0.34701786199E+02  0.13627584819E+01  0.95210913480E+02  0.10134687524E+03  0.00000000000E+00 0.  1.
         22    1    4    4    0    0  0.32710428865E+02 -0.21330136003E+01  0.31639829771E+03  0.31809181803E+03  0.00000000000E+00 0. -1.
         22    1    4    4    0    0  0.19913573338E+01  0.77025511843E+00  0.96513327835E+02  0.96536942393E+02  0.00000000000E+00 0. -1.
<mgrwt>
<rscale>  0 0.89679105E+02</rscale>
<asrwt>0</asrwt>
<pdfrwt beam="1">  1        2 0.78776780E-01 0.89679105E+02</pdfrwt>
<pdfrwt beam="2">  1       -2 0.60408437E-03 0.89679105E+02</pdfrwt>
<totfact> 0.22687513E+05</totfact>
</mgrwt>
</event>
<event>
 7    1  0.3960685E-009  0.9066995E+02  0.7818608E-02  0.1301237E+00
         -2   -1    0    0    0  501 -0.00000000000E+00  0.00000000000E+00  0.27491900053E+02  0.27491900171E+02  0.25500000000E-02 0.  1.
          2   -1    0    0  501    0  0.00000000000E+00 -0.00000000000E+00 -0.74758747606E+02  0.74758747649E+02  0.25500000000E-02 0. -1.
         23    2    1    2    0    0  0.35527136788E-14  0.00000000000E+00 -0.47266847552E+02  0.10225064782E+03  0.90669951484E+02 0.  0.
    9000005    2    3    3    0    0  0.28965760457E+02 -0.33162111584E+02 -0.11664864636E+02  0.45626959216E+02  0.26475303027E+01 0.  0.
         22    1    3    3    0    0 -0.28965760457E+02  0.33162111584E+02 -0.35601982917E+02  0.56623688605E+02  0.00000000000E+00 0. -1.
         22    1    4    4    0    0  0.10925920027E+01 -0.13708065290E+01 -0.10175627077E+01  0.20268945923E+01  0.00000000000E+00 0.  1.
         22    1    4    4    0    0  0.27873168455E+02 -0.31791305055E+02 -0.10647301928E+02  0.43600064623E+02  0.00000000000E+00 0.  1.
<mgrwt>
<rscale>  0 0.90669951E+02</rscale>
<asrwt>0</asrwt>
<pdfrwt beam="2">  1        2 0.11501346E-01 0.90669951E+02</pdfrwt>
<pdfrwt beam="1">  1       -2 0.42295231E-02 0.90669951E+02</pdfrwt>
<totfact> 0.11443322E+05</totfact>
</mgrwt>
</event>
<event>
 7    1  0.3960685E-009  0.9327847E+02  0.7818608E-02  0.1295101E+00
         -2   -1    0    0    0  501 -0.00000000000E+00  0.00000000000E+00  0.16467123931E+02  0.16467124129E+02  0.25500000000E-02 0.  1.
          2   -1    0    0  501    0  0.00000000000E+00 -0.00000000000E+00 -0.13209460551E+03  0.13209460554E+03  0.25500000000E-02 0. -1.
         23    2    1    2    0    0  0.00000000000E+00  0.00000000000E+00 -0.11562748158E+03  0.14856172967E+03  0.93278470316E+02 0.  0.
    9000005    2    3    3    0    0 -0.23432677617E+02  0.31202738079E+02 -0.20097159003E+02  0.45368979069E+02  0.11478119088E+02 0.  0.
         22    1    3    3    0    0  0.23432677617E+02 -0.31202738079E+02 -0.95530322577E+02  0.10319275060E+03  0.00000000000E+00 0. -1.
         22    1    4    4    0    0 -0.38446937074E+01  0.13782204247E+02 -0.89960812074E+01  0.16901488120E+02  0.00000000000E+00 0. -1.
         22    1    4    4    0    0 -0.19587983910E+02  0.17420533833E+02 -0.11101077796E+02  0.28467490948E+02  0.00000000000E+00 0. -1.
<mgrwt>
<rscale>  0 0.93278470E+02</rscale>
<asrwt>0</asrwt>
<pdfrwt beam="2">  1        2 0.20322246E-01 0.93278470E+02</pdfrwt>
<pdfrwt beam="1">  1       -2 0.25334038E-02 0.93278470E+02</pdfrwt>
<totfact> 0.12589710E+05</totfact>
</mgrwt>
</event>
<event>
 7    1  0.3960685E-009  0.9114151E+02  0.7818608E-02  0.1300111E+00
         -2   -1    0    0    0  501 -0.00000000000E+00  0.00000000000E+00  0.66389045060E+01  0.66389049958E+01  0.25500000000E-02 0.  1.
          2   -1    0    0  501    0  0.00000000000E+00 -0.00000000000E+00 -0.31280670462E+03  0.31280670463E+03  0.25500000000E-02 0. -1.
         23    2    1    2    0    0  0.00000000000E+00  0.00000000000E+00 -0.30616780011E+03  0.31944560963E+03  0.91141514596E+02 0.  0.
    9000005    2    3    3    0    0 -0.31375743968E+02 -0.20166911457E+02 -0.24155093603E+03  0.24483675793E+03  0.14388944018E+02 0.  0.
         22    1    3    3    0    0  0.31375743968E+02  0.20166911457E+02 -0.64616864087E+02  0.74608851698E+02  0.00000000000E+00 0.  1.
         22    1    4    4    0    0 -0.13930662741E+02 -0.17266488931E+02 -0.12543187467E+03  0.12737876663E+03  0.00000000000E+00 0. -1.
         22    1    4    4    0    0 -0.17445081228E+02 -0.29004225260E+01 -0.11611906136E+03  0.11745799130E+03  0.00000000000E+00 0. -1.
<mgrwt>
<rscale>  0 0.91141515E+02</rscale>
<asrwt>0</asrwt>
<pdfrwt beam="2">  1        2 0.48124097E-01 0.91141515E+02</pdfrwt>
<pdfrwt beam="1">  1       -2 0.10213702E-02 0.91141515E+02</pdfrwt>
<totfact> 0.18266353E+05</totfact>
</mgrwt>
</event>
<event>
 7    1  0.3960685E-009  0.9034675E+02  0.7818608E-02  0.1302014E+00
          2   -1    0    0  501    0  0.00000000000E+00  0.00000000000E+00  0.29324367028E+03  0.29324367029E+03  0.25500000000E-02 0. -1.
         -2   -1    0    0    0  501 -0.00000000000E+00 -0.00000000000E+00 -0.69588326664E+01  0.69588331336E+01  0.25500000000E-02 0.  1.
         23    2    1    2    0    0  0.17763568394E-14  0.66613381478E-15  0.28628483761E+03  0.30020250342E+03  0.90346747672E+02 0.  0.
    9000005    2    3    3    0    0 -0.13048159927E+02  0.65289973236E+00  0.28641039620E+03  0.28713741558E+03  0.15693935638E+02 0.  0.
         22    1    3    3    0    0  0.13048159927E+02 -0.65289973236E+00 -0.12555858763E+00  0.13065087849E+02  0.00000000000E+00 0.  1.
         22    1    4    4    0    0 -0.22204636379E+01 -0.38270064221E+01  0.18489993977E+03  0.18495287011E+03  0.00000000000E+00 0. -1.
         22    1    4    4    0    0 -0.10827696289E+02  0.44799061544E+01  0.10151045643E+03  0.10218454546E+03  0.00000000000E+00 0. -1.
<mgrwt>
<rscale>  0 0.90346748E+02</rscale>
<asrwt>0</asrwt>
<pdfrwt beam="1">  1        2 0.45114403E-01 0.90346748E+02</pdfrwt>
<pdfrwt beam="2">  1       -2 0.10705899E-02 0.90346748E+02</pdfrwt>
<totfact> 0.18254018E+05</totfact>
</mgrwt>
</event>
<event>
 7    1  0.3960685E-009  0.9069320E+02  0.7818608E-02  0.1301182E+00
         -2   -1    0    0    0  501 -0.00000000000E+00  0.00000000000E+00  0.14540970581E+02  0.14540970805E+02  0.25500000000E-02 0.  1.
          2   -1    0    0  501    0  0.00000000000E+00 -0.00000000000E+00 -0.14141519863E+03  0.14141519866E+03  0.25500000000E-02 0. -1.
         23    2    1    2    0    0  0.17763568394E-14  0.17763568394E-14 -0.12687422805E+03  0.15595616946E+03  0.90693202883E+02 0.  0.
    9000005    2    3    3    0    0 -0.13344218175E+02  0.10032322404E+02 -0.13583677459E+03  0.13700774230E+03  0.63856453631E+01 0.  0.
         22    1    3    3    0    0  0.13344218175E+02 -0.10032322404E+02  0.89625465389E+01  0.18948427164E+02  0.00000000000E+00 0.  1.
         22    1    4    4    0    0 -0.85246271800E+01  0.88664386186E+01 -0.78595196748E+02  0.79551794160E+02  0.00000000000E+00 0. -1.
         22    1    4    4    0    0 -0.48195909950E+01  0.11658837854E+01 -0.57241577842E+02  0.57455948136E+02  0.00000000000E+00 0. -1.
<mgrwt>
<rscale>  0 0.90693203E+02</rscale>
<asrwt>0</asrwt>
<pdfrwt beam="2">  1        2 0.21756183E-01 0.90693203E+02</pdfrwt>
<pdfrwt beam="1">  1       -2 0.22370725E-02 0.90693203E+02</pdfrwt>
<totfact> 0.13904928E+05</totfact>
</mgrwt>
</event>
<event>
 7    1  0.3960685E-009  0.9090065E+02  0.7818608E-02  0.1300685E+00
          2   -1    0    0  501    0  0.00000000000E+00  0.00000000000E+00  0.39146807734E+03  0.39146807735E+03  0.25500000000E-02 0. -1.
         -2   -1    0    0    0  501 -0.00000000000E+00 -0.00000000000E+00 -0.52768850694E+01  0.52768856856E+01  0.25500000000E-02 0.  1.
         23    2    1    2    0    0  0.00000000000E+00  0.00000000000E+00  0.38619119227E+03  0.39674496304E+03  0.90900652943E+02 0.  0.
    9000005    2    3    3    0    0 -0.16720716774E+02  0.38689893253E+02  0.14156662880E+03  0.14851590095E+03  0.15471659125E+02 0.  0.
         22    1    3    3    0    0  0.16720716774E+02 -0.38689893253E+02  0.24462456348E+03  0.24822906209E+03  0.00000000000E+00 0. -1.
         22    1    4    4    0    0 -0.58106290124E+00  0.90340940012E+01  0.14970785695E+02  0.17495053953E+02  0.00000000000E+00 0.  1.
         22    1    4    4    0    0 -0.16139653873E+02  0.29655799252E+02  0.12659584310E+03  0.13102084699E+03  0.00000000000E+00 0.  1.
<mgrwt>
<rscale>  0 0.90900653E+02</rscale>
<asrwt>0</asrwt>
<pdfrwt beam="1">  1        2 0.60225857E-01 0.90900653E+02</pdfrwt>
<pdfrwt beam="2">  1       -2 0.81182854E-03 0.90900653E+02</pdfrwt>
<totfact> 0.19968972E+05</totfact>
</mgrwt>
</event>
<event>
 7    1  0.3960685E-009  0.9156904E+02  0.7818608E-02  0.1299096E+00
          2   -1    0    0  501    0  0.00000000000E+00  0.00000000000E+00  0.26801660220E+03  0.26801660221E+03  0.25500000000E-02 0. -1.
         -2   -1    0    0    0  501 -0.00000000000E+00 -0.00000000000E+00 -0.78212403417E+01  0.78212407574E+01  0.25500000000E-02 0.  1.
         23    2    1    2    0    0  0.00000000000E+00  0.00000000000E+00  0.26019536186E+03  0.27583784297E+03  0.91569041065E+02 0.  0.
    9000005    2    3    3    0    0  0.41349769847E+02  0.42345189097E+01  0.73881901721E+02  0.84944050391E+02  0.54057079212E+01 0.  0.
         22    1    3    3    0    0 -0.41349769847E+02 -0.42345189097E+01  0.18631346014E+03  0.19089379258E+03  0.00000000000E+00 0. -1.
         22    1    4    4    0    0  0.38541615452E+02  0.31946221348E+01  0.70619531897E+02  0.80515712862E+02  0.00000000000E+00 0.  1.
         22    1    4    4    0    0  0.28081543942E+01  0.10398967749E+01  0.32623698239E+01  0.44283375291E+01  0.00000000000E+00 0.  1.
<mgrwt>
<rscale>  0 0.91569041E+02</rscale>
<asrwt>0</asrwt>
<pdfrwt beam="1">  1        2 0.41233317E-01 0.91569041E+02</pdfrwt>
<pdfrwt beam="2">  1       -2 0.12032680E-02 0.91569041E+02</pdfrwt>
<totfact> 0.17029415E+05</totfact>
</mgrwt>
</event>
<event>
 7    1  0.3960685E-009  0.9034880E+02  0.7818608E-02  0.1302009E+00
          2   -1    0    0  501    0  0.00000000000E+00  0.00000000000E+00  0.90452664860E+03  0.90452664861E+03  0.25500000000E-02 0. -1.
         -2   -1    0    0    0  501 -0.00000000000E+00 -0.00000000000E+00 -0.22561257268E+01  0.22561271679E+01  0.25500000000E-02 0.  1.
         23    2    1    2    0    0  0.00000000000E+00  0.00000000000E+00  0.90227052288E+03  0.90678277577E+03  0.90348801818E+02 0.  0.
    9000005    2    3    3    0    0  0.32667104725E+02  0.16363927852E+02  0.71497999017E+03  0.71596175621E+03  0.83625443211E+01 0.  0.
         22    1    3    3    0    0 -0.32667104725E+02 -0.16363927852E+02  0.18729053271E+03  0.19082101957E+03  0.00000000000E+00 0.  1.
         22    1    4    4    0    0  0.23210393857E+02  0.14441795635E+02  0.47284491931E+03  0.47363446408E+03  0.00000000000E+00 0. -1.
         22    1    4    4    0    0  0.94567108672E+01  0.19221322172E+01  0.24213507085E+03  0.24232729213E+03  0.00000000000E+00 0. -1.
<mgrwt>
<rscale>  0 0.90348802E+02</rscale>
<asrwt>0</asrwt>
<pdfrwt beam="1">  1        2 0.13915811E+00 0.90348802E+02</pdfrwt>
<pdfrwt beam="2">  1       -2 0.34709598E-03 0.90348802E+02</pdfrwt>
<totfact> 0.25410967E+05</totfact>
</mgrwt>
</event>
<event>
 7    1  0.3960685E-009  0.9086028E+02  0.7818608E-02  0.1300782E+00
         -2   -1    0    0    0  501 -0.00000000000E+00  0.00000000000E+00  0.51360317746E+01  0.51360324076E+01  0.25500000000E-02 0.  1.
          2   -1    0    0  501    0  0.00000000000E+00 -0.00000000000E+00 -0.40184667617E+03  0.40184667618E+03  0.25500000000E-02 0. -1.
         23    2    1    2    0    0 -0.17763568394E-14 -0.71054273576E-14 -0.39671064440E+03  0.40698270859E+03  0.90860275760E+02 0.  0.
    9000005    2    3    3    0    0 -0.12148272478E+02 -0.32604739373E+02 -0.32720376443E+03  0.32925333244E+03  0.11610508629E+02 0.  0.
         22    1    3    3    0    0  0.12148272478E+02  0.32604739373E+02 -0.69506879965E+02  0.77729376147E+02  0.00000000000E+00 0. -1.
         22    1    4    4    0    0 -0.59569498506E+01 -0.44193768859E+01 -0.88846541744E+02  0.89155617453E+02  0.00000000000E+00 0. -1.
         22    1    4    4    0    0 -0.61913226274E+01 -0.28185362487E+02 -0.23835722269E+03  0.24009771499E+03  0.00000000000E+00 0. -1.
<mgrwt>
<rscale>  0 0.90860276E+02</rscale>
<asrwt>0</asrwt>
<pdfrwt beam="2">  1        2 0.61822541E-01 0.90860276E+02</pdfrwt>
<pdfrwt beam="1">  1       -2 0.79015910E-03 0.90860276E+02</pdfrwt>
<totfact> 0.20180795E+05</totfact>
</mgrwt>
</event>
<event>
 7    1  0.3960685E-009  0.9252466E+02  0.7818608E-02  0.1296851E+00
         -2   -1    0    0    0  501 -0.00000000000E+00  0.00000000000E+00  0.36411721491E+01  0.36411730421E+01  0.25500000000E-02 0.  1.
          2   -1    0    0  501    0  0.00000000000E+00 -0.00000000000E+00 -0.58777856362E+03  0.58777856363E+03  0.25500000000E-02 0. -1.
         23    2    1    2    0    0  0.00000000000E+00 -0.35527136788E-14 -0.58413739148E+03  0.59141973667E+03  0.92524660527E+02 0.  0.
    9000005    2    3    3    0    0  0.34095142355E+02  0.27490532897E+02 -0.37595695601E+03  0.37868210050E+03  0.11759776353E+02 0.  0.
         22    1    3    3    0    0 -0.34095142355E+02 -0.27490532897E+02 -0.20818043547E+03  0.21273763617E+03  0.00000000000E+00 0.  1.
         22    1    4    4    0    0  0.61996121613E+01  0.10072821116E+02 -0.12985037758E+03  0.13038794988E+03  0.00000000000E+00 0.  1.
         22    1    4    4    0    0  0.27895530194E+02  0.17417711781E+02 -0.24610657842E+03  0.24829415062E+03  0.00000000000E+00 0.  1.
<mgrwt>
<rscale>  0 0.92524661E+02</rscale>
<asrwt>0</asrwt>
<pdfrwt beam="2">  1        2 0.90427396E-01 0.92524661E+02</pdfrwt>
<pdfrwt beam="1">  1       -2 0.56018086E-03 0.92524661E+02</pdfrwt>
<totfact> 0.21788897E+05</totfact>
</mgrwt>
</event>
<event>
 7    1  0.3960685E-009  0.8981698E+02  0.7818608E-02  0.1303296E+00
          2   -1    0    0  501    0  0.00000000000E+00  0.00000000000E+00  0.13592472778E+04  0.13592472778E+04  0.25500000000E-02 0.  1.
         -2   -1    0    0    0  501 -0.00000000000E+00 -0.00000000000E+00 -0.14837411443E+01  0.14837433355E+01  0.25500000000E-02 0. -1.
         23    2    1    2    0    0  0.00000000000E+00 -0.17763568394E-14  0.13577635367E+04  0.13607310212E+04  0.89816982890E+02 0.  0.
    9000005    2    3    3    0    0 -0.22872033716E+02 -0.12509569014E+02  0.12321565815E+04  0.12324472481E+04  0.60629000013E+01 0.  0.
         22    1    3    3    0    0  0.22872033716E+02  0.12509569014E+02  0.12560695520E+03  0.12828377309E+03  0.00000000000E+00 0. -1.
         22    1    4    4    0    0 -0.17337387548E+02 -0.80766891568E+01  0.77664347659E+03  0.77687895302E+03  0.00000000000E+00 0.  1.
         22    1    4    4    0    0 -0.55346461677E+01 -0.44328798576E+01  0.45551310488E+03  0.45556829505E+03  0.00000000000E+00 0.  1.
<mgrwt>
<rscale>  0 0.89816983E+02</rscale>
<asrwt>0</asrwt>
<pdfrwt beam="1">  1        2 0.20911533E+00 0.89816983E+02</pdfrwt>
<pdfrwt beam="2">  1       -2 0.22826764E-03 0.89816983E+02</pdfrwt>
<totfact> 0.25311232E+05</totfact>
</mgrwt>
</event>
<event>
 7    1  0.3960685E-009  0.9830050E+02  0.7818608E-02  0.1283911E+00
         -2   -1    0    0    0  501 -0.00000000000E+00  0.00000000000E+00  0.18081344626E+02  0.18081344806E+02  0.25500000000E-02 0.  1.
          2   -1    0    0  501    0  0.00000000000E+00 -0.00000000000E+00 -0.13360439679E+03  0.13360439681E+03  0.25500000000E-02 0. -1.
         23    2    1    2    0    0  0.35527136788E-14  0.35527136788E-14 -0.11552305216E+03  0.15168574162E+03  0.98300501676E+02 0.  0.
    9000005    2    3    3    0    0  0.19018554554E+02  0.30832656637E+02 -0.98223494549E+01  0.39949459752E+02  0.13679278237E+02 0.  0.
         22    1    3    3    0    0 -0.19018554554E+02 -0.30832656637E+02 -0.10570070271E+03  0.11173628187E+03  0.00000000000E+00 0. -1.
         22    1    4    4    0    0 -0.81980088799E+00 -0.73290541323E+00  0.58031969735E+00  0.12433803890E+01  0.00000000000E+00 0. -1.
         22    1    4    4    0    0  0.19838355442E+02  0.31565562050E+02 -0.10402669152E+02  0.38706079363E+02  0.00000000000E+00 0. -1.
<mgrwt>
<rscale>  0 0.98300502E+02</rscale>
<asrwt>0</asrwt>
<pdfrwt beam="2">  1        2 0.20554522E-01 0.98300502E+02</pdfrwt>
<pdfrwt beam="1">  1       -2 0.27817454E-02 0.98300502E+02</pdfrwt>
<totfact> 0.10943739E+05</totfact>
</mgrwt>
</event>
<event>
 7    1  0.3960685E-009  0.9195314E+02  0.7818608E-02  0.1298190E+00
          2   -1    0    0  501    0  0.00000000000E+00  0.00000000000E+00  0.72847799458E+02  0.72847799502E+02  0.25500000000E-02 0. -1.
         -2   -1    0    0    0  501 -0.00000000000E+00 -0.00000000000E+00 -0.29017278580E+02  0.29017278692E+02  0.25500000000E-02 0.  1.
         23    2    1    2    0    0  0.00000000000E+00  0.00000000000E+00  0.43830520877E+02  0.10186507819E+03  0.91953138039E+02 0.  0.
    9000005    2    3    3    0    0  0.36735909307E+02 -0.16929382051E+01  0.52049952546E+02  0.64182826015E+02  0.76055586761E+01 0.  0.
         22    1    3    3    0    0 -0.36735909307E+02  0.16929382051E+01 -0.82194316691E+01  0.37682252180E+02  0.00000000000E+00 0.  1.
         22    1    4    4    0    0  0.32382076513E+02 -0.37268650919E+01  0.47145104872E+02  0.57316222102E+02  0.00000000000E+00 0.  1.
         22    1    4    4    0    0  0.43538327938E+01  0.20339268868E+01  0.49048476744E+01  0.68666039122E+01  0.00000000000E+00 0.  1.
<mgrwt>
<rscale>  0 0.91953138E+02</rscale>
<asrwt>0</asrwt>
<pdfrwt beam="1">  1        2 0.11207354E-01 0.91953138E+02</pdfrwt>
<pdfrwt beam="2">  1       -2 0.44641967E-02 0.91953138E+02</pdfrwt>
<totfact> 0.10923308E+05</totfact>
</mgrwt>
</event>
<event>
 7    1  0.3960685E-009  0.8806204E+02  0.7818608E-02  0.1307614E+00
         -2   -1    0    0    0  501 -0.00000000000E+00  0.00000000000E+00  0.94379683527E+01  0.94379686972E+01  0.25500000000E-02 0.  1.
          2   -1    0    0  501    0  0.00000000000E+00 -0.00000000000E+00 -0.20541821139E+03  0.20541821141E+03  0.25500000000E-02 0. -1.
         23    2    1    2    0    0  0.00000000000E+00  0.00000000000E+00 -0.19598024304E+03  0.21485618010E+03  0.88062037608E+02 0.  0.
    9000005    2    3    3    0    0 -0.31935949051E+02 -0.73929967798E+01 -0.28092870210E+02  0.43798496270E+02  0.73849628142E+01 0.  0.
         22    1    3    3    0    0  0.31935949051E+02  0.73929967798E+01 -0.16788737283E+03  0.17105768383E+03  0.00000000000E+00 0. -1.
         22    1    4    4    0    0 -0.29460559910E+02 -0.67752879237E+01 -0.22605505086E+02  0.37747026066E+02  0.00000000000E+00 0. -1.
         22    1    4    4    0    0 -0.24753891409E+01 -0.61770885613E+00 -0.54873651239E+01  0.60514702043E+01  0.00000000000E+00 0. -1.
<mgrwt>
<rscale>  0 0.88062038E+02</rscale>
<asrwt>0</asrwt>
<pdfrwt beam="2">  1        2 0.31602799E-01 0.88062038E+02</pdfrwt>
<pdfrwt beam="1">  1       -2 0.14519953E-02 0.88062038E+02</pdfrwt>
<totfact> 0.17145311E+05</totfact>
</mgrwt>
</event>
<event>
 7    1  0.3960685E-009  0.9275630E+02  0.7818608E-02  0.1296311E+00
         -2   -1    0    0    0  501 -0.00000000000E+00  0.00000000000E+00  0.16511282725E+02  0.16511282922E+02  0.25500000000E-02 0.  1.
          2   -1    0    0  501    0  0.00000000000E+00 -0.00000000000E+00 -0.13027047519E+03  0.13027047521E+03  0.25500000000E-02 0. -1.
         23    2    1    2    0    0  0.00000000000E+00  0.00000000000E+00 -0.11375919246E+03  0.14678175813E+03  0.92756297098E+02 0.  0.
    9000005    2    3    3    0    0  0.12022556712E+02  0.39794831192E+02 -0.88855588813E+02  0.98321878499E+02  0.66110262961E+01 0.  0.
         22    1    3    3    0    0 -0.12022556712E+02 -0.39794831192E+02 -0.24903603648E+02  0.48459879635E+02  0.00000000000E+00 0.  1.
         22    1    4    4    0    0  0.76239918731E+01  0.20052892386E+02 -0.52588304614E+02  0.56795893578E+02  0.00000000000E+00 0.  1.
         22    1    4    4    0    0  0.43985648388E+01  0.19741938807E+02 -0.36267284199E+02  0.41525984921E+02  0.00000000000E+00 0.  1.
<mgrwt>
<rscale>  0 0.92756297E+02</rscale>
<asrwt>0</asrwt>
<pdfrwt beam="2">  1        2 0.20041611E-01 0.92756297E+02</pdfrwt>
<pdfrwt beam="1">  1       -2 0.25401974E-02 0.92756297E+02</pdfrwt>
<totfact> 0.12725854E+05</totfact>
</mgrwt>
</event>
<event>
 7    1  0.3960685E-009  0.9119784E+02  0.7818608E-02  0.1299977E+00
          2   -1    0    0  501    0  0.00000000000E+00  0.00000000000E+00  0.29766796532E+03  0.29766796533E+03  0.25500000000E-02 0. -1.
         -2   -1    0    0    0  501 -0.00000000000E+00 -0.00000000000E+00 -0.69851707636E+01  0.69851712291E+01  0.25500000000E-02 0.  1.
         23    2    1    2    0    0 -0.71054273576E-14  0.00000000000E+00  0.29068279455E+03  0.30465313656E+03  0.91197842982E+02 0.  0.
    9000005    2    3    3    0    0 -0.38573610772E+02  0.22481950215E+02  0.14217217530E+03  0.14957649239E+03  0.12916582918E+02 0.  0.
         22    1    3    3    0    0  0.38573610772E+02 -0.22481950215E+02  0.14851061925E+03  0.15507664416E+03  0.00000000000E+00 0.  1.
         22    1    4    4    0    0 -0.38257018878E+02  0.20562724863E+02  0.14032906981E+03  0.14689681065E+03  0.00000000000E+00 0. -1.
         22    1    4    4    0    0 -0.31659189437E+00  0.19192253516E+01  0.18431054915E+01  0.26796817405E+01  0.00000000000E+00 0. -1.
<mgrwt>
<rscale>  0 0.91197843E+02</rscale>
<asrwt>0</asrwt>
<pdfrwt beam="1">  1        2 0.45795067E-01 0.91197843E+02</pdfrwt>
<pdfrwt beam="2">  1       -2 0.10746418E-02 0.91197843E+02</pdfrwt>
<totfact> 0.17902858E+05</totfact>
</mgrwt>
</event>
<event>
 7    1  0.3960685E-009  0.9200723E+02  0.7818608E-02  0.1298062E+00
         -2   -1    0    0    0  501 -0.00000000000E+00  0.00000000000E+00  0.32739792830E+02  0.32739792929E+02  0.25500000000E-02 0.  1.
          2   -1    0    0  501    0  0.00000000000E+00 -0.00000000000E+00 -0.64640994064E+02  0.64640994114E+02  0.25500000000E-02 0. -1.
         23    2    1    2    0    0  0.00000000000E+00  0.00000000000E+00 -0.31901201234E+02  0.97380787043E+02  0.92007233656E+02 0.  0.
    9000005    2    3    3    0    0  0.12976127601E+02 -0.20255099002E+02 -0.56993328169E+02  0.62620698475E+02  0.97192334380E+01 0.  0.
         22    1    3    3    0    0 -0.12976127601E+02  0.20255099002E+02  0.25092126935E+02  0.34760088568E+02  0.00000000000E+00 0.  1.
         22    1    4    4    0    0  0.97247671650E+01 -0.14128499106E+02 -0.49606436665E+02  0.52487942825E+02  0.00000000000E+00 0.  1.
         22    1    4    4    0    0  0.32513604365E+01 -0.61265998962E+01 -0.73868915043E+01  0.10132755651E+02  0.00000000000E+00 0.  1.
<mgrwt>
<rscale>  0 0.92007234E+02</rscale>
<asrwt>0</asrwt>
<pdfrwt beam="2">  1        2 0.99447683E-02 0.92007234E+02</pdfrwt>
<pdfrwt beam="1">  1       -2 0.50368912E-02 0.92007234E+02</pdfrwt>
<totfact> 0.10550013E+05</totfact>
</mgrwt>
</event>
<event>
 7    1  0.3960685E-009  0.9581620E+02  0.7818608E-02  0.1289348E+00
          2   -1    0    0  501    0  0.00000000000E+00  0.00000000000E+00  0.41049395610E+02  0.41049395689E+02  0.25500000000E-02 0. -1.
         -2   -1    0    0    0  501 -0.00000000000E+00 -0.00000000000E+00 -0.55912790201E+02  0.55912790259E+02  0.25500000000E-02 0.  1.
         23    2    1    2    0    0  0.00000000000E+00 -0.17763568394E-14 -0.14863394591E+02  0.96962185948E+02  0.95816204293E+02 0.  0.
    9000005    2    3    3    0    0 -0.28679004189E+02  0.11787389241E+02  0.29391475737E+02  0.42925889127E+02  0.41647670933E+01 0.  0.
         22    1    3    3    0    0  0.28679004189E+02 -0.11787389241E+02 -0.44254870328E+02  0.54036296821E+02  0.00000000000E+00 0.  1.
         22    1    4    4    0    0 -0.16429598413E+02  0.88962982201E+01  0.18227922030E+02  0.26102355594E+02  0.00000000000E+00 0. -1.
         22    1    4    4    0    0 -0.12249405776E+02  0.28910910210E+01  0.11163553707E+02  0.16823533533E+02  0.00000000000E+00 0. -1.
<mgrwt>
<rscale>  0 0.95816204E+02</rscale>
<asrwt>0</asrwt>
<pdfrwt beam="1">  1        2 0.63152916E-02 0.95816204E+02</pdfrwt>
<pdfrwt beam="2">  1       -2 0.86019678E-02 0.95816204E+02</pdfrwt>
<totfact> 0.83119262E+04</totfact>
</mgrwt>
</event>
<event>
 6    1  0.3960685E-009  0.1545326E+03  0.7818608E-02  0.1195011E+00
         -2   -1    0    0    0  501 -0.00000000000E+00  0.00000000000E+00  0.15320827111E+03  0.15320827113E+03  0.25500000000E-02 0. -1.
          2   -1    0    0  501    0  0.00000000000E+00 -0.00000000000E+00 -0.38967098263E+02  0.38967098346E+02  0.25500000000E-02 0.  1.
    9000005    2    1    2    0    0 -0.52586709644E+02  0.44036149710E+02  0.12929298360E+02  0.69828974252E+02  0.20915010363E+01 0.  0.
         22    1    1    2    0    0  0.52586709644E+02 -0.44036149710E+02  0.10131187449E+03  0.12234639522E+03  0.00000000000E+00 0. -1.
         22    1    3    3    0    0 -0.30822984076E+02  0.27148374667E+02  0.77440778829E+01  0.41797862824E+02  0.00000000000E+00 0. -1.
         22    1    3    3    0    0 -0.21763725568E+02  0.16887775043E+02  0.51852204774E+01  0.28031111428E+02  0.00000000000E+00 0. -1.
<mgrwt>
<rscale>  0 0.15453261E+03</rscale>
<asrwt>0</asrwt>
<pdfrwt beam="2">  1        2 0.59949382E-02 0.15453261E+03</pdfrwt>
<pdfrwt beam="1">  1       -2 0.23570503E-01 0.15453261E+03</pdfrwt>
<totfact> 0.18319357E+04</totfact>
</mgrwt>
</event>
<event>
 7    1  0.3960685E-009  0.8796768E+02  0.7818608E-02  0.1307849E+00
          2   -1    0    0  501    0  0.00000000000E+00  0.00000000000E+00  0.78274522824E+01  0.78274526977E+01  0.25500000000E-02 0. -1.
         -2   -1    0    0    0  501 -0.00000000000E+00 -0.00000000000E+00 -0.24715296609E+03  0.24715296611E+03  0.25500000000E-02 0.  1.
         23    2    1    2    0    0  0.00000000000E+00  0.00000000000E+00 -0.23932551381E+03  0.25498041880E+03  0.87967678227E+02 0.  0.
    9000005    2    3    3    0    0  0.27859891705E+02  0.29306010852E+02 -0.16759922004E+03  0.17264162445E+03  0.89786466933E+01 0.  0.
         22    1    3    3    0    0 -0.27859891705E+02 -0.29306010852E+02 -0.71726293775E+02  0.82338794359E+02  0.00000000000E+00 0. -1.
         22    1    4    4    0    0  0.78570761135E+01  0.10654171669E+02 -0.72012942747E+02  0.73219593977E+02  0.00000000000E+00 0.  1.
         22    1    4    4    0    0  0.20002815591E+02  0.18651839183E+02 -0.95586277289E+02  0.99422030469E+02  0.00000000000E+00 0.  1.
<mgrwt>
<rscale>  0 0.87967678E+02</rscale>
<asrwt>0</asrwt>
<pdfrwt beam="1">  1        2 0.12042236E-02 0.87967678E+02</pdfrwt>
<pdfrwt beam="2">  1       -2 0.38023527E-01 0.87967678E+02</pdfrwt>
<totfact> 0.61930643E+04</totfact>
</mgrwt>
</event>
<event>
 7    1  0.3960685E-009  0.9263290E+02  0.7818608E-02  0.1296598E+00
          2   -1    0    0  501    0  0.00000000000E+00  0.00000000000E+00  0.50044202174E+02  0.50044202239E+02  0.25500000000E-02 0. -1.
         -2   -1    0    0    0  501 -0.00000000000E+00 -0.00000000000E+00 -0.42866372692E+02  0.42866372768E+02  0.25500000000E-02 0.  1.
         23    2    1    2    0    0  0.00000000000E+00  0.00000000000E+00  0.71778294812E+01  0.92910575007E+02  0.92632897569E+02 0.  0.
    9000005    2    3    3    0    0  0.21886193852E+02 -0.11799542862E+02 -0.35486848431E+02  0.43529308980E+02  0.41532680721E+01 0.  0.
         22    1    3    3    0    0 -0.21886193852E+02  0.11799542862E+02  0.42664677912E+02  0.49381266027E+02  0.00000000000E+00 0. -1.
         22    1    4    4    0    0  0.68157188317E+01 -0.24327760902E+01 -0.13068066558E+02  0.14938098482E+02  0.00000000000E+00 0.  1.
         22    1    4    4    0    0  0.15070475020E+02 -0.93667667718E+01 -0.22418781873E+02  0.28591210498E+02  0.00000000000E+00 0.  1.
<mgrwt>
<rscale>  0 0.92632898E+02</rscale>
<asrwt>0</asrwt>
<pdfrwt beam="1">  1        2 0.76991080E-02 0.92632898E+02</pdfrwt>
<pdfrwt beam="2">  1       -2 0.65948266E-02 0.92632898E+02</pdfrwt>
<totfact> 0.96622779E+04</totfact>
</mgrwt>
</event>
<event>
 7    1  0.3960685E-009  0.9061751E+02  0.7818608E-02  0.1301363E+00
         -2   -1    0    0    0  501 -0.00000000000E+00  0.00000000000E+00  0.45681595415E+02  0.45681595486E+02  0.25500000000E-02 0.  1.
          2   -1    0    0  501    0  0.00000000000E+00 -0.00000000000E+00 -0.44938957280E+02  0.44938957353E+02  0.25500000000E-02 0. -1.
         23    2    1    2    0    0  0.00000000000E+00  0.00000000000E+00  0.74263813432E+00  0.90620552838E+02  0.90617509817E+02 0.  0.
    9000005    2    3    3    0    0  0.10720503254E+02  0.35548137225E+02 -0.25147774170E+02  0.45355635966E+02  0.67914591962E+01 0.  0.
         22    1    3    3    0    0 -0.10720503254E+02 -0.35548137225E+02  0.25890412305E+02  0.45264916872E+02  0.00000000000E+00 0.  1.
         22    1    4    4    0    0  0.23754205559E+01  0.13105305227E+02 -0.12548008297E+02  0.18298747502E+02  0.00000000000E+00 0. -1.
         22    1    4    4    0    0  0.83450826977E+01  0.22442831998E+02 -0.12599765873E+02  0.27056888465E+02  0.00000000000E+00 0. -1.
<mgrwt>
<rscale>  0 0.90617510E+02</rscale>
<asrwt>0</asrwt>
<pdfrwt beam="2">  1        2 0.69136858E-02 0.90617510E+02</pdfrwt>
<pdfrwt beam="1">  1       -2 0.70279377E-02 0.90617510E+02</pdfrwt>
<totfact> 0.10005913E+05</totfact>
</mgrwt>
</event>
<event>
 7    1  0.3960685E-009  0.8886966E+02  0.7818608E-02  0.1305612E+00
         -2   -1    0    0    0  501 -0.00000000000E+00  0.00000000000E+00  0.13018893878E+02  0.13018894127E+02  0.25500000000E-02 0.  1.
          2   -1    0    0  501    0  0.00000000000E+00 -0.00000000000E+00 -0.15166065574E+03  0.15166065576E+03  0.25500000000E-02 0. -1.
         23    2    1    2    0    0  0.00000000000E+00  0.11102230246E-15 -0.13864176186E+03  0.16467954989E+03  0.88869657473E+02 0.  0.
    9000005    2    3    3    0    0 -0.42463060852E+02 -0.39347534620E+00 -0.92800304697E+02  0.10219190667E+03  0.52936639219E+01 0.  0.
         22    1    3    3    0    0  0.42463060852E+02  0.39347534620E+00 -0.45841457166E+02  0.62487643217E+02  0.00000000000E+00 0. -1.
         22    1    4    4    0    0 -0.23006228625E+02 -0.15643482809E+01 -0.55655690241E+02  0.60243585528E+02  0.00000000000E+00 0. -1.
         22    1    4    4    0    0 -0.19456832226E+02  0.11708729347E+01 -0.37144614457E+02  0.41948321144E+02  0.00000000000E+00 0. -1.
<mgrwt>
<rscale>  0 0.88869657E+02</rscale>
<asrwt>0</asrwt>
<pdfrwt beam="2">  1        2 0.23332407E-01 0.88869657E+02</pdfrwt>
<pdfrwt beam="1">  1       -2 0.20029069E-02 0.88869657E+02</pdfrwt>
<totfact> 0.15041655E+05</totfact>
</mgrwt>
</event>
<event>
 7    1  0.3960685E-009  0.9025141E+02  0.7818608E-02  0.1302244E+00
         -2   -1    0    0    0  501 -0.00000000000E+00  0.00000000000E+00  0.12848237927E+03  0.12848237930E+03  0.25500000000E-02 0.  1.
          2   -1    0    0  501    0  0.00000000000E+00 -0.00000000000E+00 -0.15849092786E+02  0.15849092991E+02  0.25500000000E-02 0. -1.
         23    2    1    2    0    0  0.00000000000E+00 -0.35527136788E-14  0.11263328649E+03  0.14433147229E+03  0.90251408123E+02 0.  0.
    9000005    2    3    3    0    0 -0.10874619813E+02 -0.25274078138E+02  0.85738232485E+00  0.29218965874E+02  0.97967586723E+01 0.  0.
         22    1    3    3    0    0  0.10874619813E+02  0.25274078138E+02  0.11177590416E+03  0.11511250642E+03  0.00000000000E+00 0.  1.
         22    1    4    4    0    0 -0.42905497795E+01 -0.18827669637E+02  0.35177395042E+01  0.19628154589E+02  0.00000000000E+00 0.  1.
         22    1    4    4    0    0 -0.65840700340E+01 -0.64464085012E+01 -0.26603571794E+01  0.95908112847E+01  0.00000000000E+00 0.  1.
<mgrwt>
<rscale>  0 0.90251408E+02</rscale>
<asrwt>0</asrwt>
<pdfrwt beam="2">  1        2 0.24383221E-02 0.90251408E+02</pdfrwt>
<pdfrwt beam="1">  1       -2 0.19766519E-01 0.90251408E+02</pdfrwt>
<totfact> 0.75654939E+04</totfact>
</mgrwt>
</event>
<event>
 7    1  0.3960685E-009  0.9196181E+02  0.7818608E-02  0.1298169E+00
         -2   -1    0    0    0  501 -0.00000000000E+00  0.00000000000E+00  0.17000521165E+02  0.17000521356E+02  0.25500000000E-02 0.  1.
          2   -1    0    0  501    0  0.00000000000E+00 -0.00000000000E+00 -0.12436344815E+03  0.12436344817E+03  0.25500000000E-02 0. -1.
         23    2    1    2    0    0  0.00000000000E+00  0.00000000000E+00 -0.10736292698E+03  0.14136396953E+03  0.91961806153E+02 0.  0.
    9000005    2    3    3    0    0 -0.21944075800E+02  0.26061222352E+02 -0.68532794132E+01  0.35237068945E+02  0.58269902973E+01 0.  0.
         22    1    3    3    0    0  0.21944075800E+02 -0.26061222352E+02 -0.10050964757E+03  0.10612690058E+03  0.00000000000E+00 0. -1.
         22    1    4    4    0    0 -0.21642072586E+02  0.24206357394E+02 -0.73528476414E+01  0.33292512860E+02  0.00000000000E+00 0.  1.
         22    1    4    4    0    0 -0.30200321471E+00  0.18548649585E+01  0.49956822817E+00  0.19445560857E+01  0.00000000000E+00 0.  1.
<mgrwt>
<rscale>  0 0.91961806E+02</rscale>
<asrwt>0</asrwt>
<pdfrwt beam="2">  1        2 0.19132838E-01 0.91961806E+02</pdfrwt>
<pdfrwt beam="1">  1       -2 0.26154649E-02 0.91961806E+02</pdfrwt>
<totfact> 0.12832386E+05</totfact>
</mgrwt>
</event>
<event>
 7    1  0.3960685E-009  0.1060475E+03  0.7818608E-02  0.1268069E+00
         -2   -1    0    0    0  501 -0.00000000000E+00  0.00000000000E+00  0.58990409308E+02  0.58990409363E+02  0.25500000000E-02 0.  1.
          2   -1    0    0  501    0  0.00000000000E+00 -0.00000000000E+00 -0.47660584491E+02  0.47660584559E+02  0.25500000000E-02 0. -1.
         23    2    1    2    0    0  0.00000000000E+00 -0.35527136788E-14  0.11329824817E+02  0.10665099392E+03  0.10604748735E+03 0.  0.
    9000005    2    3    3    0    0 -0.41847063117E+02 -0.18280010351E+02  0.30764370363E+02  0.57022000073E+02  0.14823175723E+02 0.  0.
         22    1    3    3    0    0  0.41847063117E+02  0.18280010351E+02 -0.19434545546E+02  0.49628993850E+02  0.00000000000E+00 0. -1.
         22    1    4    4    0    0  0.18114203272E+00  0.14227502659E+01  0.18295760184E+01  0.23247320624E+01  0.00000000000E+00 0.  1.
         22    1    4    4    0    0 -0.42028205150E+02 -0.19702760617E+02  0.28934794344E+02  0.54697268010E+02  0.00000000000E+00 0.  1.
<mgrwt>
<rscale>  0 0.10604749E+03</rscale>
<asrwt>0</asrwt>
<pdfrwt beam="2">  1        2 0.73323976E-02 0.10604749E+03</pdfrwt>
<pdfrwt beam="1">  1       -2 0.90754476E-02 0.10604749E+03</pdfrwt>
<totfact> 0.64328630E+04</totfact>
</mgrwt>
</event>
<event>
 7    1  0.3960685E-009  0.9182695E+02  0.7818608E-02  0.1298487E+00
          2   -1    0    0  501    0  0.00000000000E+00  0.00000000000E+00  0.48319966596E+02  0.48319966663E+02  0.25500000000E-02 0. -1.
         -2   -1    0    0    0  501 -0.00000000000E+00 -0.00000000000E+00 -0.43626837062E+02  0.43626837137E+02  0.25500000000E-02 0.  1.
         23    2    1    2    0    0  0.35527136788E-14  0.00000000000E+00  0.46931295340E+01  0.91946803800E+02  0.91826952820E+02 0.  0.
    9000005    2    3    3    0    0 -0.21686461929E+02  0.59383247880E+01 -0.36711804199E+02  0.44830619004E+02  0.12508457160E+02 0.  0.
         22    1    3    3    0    0  0.21686461929E+02 -0.59383247880E+01  0.41404933733E+02  0.47116184796E+02  0.00000000000E+00 0. -1.
         22    1    4    4    0    0 -0.83175502257E+01 -0.29458937483E+01 -0.78730277560E+01  0.11825586572E+02  0.00000000000E+00 0.  1.
         22    1    4    4    0    0 -0.13368911703E+02  0.88842185363E+01 -0.28838776443E+02  0.33005032432E+02  0.00000000000E+00 0.  1.
<mgrwt>
<rscale>  0 0.91826953E+02</rscale>
<asrwt>0</asrwt>
<pdfrwt beam="1">  1        2 0.74338410E-02 0.91826953E+02</pdfrwt>
<pdfrwt beam="2">  1       -2 0.67118211E-02 0.91826953E+02</pdfrwt>
<totfact> 0.98161797E+04</totfact>
</mgrwt>
</event>
<event>
 7    1  0.3960685E-009  0.8799663E+02  0.7818608E-02  0.1307777E+00
         -2   -1    0    0    0  501 -0.00000000000E+00  0.00000000000E+00  0.14858794506E+03  0.14858794508E+03  0.25500000000E-02 0.  1.
          2   -1    0    0  501    0  0.00000000000E+00 -0.00000000000E+00 -0.13028322938E+02  0.13028323188E+02  0.25500000000E-02 0. -1.
         23    2    1    2    0    0 -0.71054273576E-14  0.00000000000E+00  0.13555962212E+03  0.16161626827E+03  0.87996630727E+02 0.  0.
    9000005    2    3    3    0    0  0.42657619635E+02  0.51275823704E+00  0.53065406831E+02  0.68744146562E+02  0.94807621262E+01 0.  0.
         22    1    3    3    0    0 -0.42657619635E+02 -0.51275823704E+00  0.82494215287E+02  0.92872121704E+02  0.00000000000E+00 0.  1.
         22    1    4    4    0    0  0.42805860038E+02  0.94503384867E+00  0.53178973291E+02  0.68273259354E+02  0.00000000000E+00 0.  1.
         22    1    4    4    0    0 -0.14824040343E+00 -0.43227561163E+00 -0.11356645991E+00  0.47088720777E+00  0.00000000000E+00 0.  1.
<mgrwt>
<rscale>  0 0.87996631E+02</rscale>
<asrwt>0</asrwt>
<pdfrwt beam="2">  1        2 0.20043575E-02 0.87996631E+02</pdfrwt>
<pdfrwt beam="1">  1       -2 0.22859683E-01 0.87996631E+02</pdfrwt>
<totfact> 0.76679563E+04</totfact>
</mgrwt>
</event>
<event>
 6    1  0.3960685E-009  0.1650842E+03  0.7818608E-02  0.1183073E+00
          2   -1    0    0  501    0  0.00000000000E+00  0.00000000000E+00  0.32327257530E+03  0.32327257531E+03  0.25500000000E-02 0.  1.
         -2   -1    0    0    0  501 -0.00000000000E+00 -0.00000000000E+00 -0.21075704656E+02  0.21075704810E+02  0.25500000000E-02 0. -1.
    9000005    2    1    2    0    0 -0.70846048924E+02  0.30643119437E+02  0.92943513828E+02  0.12131211544E+03  0.10953043997E+02 0.  0.
         22    1    1    2    0    0  0.70846048924E+02 -0.30643119437E+02  0.20925335681E+03  0.22303616468E+03  0.00000000000E+00 0.  1.
         22    1    3    3    0    0 -0.19545498253E+02  0.12124237946E+02  0.22015233678E+02  0.31838564064E+02  0.00000000000E+00 0. -1.
         22    1    3    3    0    0 -0.51300550670E+02  0.18518881490E+02  0.70928280150E+02  0.89473551376E+02  0.00000000000E+00 0. -1.
<mgrwt>
<rscale>  0 0.16508419E+03</rscale>
<asrwt>0</asrwt>
<pdfrwt beam="1">  1        2 0.49734241E-01 0.16508419E+03</pdfrwt>
<pdfrwt beam="2">  1       -2 0.32424162E-02 0.16508419E+03</pdfrwt>
<totfact> 0.35910427E+04</totfact>
</mgrwt>
</event>
<event>
 7    1  0.3960685E-009  0.9052837E+02  0.7818608E-02  0.1301577E+00
         -2   -1    0    0    0  501 -0.00000000000E+00  0.00000000000E+00  0.13210256874E+03  0.13210256876E+03  0.25500000000E-02 0. -1.
          2   -1    0    0  501    0  0.00000000000E+00 -0.00000000000E+00 -0.15509510878E+02  0.15509511088E+02  0.25500000000E-02 0.  1.
         23    2    1    2    0    0  0.00000000000E+00  0.00000000000E+00  0.11659305786E+03  0.14761207985E+03  0.90528365591E+02 0.  0.
    9000005    2    3    3    0    0 -0.83469107113E+01  0.20219490944E+02 -0.61445433268E+01  0.22940441225E+02  0.31638107472E+01 0.  0.
         22    1    3    3    0    0  0.83469107113E+01 -0.20219490944E+02  0.12273760119E+03  0.12467163862E+03  0.00000000000E+00 0. -1.
         22    1    4    4    0    0 -0.13371214306E+01  0.41273310323E+01 -0.25206911868E+01  0.50176328313E+01  0.00000000000E+00 0. -1.
         22    1    4    4    0    0 -0.70097892807E+01  0.16092159912E+02 -0.36238521400E+01  0.17922808394E+02  0.00000000000E+00 0. -1.
<mgrwt>
<rscale>  0 0.90528366E+02</rscale>
<asrwt>0</asrwt>
<pdfrwt beam="2">  1        2 0.23860786E-02 0.90528366E+02</pdfrwt>
<pdfrwt beam="1">  1       -2 0.20323472E-01 0.90528366E+02</pdfrwt>
<totfact> 0.74374687E+04</totfact>
</mgrwt>
</event>
<event>
 7    1  0.3960685E-009  0.9363398E+02  0.7818608E-02  0.1294283E+00
          2   -1    0    0  501    0  0.00000000000E+00  0.00000000000E+00  0.45903233732E+02  0.45903233803E+02  0.25500000000E-02 0. -1.
         -2   -1    0    0    0  501 -0.00000000000E+00 -0.00000000000E+00 -0.47748937960E+02  0.47748938028E+02  0.25500000000E-02 0.  1.
         23    2    1    2    0    0  0.00000000000E+00  0.71054273576E-14 -0.18457042274E+01  0.93652171831E+02  0.93633982424E+02 0.  0.
    9000005    2    3    3    0    0  0.47356619728E+01  0.44030544648E+02  0.10844374151E+02  0.47585335109E+02  0.13625282030E+02 0.  0.
         22    1    3    3    0    0 -0.47356619728E+01 -0.44030544648E+02 -0.12690078379E+02  0.46066836722E+02  0.00000000000E+00 0.  1.
         22    1    4    4    0    0 -0.13867091416E+00  0.39997532076E+02  0.96827444085E+01  0.41153096373E+02  0.00000000000E+00 0.  1.
         22    1    4    4    0    0  0.48743328870E+01  0.40330125719E+01  0.11616297427E+01  0.64322387360E+01  0.00000000000E+00 0.  1.
<mgrwt>
<rscale>  0 0.93633982E+02</rscale>
<asrwt>0</asrwt>
<pdfrwt beam="1">  1        2 0.70620360E-02 0.93633982E+02</pdfrwt>
<pdfrwt beam="2">  1       -2 0.73459905E-02 0.93633982E+02</pdfrwt>
<totfact> 0.91565929E+04</totfact>
</mgrwt>
</event>
<event>
 7    1  0.3960685E-009  0.9022030E+02  0.7818608E-02  0.1302319E+00
         -2   -1    0    0    0  501 -0.00000000000E+00  0.00000000000E+00  0.15311803780E+02  0.15311803993E+02  0.25500000000E-02 0.  1.
          2   -1    0    0  501    0  0.00000000000E+00 -0.00000000000E+00 -0.13289913763E+03  0.13289913766E+03  0.25500000000E-02 0. -1.
         23    2    1    2    0    0  0.00000000000E+00  0.00000000000E+00 -0.11758733385E+03  0.14821094165E+03  0.90220297840E+02 0.  0.
    9000005    2    3    3    0    0 -0.22116208534E+02  0.37499483177E+02 -0.40915072533E+02  0.60040801726E+02  0.59595967168E+01 0.  0.
         22    1    3    3    0    0  0.22116208534E+02 -0.37499483177E+02 -0.76672261321E+02  0.88170139926E+02  0.00000000000E+00 0. -1.
         22    1    4    4    0    0 -0.46722988583E+01  0.12297413048E+02 -0.14504225429E+02  0.19581350811E+02  0.00000000000E+00 0.  1.
         22    1    4    4    0    0 -0.17443909676E+02  0.25202070129E+02 -0.26410847104E+02  0.40459450915E+02  0.00000000000E+00 0.  1.
<mgrwt>
<rscale>  0 0.90220298E+02</rscale>
<asrwt>0</asrwt>
<pdfrwt beam="2">  1        2 0.20446020E-01 0.90220298E+02</pdfrwt>
<pdfrwt beam="1">  1       -2 0.23556622E-02 0.90220298E+02</pdfrwt>
<totfact> 0.13815977E+05</totfact>
</mgrwt>
</event>
<event>
 7    1  0.3960685E-009  0.9115753E+02  0.7818608E-02  0.1300073E+00
          2   -1    0    0  501    0  0.00000000000E+00  0.00000000000E+00  0.34959637329E+02  0.34959637422E+02  0.25500000000E-02 0. -1.
         -2   -1    0    0    0  501 -0.00000000000E+00 -0.00000000000E+00 -0.59423494326E+02  0.59423494381E+02  0.25500000000E-02 0.  1.
         23    2    1    2    0    0  0.17763568394E-14  0.00000000000E+00 -0.24463856997E+02  0.94383131803E+02  0.91157529968E+02 0.  0.
    9000005    2    3    3    0    0 -0.15647262703E+02  0.76185688782E+01 -0.54763135509E+02  0.59441384564E+02  0.15211764074E+02 0.  0.
         22    1    3    3    0    0  0.15647262703E+02 -0.76185688782E+01  0.30299278512E+02  0.34941747240E+02  0.00000000000E+00 0. -1.
         22    1    4    4    0    0 -0.16353991777E+02  0.54181103641E+01 -0.30190132200E+02  0.34759934540E+02  0.00000000000E+00 0. -1.
         22    1    4    4    0    0  0.70672907438E+00  0.22004585141E+01 -0.24573003309E+02  0.24681450023E+02  0.00000000000E+00 0. -1.
<mgrwt>
<rscale>  0 0.91157530E+02</rscale>
<asrwt>0</asrwt>
<pdfrwt beam="1">  1        2 0.53784058E-02 0.91157530E+02</pdfrwt>
<pdfrwt beam="2">  1       -2 0.91420760E-02 0.91157530E+02</pdfrwt>
<totfact> 0.92167121E+04</totfact>
</mgrwt>
</event>
<event>
 7    1  0.3960685E-009  0.9287801E+02  0.7818608E-02  0.1296028E+00
          2   -1    0    0  501    0  0.00000000000E+00  0.00000000000E+00  0.84957740394E+02  0.84957740433E+02  0.25500000000E-02 0. -1.
         -2   -1    0    0    0  501 -0.00000000000E+00 -0.00000000000E+00 -0.25384163948E+02  0.25384164076E+02  0.25500000000E-02 0.  1.
         23    2    1    2    0    0  0.88817841970E-15 -0.35527136788E-14  0.59573576446E+02  0.11034190451E+03  0.92878010745E+02 0.  0.
    9000005    2    3    3    0    0 -0.32477433784E+01  0.26118198660E+02  0.75189827535E+02  0.79738384509E+02  0.34628978020E+01 0.  0.
         22    1    3    3    0    0  0.32477433784E+01 -0.26118198660E+02 -0.15616251088E+02  0.30603519999E+02  0.00000000000E+00 0.  1.
         22    1    4    4    0    0 -0.27688998727E+01  0.25807543262E+02  0.73068738893E+02  0.77541838379E+02  0.00000000000E+00 0.  1.
         22    1    4    4    0    0 -0.47884350573E+00  0.31065539840E+00  0.21210886415E+01  0.21965461308E+01  0.00000000000E+00 0.  1.
<mgrwt>
<rscale>  0 0.92878011E+02</rscale>
<asrwt>0</asrwt>
<pdfrwt beam="1">  1        2 0.13070422E-01 0.92878011E+02</pdfrwt>
<pdfrwt beam="2">  1       -2 0.39052560E-02 0.92878011E+02</pdfrwt>
<totfact> 0.11101425E+05</totfact>
</mgrwt>
</event>
<event>
 7    1  0.3960685E-009  0.8993718E+02  0.7818608E-02  0.1303004E+00
         -2   -1    0    0    0  501 -0.00000000000E+00  0.00000000000E+00  0.14589770319E+03  0.14589770322E+03  0.25500000000E-02 0.  1.
          2   -1    0    0  501    0  0.00000000000E+00 -0.00000000000E+00 -0.13860219960E+02  0.13860220194E+02  0.25500000000E-02 0. -1.
         23    2    1    2    0    0  0.00000000000E+00 -0.35527136788E-14  0.13203748323E+03  0.15975792341E+03  0.89937184266E+02 0.  0.
    9000005    2    3    3    0    0  0.32667076908E+02  0.28466663876E+02  0.87067174891E+02  0.97309404625E+02  0.33073280871E+01 0.  0.
         22    1    3    3    0    0 -0.32667076908E+02 -0.28466663876E+02  0.44970308342E+02  0.62448518785E+02  0.00000000000E+00 0.  1.
         22    1    4    4    0    0  0.15638917386E+02  0.12378743010E+02  0.37024126742E+02  0.42054666525E+02  0.00000000000E+00 0.  1.
         22    1    4    4    0    0  0.17028159523E+02  0.16087920867E+02  0.50043048149E+02  0.55254738101E+02  0.00000000000E+00 0.  1.
<mgrwt>
<rscale>  0 0.89937184E+02</rscale>
<asrwt>0</asrwt>
<pdfrwt beam="2">  1        2 0.21323415E-02 0.89937184E+02</pdfrwt>
<pdfrwt beam="1">  1       -2 0.22445802E-01 0.89937184E+02</pdfrwt>
<totfact> 0.73043589E+04</totfact>
</mgrwt>
</event>
<event>
 6    1  0.3960685E-009  0.4541999E+02  0.7818608E-02  0.1471737E+00
          2   -1    0    0  501    0  0.00000000000E+00  0.00000000000E+00  0.31523096109E+01  0.31523106423E+01  0.25500000000E-02 0. -1.
         -2   -1    0    0    0  501 -0.00000000000E+00 -0.00000000000E+00 -0.16360821925E+03  0.16360821927E+03  0.25500000000E-02 0.  1.
    9000005    2    1    2    0    0  0.23331053648E+01 -0.21205273120E+02 -0.98653272974E+02  0.10137954730E+03  0.94993343592E+01 0.  0.
         22    1    1    2    0    0 -0.23331053648E+01  0.21205273120E+02 -0.61802636662E+02  0.65380982610E+02  0.00000000000E+00 0. -1.
         22    1    3    3    0    0 -0.23272575156E+01 -0.10482045735E+02 -0.33289820237E+02  0.34978586903E+02  0.00000000000E+00 0.  1.
         22    1    3    3    0    0  0.46603628804E+01 -0.10723227384E+02 -0.65363452738E+02  0.66400960396E+02  0.00000000000E+00 0.  1.
<mgrwt>
<rscale>  0 0.45419989E+02</rscale>
<asrwt>0</asrwt>
<pdfrwt beam="1">  1        2 0.48497092E-03 0.45419989E+02</pdfrwt>
<pdfrwt beam="2">  1       -2 0.25170489E-01 0.45419989E+02</pdfrwt>
<totfact> 0.38502060E+05</totfact>
</mgrwt>
</event>
<event>
 7    1  0.3960685E-009  0.9119547E+02  0.7818608E-02  0.1299982E+00
         -2   -1    0    0    0  501 -0.00000000000E+00  0.00000000000E+00  0.59927843401E+02  0.59927843455E+02  0.25500000000E-02 0.  1.
          2   -1    0    0  501    0  0.00000000000E+00 -0.00000000000E+00 -0.34694282026E+02  0.34694282120E+02  0.25500000000E-02 0. -1.
         23    2    1    2    0    0 -0.88817841970E-15  0.00000000000E+00  0.25233561375E+02  0.94622125575E+02  0.91195471536E+02 0.  0.
    9000005    2    3    3    0    0  0.44314155667E+01  0.35116217650E+02  0.41529096594E+02  0.55656362987E+02  0.10962604209E+02 0.  0.
         22    1    3    3    0    0 -0.44314155667E+01 -0.35116217650E+02 -0.16295535220E+02  0.38965762588E+02  0.00000000000E+00 0. -1.
         22    1    4    4    0    0  0.32990109941E+01  0.29148547738E+02  0.39603145252E+02  0.49284180247E+02  0.00000000000E+00 0.  1.
         22    1    4    4    0    0  0.11324045727E+01  0.59676699122E+01  0.19259513419E+01  0.63721827397E+01  0.00000000000E+00 0.  1.
<mgrwt>
<rscale>  0 0.91195472E+02</rscale>
<asrwt>0</asrwt>
<pdfrwt beam="2">  1        2 0.53375819E-02 0.91195472E+02</pdfrwt>
<pdfrwt beam="1">  1       -2 0.92196681E-02 0.91195472E+02</pdfrwt>
<totfact> 0.91871597E+04</totfact>
</mgrwt>
</event>
<event>
 7    1  0.3960685E-009  0.9599252E+02  0.7818608E-02  0.1288956E+00
         -2   -1    0    0    0  501 -0.00000000000E+00  0.00000000000E+00  0.81471536139E+02  0.81471536179E+02  0.25500000000E-02 0.  1.
          2   -1    0    0  501    0  0.00000000000E+00 -0.00000000000E+00 -0.28275411192E+02  0.28275411307E+02  0.25500000000E-02 0. -1.
         23    2    1    2    0    0  0.71054273576E-14 -0.17763568394E-14  0.53196124947E+02  0.10974694749E+03  0.95992524568E+02 0.  0.
    9000005    2    3    3    0    0 -0.45024338419E+02  0.14108083356E+02  0.23016281394E+02  0.53737555211E+02  0.11478090642E+02 0.  0.
         22    1    3    3    0    0  0.45024338419E+02 -0.14108083356E+02  0.30179843553E+02  0.56009392274E+02  0.00000000000E+00 0. -1.
         22    1    4    4    0    0 -0.42701192857E+02  0.13971373076E+02  0.24300668578E+02  0.51079483458E+02  0.00000000000E+00 0. -1.
         22    1    4    4    0    0 -0.23231455620E+01  0.13671027981E+00 -0.12843871839E+01  0.26580717524E+01  0.00000000000E+00 0. -1.
<mgrwt>
<rscale>  0 0.95992525E+02</rscale>
<asrwt>0</asrwt>
<pdfrwt beam="2">  1        2 0.43500633E-02 0.95992525E+02</pdfrwt>
<pdfrwt beam="1">  1       -2 0.12534082E-01 0.95992525E+02</pdfrwt>
<totfact> 0.74586728E+04</totfact>
</mgrwt>
</event>
<event>
 7    1  0.3960685E-009  0.9200090E+02  0.7818608E-02  0.1298077E+00
         -2   -1    0    0    0  501 -0.00000000000E+00  0.00000000000E+00  0.99638458382E+01  0.99638461645E+01  0.25500000000E-02 0.  1.
          2   -1    0    0  501    0  0.00000000000E+00 -0.00000000000E+00 -0.21237195379E+03  0.21237195380E+03  0.25500000000E-02 0. -1.
         23    2    1    2    0    0  0.35527136788E-14  0.00000000000E+00 -0.20240810795E+03  0.22233579997E+03  0.92000900993E+02 0.  0.
    9000005    2    3    3    0    0 -0.27867281810E+02  0.27171103259E+02 -0.16035695715E+03  0.16503699081E+03  0.28284942790E+01 0.  0.
         22    1    3    3    0    0  0.27867281810E+02 -0.27171103259E+02 -0.42051150798E+02  0.57298809161E+02  0.00000000000E+00 0.  1.
         22    1    4    4    0    0 -0.17022023826E+02  0.16759561360E+02 -0.92518187548E+02  0.95552327127E+02  0.00000000000E+00 0. -1.
         22    1    4    4    0    0 -0.10845257985E+02  0.10411541899E+02 -0.67838769605E+02  0.69484663682E+02  0.00000000000E+00 0. -1.
<mgrwt>
<rscale>  0 0.92000901E+02</rscale>
<asrwt>0</asrwt>
<pdfrwt beam="2">  1        2 0.32672605E-01 0.92000901E+02</pdfrwt>
<pdfrwt beam="1">  1       -2 0.15328995E-02 0.92000901E+02</pdfrwt>
<totfact> 0.15430550E+05</totfact>
</mgrwt>
</event>
<event>
 7    1  0.3960685E-009  0.7475269E+02  0.7818608E-02  0.1344639E+00
          2   -1    0    0  501    0  0.00000000000E+00  0.00000000000E+00  0.43464341369E+03  0.43464341370E+03  0.25500000000E-02 0. -1.
         -2   -1    0    0    0  501 -0.00000000000E+00 -0.00000000000E+00 -0.32141079744E+01  0.32141089859E+01  0.25500000000E-02 0.  1.
         23    2    1    2    0    0  0.00000000000E+00  0.00000000000E+00  0.43142930572E+03  0.43785752268E+03  0.74752687846E+02 0.  0.
    9000005    2    3    3    0    0  0.58828291362E+01 -0.36072119021E+02  0.25670783691E+03  0.25935430952E+03  0.54716436728E+01 0.  0.
         22    1    3    3    0    0 -0.58828291362E+01  0.36072119021E+02  0.17472146881E+03  0.17850321317E+03  0.00000000000E+00 0.  1.
         22    1    4    4    0    0  0.25368154949E+00 -0.16053272695E+02  0.12164777466E+03  0.12270270168E+03  0.00000000000E+00 0.  1.
         22    1    4    4    0    0  0.56291475867E+01 -0.20018846326E+02  0.13506006225E+03  0.13665160784E+03  0.00000000000E+00 0.  1.
<mgrwt>
<rscale>  0 0.74752688E+02</rscale>
<asrwt>0</asrwt>
<pdfrwt beam="1">  1        2 0.66868265E-01 0.74752688E+02</pdfrwt>
<pdfrwt beam="2">  1       -2 0.49447788E-03 0.74752688E+02</pdfrwt>
<totfact> 0.34613067E+05</totfact>
</mgrwt>
</event>
<event>
 7    1  0.3960685E-009  0.9034758E+02  0.7818608E-02  0.1302012E+00
          2   -1    0    0  501    0  0.00000000000E+00  0.00000000000E+00  0.82797896193E+02  0.82797896232E+02  0.25500000000E-02 0. -1.
         -2   -1    0    0    0  501 -0.00000000000E+00 -0.00000000000E+00 -0.24646413121E+02  0.24646413253E+02  0.25500000000E-02 0.  1.
         23    2    1    2    0    0  0.00000000000E+00  0.17763568394E-14  0.58151483072E+02  0.10744430948E+03  0.90347576930E+02 0.  0.
    9000005    2    3    3    0    0 -0.15062599439E+02 -0.15369640445E+02 -0.16702106869E+02  0.29558703136E+02  0.11473831441E+02 0.  0.
         22    1    3    3    0    0  0.15062599439E+02  0.15369640445E+02  0.74853589942E+02  0.77885606349E+02  0.00000000000E+00 0. -1.
         22    1    4    4    0    0 -0.28275850305E+01 -0.10800487919E+02 -0.60065236141E+01  0.12677700987E+02  0.00000000000E+00 0. -1.
         22    1    4    4    0    0 -0.12235014408E+02 -0.45691525257E+01 -0.10695583255E+02  0.16881002149E+02  0.00000000000E+00 0. -1.
<mgrwt>
<rscale>  0 0.90347577E+02</rscale>
<asrwt>0</asrwt>
<pdfrwt beam="1">  1        2 0.12738138E-01 0.90347577E+02</pdfrwt>
<pdfrwt beam="2">  1       -2 0.37917559E-02 0.90347577E+02</pdfrwt>
<totfact> 0.11897024E+05</totfact>
</mgrwt>
</event>
<event>
 7    1  0.3960685E-009  0.8998112E+02  0.7818608E-02  0.1302897E+00
          2   -1    0    0  501    0  0.00000000000E+00  0.00000000000E+00  0.38919659579E+03  0.38919659579E+03  0.25500000000E-02 0. -1.
         -2   -1    0    0    0  501 -0.00000000000E+00 -0.00000000000E+00 -0.52008431852E+01  0.52008438103E+01  0.25500000000E-02 0.  1.
         23    2    1    2    0    0 -0.71054273576E-14 -0.88817841970E-15  0.38399575260E+03  0.39439743961E+03  0.89981122194E+02 0.  0.
    9000005    2    3    3    0    0 -0.41661988491E+02 -0.59614165081E+01  0.13762722876E+03  0.14446002881E+03  0.12497442049E+02 0.  0.
         22    1    3    3    0    0  0.41661988491E+02  0.59614165081E+01  0.24636852384E+03  0.24993741079E+03  0.00000000000E+00 0. -1.
         22    1    4    4    0    0 -0.23426635935E+02  0.19331288068E+01  0.63339162970E+02  0.67560297690E+02  0.00000000000E+00 0. -1.
         22    1    4    4    0    0 -0.18235352556E+02 -0.78945453148E+01  0.74288065787E+02  0.76899731124E+02  0.00000000000E+00 0. -1.
<mgrwt>
<rscale>  0 0.89981122E+02</rscale>
<asrwt>0</asrwt>
<pdfrwt beam="1">  1        2 0.59876412E-01 0.89981122E+02</pdfrwt>
<pdfrwt beam="2">  1       -2 0.80012960E-03 0.89981122E+02</pdfrwt>
<totfact> 0.20471866E+05</totfact>
</mgrwt>
</event>
<event>
 7    1  0.3960685E-009  0.9149937E+02  0.7818608E-02  0.1299261E+00
         -2   -1    0    0    0  501 -0.00000000000E+00  0.00000000000E+00  0.52924586507E+02  0.52924586569E+02  0.25500000000E-02 0.  1.
          2   -1    0    0  501    0  0.00000000000E+00 -0.00000000000E+00 -0.39547477136E+02  0.39547477219E+02  0.25500000000E-02 0. -1.
         23    2    1    2    0    0  0.88817841970E-15  0.00000000000E+00  0.13377109371E+02  0.92472063787E+02  0.91499374457E+02 0.  0.
    9000005    2    3    3    0    0  0.61483329774E+01 -0.41389386617E+02 -0.98109284725E+01  0.44633079455E+02  0.12040520805E+02 0.  0.
         22    1    3    3    0    0 -0.61483329774E+01  0.41389386617E+02  0.23188037843E+02  0.47838984332E+02  0.00000000000E+00 0.  1.
         22    1    4    4    0    0  0.11738887671E+01 -0.85790244732E+01  0.28479767300E+01  0.91152974282E+01  0.00000000000E+00 0.  1.
         22    1    4    4    0    0  0.49744442103E+01 -0.32810362144E+02 -0.12658905202E+02  0.35517782027E+02  0.00000000000E+00 0.  1.
<mgrwt>
<rscale>  0 0.91499374E+02</rscale>
<asrwt>0</asrwt>
<pdfrwt beam="2">  1        2 0.60842273E-02 0.91499374E+02</pdfrwt>
<pdfrwt beam="1">  1       -2 0.81422441E-02 0.91499374E+02</pdfrwt>
<totfact> 0.94137879E+04</totfact>
</mgrwt>
</event>
<event>
 7    1  0.3960685E-009  0.9121066E+02  0.7818608E-02  0.1299946E+00
         -2   -1    0    0    0  501 -0.00000000000E+00  0.00000000000E+00  0.18574108051E+02  0.18574108226E+02  0.25500000000E-02 0.  1.
          2   -1    0    0  501    0  0.00000000000E+00 -0.00000000000E+00 -0.11197555091E+03  0.11197555094E+03  0.25500000000E-02 0. -1.
         23    2    1    2    0    0  0.00000000000E+00  0.00000000000E+00 -0.93401442856E+02  0.13054965916E+03  0.91210657161E+02 0.  0.
    9000005    2    3    3    0    0  0.75021188820E+01  0.25757738739E+02  0.40648353395E+01  0.29458520688E+02  0.11469030566E+02 0.  0.
         22    1    3    3    0    0 -0.75021188820E+01 -0.25757738739E+02 -0.97466278195E+02  0.10109113847E+03  0.00000000000E+00 0. -1.
         22    1    4    4    0    0 -0.84402535074E+00  0.81837983783E+01  0.55854774026E+01  0.99440682069E+01  0.00000000000E+00 0. -1.
         22    1    4    4    0    0  0.83461442328E+01  0.17573940361E+02 -0.15206420631E+01  0.19514452481E+02  0.00000000000E+00 0. -1.
<mgrwt>
<rscale>  0 0.91210657E+02</rscale>
<asrwt>0</asrwt>
<pdfrwt beam="2">  1        2 0.17227008E-01 0.91210657E+02</pdfrwt>
<pdfrwt beam="1">  1       -2 0.28575552E-02 0.91210657E+02</pdfrwt>
<totfact> 0.12691541E+05</totfact>
</mgrwt>
</event>
<event>
 7    1  0.3960685E-009  0.9155309E+02  0.7818608E-02  0.1299134E+00
         -2   -1    0    0    0  501 -0.00000000000E+00  0.00000000000E+00  0.53163926270E+01  0.53163932385E+01  0.25500000000E-02 0.  1.
          2   -1    0    0  501    0  0.00000000000E+00 -0.00000000000E+00 -0.39415676332E+03  0.39415676333E+03  0.25500000000E-02 0. -1.
         23    2    1    2    0    0  0.00000000000E+00  0.00000000000E+00 -0.38884037069E+03  0.39947315656E+03  0.91553093540E+02 0.  0.
    9000005    2    3    3    0    0  0.53465764652E+01 -0.45185570864E+02 -0.20718284762E+03  0.21220389218E+03  0.59529669135E+01 0.  0.
         22    1    3    3    0    0 -0.53465764652E+01  0.45185570864E+02 -0.18165752307E+03  0.18726926438E+03  0.00000000000E+00 0. -1.
         22    1    4    4    0    0  0.26956662741E+01 -0.39009082891E+02 -0.18058938858E+03  0.18477419310E+03  0.00000000000E+00 0. -1.
         22    1    4    4    0    0  0.26509101911E+01 -0.61764879731E+01 -0.26593459035E+02  0.27429699086E+02  0.00000000000E+00 0. -1.
<mgrwt>
<rscale>  0 0.91553094E+02</rscale>
<asrwt>0</asrwt>
<pdfrwt beam="2">  1        2 0.60639479E-01 0.91553094E+02</pdfrwt>
<pdfrwt beam="1">  1       -2 0.81790691E-03 0.91553094E+02</pdfrwt>
<totfact> 0.19641393E+05</totfact>
</mgrwt>
</event>
<event>
 7    1  0.3960685E-009  0.8743607E+02  0.7818608E-02  0.1309182E+00
         -2   -1    0    0    0  501 -0.00000000000E+00  0.00000000000E+00  0.14615612494E+02  0.14615612716E+02  0.25500000000E-02 0.  1.
          2   -1    0    0  501    0  0.00000000000E+00 -0.00000000000E+00 -0.13076881933E+03  0.13076881936E+03  0.25500000000E-02 0. -1.
         23    2    1    2    0    0  0.35527136788E-14  0.00000000000E+00 -0.11615320684E+03  0.14538443207E+03  0.87436065958E+02 0.  0.
    9000005    2    3    3    0    0  0.24643853291E+02 -0.35009856959E+02 -0.54225872611E+02  0.70098282525E+02  0.11845436385E+02 0.  0.
         22    1    3    3    0    0 -0.24643853291E+02  0.35009856959E+02 -0.61927334225E+02  0.75286149547E+02  0.00000000000E+00 0. -1.
         22    1    4    4    0    0  0.20721666773E+02 -0.27766732652E+02 -0.35320321322E+02  0.49476297500E+02  0.00000000000E+00 0.  1.
         22    1    4    4    0    0  0.39221865183E+01 -0.72431243066E+01 -0.18905551289E+02  0.20621985025E+02  0.00000000000E+00 0.  1.
<mgrwt>
<rscale>  0 0.87436066E+02</rscale>
<asrwt>0</asrwt>
<pdfrwt beam="2">  1        2 0.20118279E-01 0.87436066E+02</pdfrwt>
<pdfrwt beam="1">  1       -2 0.22485559E-02 0.87436066E+02</pdfrwt>
<totfact> 0.14963351E+05</totfact>
</mgrwt>
</event>
<event>
 7    1  0.3960685E-009  0.9235930E+02  0.7818608E-02  0.1297237E+00
          2   -1    0    0  501    0  0.00000000000E+00  0.00000000000E+00  0.65897378930E+01  0.65897383864E+01  0.25500000000E-02 0. -1.
         -2   -1    0    0    0  501 -0.00000000000E+00 -0.00000000000E+00 -0.32361830659E+03  0.32361830660E+03  0.25500000000E-02 0.  1.
         23    2    1    2    0    0  0.00000000000E+00  0.00000000000E+00 -0.31702856870E+03  0.33020804499E+03  0.92359296250E+02 0.  0.
    9000005    2    3    3    0    0 -0.19572236206E+02 -0.54820666977E+00 -0.30784166890E+03  0.30858000558E+03  0.84707598751E+01 0.  0.
         22    1    3    3    0    0  0.19572236206E+02  0.54820666977E+00 -0.91868997980E+01  0.21628039406E+02  0.00000000000E+00 0. -1.
         22    1    4    4    0    0 -0.48234164814E+01 -0.79497407067E+00 -0.14184876217E+03  0.14193297242E+03  0.00000000000E+00 0.  1.
         22    1    4    4    0    0 -0.14748819724E+02  0.24676740090E+00 -0.16599290673E+03  0.16664703316E+03  0.00000000000E+00 0.  1.
<mgrwt>
<rscale>  0 0.92359296E+02</rscale>
<asrwt>0</asrwt>
<pdfrwt beam="1">  1        2 0.10138061E-02 0.92359296E+02</pdfrwt>
<pdfrwt beam="2">  1       -2 0.49787419E-01 0.92359296E+02</pdfrwt>
<totfact> 0.47224395E+04</totfact>
</mgrwt>
</event>
<event>
 7    1  0.3960685E-009  0.9102641E+02  0.7818608E-02  0.1300385E+00
          2   -1    0    0  501    0  0.00000000000E+00  0.00000000000E+00  0.48949782654E+02  0.48949782720E+02  0.25500000000E-02 0.  1.
         -2   -1    0    0    0  501 -0.00000000000E+00 -0.00000000000E+00 -0.42317893667E+02  0.42317893744E+02  0.25500000000E-02 0. -1.
         23    2    1    2    0    0  0.00000000000E+00  0.00000000000E+00  0.66318889867E+01  0.91267676464E+02  0.91026407243E+02 0.  0.
    9000005    2    3    3    0    0  0.12049238939E+02 -0.50800053860E+00  0.45964436802E+02  0.50127774408E+02  0.15956882309E+02 0.  0.
         22    1    3    3    0    0 -0.12049238939E+02  0.50800053860E+00 -0.39332547815E+02  0.41139902056E+02  0.00000000000E+00 0. -1.
         22    1    4    4    0    0  0.78489597636E+01 -0.77097275993E+01  0.19603060569E+02  0.22479458461E+02  0.00000000000E+00 0. -1.
         22    1    4    4    0    0  0.42002791753E+01  0.72017270607E+01  0.26361376233E+02  0.27648315947E+02  0.00000000000E+00 0. -1.
<mgrwt>
<rscale>  0 0.91026407E+02</rscale>
<asrwt>0</asrwt>
<pdfrwt beam="1">  1        2 0.75307359E-02 0.91026407E+02</pdfrwt>
<pdfrwt beam="2">  1       -2 0.65104451E-02 0.91026407E+02</pdfrwt>
<totfact> 0.10099378E+05</totfact>
</mgrwt>
</event>
<event>
 7    1  0.3960685E-009  0.8997593E+02  0.7818608E-02  0.1302910E+00
          2   -1    0    0  501    0  0.00000000000E+00  0.00000000000E+00  0.75226418582E+02  0.75226418625E+02  0.25500000000E-02 0. -1.
         -2   -1    0    0    0  501 -0.00000000000E+00 -0.00000000000E+00 -0.26904340307E+02  0.26904340428E+02  0.25500000000E-02 0.  1.
         23    2    1    2    0    0  0.00000000000E+00  0.00000000000E+00  0.48322078275E+02  0.10213075905E+03  0.89975933982E+02 0.  0.
    9000005    2    3    3    0    0 -0.84300888062E+01 -0.10286426644E+02 -0.24544239869E+02  0.28060675414E+02  0.28468971806E+01 0.  0.
         22    1    3    3    0    0  0.84300888062E+01  0.10286426644E+02  0.72866318144E+02  0.74070083639E+02  0.00000000000E+00 0. -1.
         22    1    4    4    0    0 -0.57322231010E+00  0.82608258927E-01 -0.82547458491E+00  0.10083730617E+01  0.00000000000E+00 0. -1.
         22    1    4    4    0    0 -0.78568664961E+01 -0.10369034903E+02 -0.23718765285E+02  0.27052302353E+02  0.00000000000E+00 0. -1.
<mgrwt>
<rscale>  0 0.89975934E+02</rscale>
<asrwt>0</asrwt>
<pdfrwt beam="1">  1        2 0.11573295E-01 0.89975934E+02</pdfrwt>
<pdfrwt beam="2">  1       -2 0.41391293E-02 0.89975934E+02</pdfrwt>
<totfact> 0.11710897E+05</totfact>
</mgrwt>
</event>
<event>
 7    1  0.3960685E-009  0.9429558E+02  0.7818608E-02  0.1292771E+00
         -2   -1    0    0    0  501 -0.00000000000E+00  0.00000000000E+00  0.56122007199E+01  0.56122012992E+01  0.25500000000E-02 0.  1.
          2   -1    0    0  501    0  0.00000000000E+00 -0.00000000000E+00 -0.39608597183E+03  0.39608597184E+03  0.25500000000E-02 0. -1.
         23    2    1    2    0    0  0.71054273576E-14  0.35527136788E-14 -0.39047377111E+03  0.40169817314E+03  0.94295579838E+02 0.  0.
    9000005    2    3    3    0    0  0.41545870455E+02  0.16229974875E+02 -0.25056344520E+03  0.25485005183E+03  0.13305540541E+02 0.  0.
         22    1    3    3    0    0 -0.41545870455E+02 -0.16229974875E+02 -0.13991032591E+03  0.14684812131E+03  0.00000000000E+00 0.  1.
         22    1    4    4    0    0  0.40091024855E+01  0.51611579920E+01 -0.21628749590E+02  0.22594540566E+02  0.00000000000E+00 0.  1.
         22    1    4    4    0    0  0.37536767970E+02  0.11068816883E+02 -0.22893469561E+03  0.23225551126E+03  0.00000000000E+00 0.  1.
<mgrwt>
<rscale>  0 0.94295580E+02</rscale>
<asrwt>0</asrwt>
<pdfrwt beam="2">  1        2 0.60936281E-01 0.94295580E+02</pdfrwt>
<pdfrwt beam="1">  1       -2 0.86341585E-03 0.94295580E+02</pdfrwt>
<totfact> 0.18189168E+05</totfact>
</mgrwt>
</event>
<event>
 7    1  0.3960685E-009  0.9535755E+02  0.7818608E-02  0.1290373E+00
         -2   -1    0    0    0  501 -0.00000000000E+00  0.00000000000E+00  0.40188956100E+01  0.40188964190E+01  0.25500000000E-02 0.  1.
          2   -1    0    0  501    0  0.00000000000E+00 -0.00000000000E+00 -0.56564423702E+03  0.56564423702E+03  0.25500000000E-02 0. -1.
         23    2    1    2    0    0  0.00000000000E+00 -0.88817841970E-15 -0.56162534141E+03  0.56966313344E+03  0.95357545544E+02 0.  0.
    9000005    2    3    3    0    0 -0.17951906127E+02  0.42192387152E+01 -0.54308247518E+03  0.54351144522E+03  0.11226902068E+02 0.  0.
         22    1    3    3    0    0  0.17951906127E+02 -0.42192387152E+01 -0.18542866230E+02  0.26151688224E+02  0.00000000000E+00 0.  1.
         22    1    4    4    0    0 -0.16747692904E+02  0.17607788630E+01 -0.34563679542E+03  0.34604678861E+03  0.00000000000E+00 0.  1.
         22    1    4    4    0    0 -0.12042132223E+01  0.24584598523E+01 -0.19744567975E+03  0.19746465660E+03  0.00000000000E+00 0.  1.
<mgrwt>
<rscale>  0 0.95357546E+02</rscale>
<asrwt>0</asrwt>
<pdfrwt beam="2">  1        2 0.87022127E-01 0.95357546E+02</pdfrwt>
<pdfrwt beam="1">  1       -2 0.61829214E-03 0.95357546E+02</pdfrwt>
<totfact> 0.19888101E+05</totfact>
</mgrwt>
</event>
<event>
 7    1  0.3960685E-009  0.9603359E+02  0.7818608E-02  0.1288865E+00
          2   -1    0    0  501    0  0.00000000000E+00  0.00000000000E+00  0.64465630444E+01  0.64465635487E+01  0.25500000000E-02 0. -1.
         -2   -1    0    0    0  501 -0.00000000000E+00 -0.00000000000E+00 -0.35764990372E+03  0.35764990373E+03  0.25500000000E-02 0.  1.
         23    2    1    2    0    0  0.71054273576E-14  0.35527136788E-14 -0.35120334067E+03  0.36409646727E+03  0.96033592989E+02 0.  0.
    9000005    2    3    3    0    0 -0.35509131278E+02 -0.28987929927E+02 -0.21535902880E+03  0.22072675097E+03  0.15478656984E+02 0.  0.
         22    1    3    3    0    0  0.35509131278E+02  0.28987929927E+02 -0.13584431188E+03  0.14336971631E+03  0.00000000000E+00 0.  1.
         22    1    4    4    0    0 -0.19749194393E+02 -0.12459886360E+02 -0.75922786029E+02  0.79432668882E+02  0.00000000000E+00 0.  1.
         22    1    4    4    0    0 -0.15759936885E+02 -0.16528043567E+02 -0.13943624277E+03  0.14129408208E+03  0.00000000000E+00 0.  1.
<mgrwt>
<rscale>  0 0.96033593E+02</rscale>
<asrwt>0</asrwt>
<pdfrwt beam="1">  1        2 0.99177925E-03 0.96033593E+02</pdfrwt>
<pdfrwt beam="2">  1       -2 0.55023047E-01 0.96033593E+02</pdfrwt>
<totfact> 0.40160498E+04</totfact>
</mgrwt>
</event>
<event>
 7    1  0.3960685E-009  0.9002539E+02  0.7818608E-02  0.1302790E+00
         -2   -1    0    0    0  501 -0.00000000000E+00  0.00000000000E+00  0.38125949709E+02  0.38125949794E+02  0.25500000000E-02 0.  1.
          2   -1    0    0  501    0  0.00000000000E+00 -0.00000000000E+00 -0.53143406138E+02  0.53143406199E+02  0.25500000000E-02 0. -1.
         23    2    1    2    0    0 -0.35527136788E-14 -0.35527136788E-14 -0.15017456429E+02  0.91269355993E+02  0.90025392784E+02 0.  0.
    9000005    2    3    3    0    0 -0.24030012969E+02 -0.17666703673E+02 -0.40877013590E+02  0.51794419153E+02  0.11053400987E+02 0.  0.
         22    1    3    3    0    0  0.24030012969E+02  0.17666703673E+02  0.25859557161E+02  0.39474936840E+02  0.00000000000E+00 0.  1.
         22    1    4    4    0    0 -0.14785396704E+01  0.13009952919E+01 -0.99377317141E+00  0.22059586176E+01  0.00000000000E+00 0.  1.
         22    1    4    4    0    0 -0.22551473298E+02 -0.18967698965E+02 -0.39883240419E+02  0.49588460536E+02  0.00000000000E+00 0.  1.
<mgrwt>
<rscale>  0 0.90025393E+02</rscale>
<asrwt>0</asrwt>
<pdfrwt beam="2">  1        2 0.81759087E-02 0.90025393E+02</pdfrwt>
<pdfrwt beam="1">  1       -2 0.58655307E-02 0.90025393E+02</pdfrwt>
<totfact> 0.10647486E+05</totfact>
</mgrwt>
</event>
<event>
 7    1  0.3960685E-009  0.1002381E+03  0.7818608E-02  0.1279796E+00
         -2   -1    0    0    0  501 -0.00000000000E+00  0.00000000000E+00  0.22715253890E+02  0.22715254033E+02  0.25500000000E-02 0.  1.
          2   -1    0    0  501    0  0.00000000000E+00 -0.00000000000E+00 -0.11058295235E+03  0.11058295238E+03  0.25500000000E-02 0. -1.
         23    2    1    2    0    0 -0.88817841970E-15  0.00000000000E+00 -0.87867698463E+02  0.13329820642E+03  0.10023811351E+03 0.  0.
    9000005    2    3    3    0    0  0.51855699531E+01 -0.25542047397E+02  0.10835904612E+02  0.31211539407E+02  0.13321300328E+02 0.  0.
         22    1    3    3    0    0 -0.51855699531E+01  0.25542047397E+02 -0.98703603075E+02  0.10208666701E+03  0.00000000000E+00 0. -1.
         22    1    4    4    0    0  0.41193340896E+01 -0.13285978621E+02 -0.12497099597E+01  0.13965955615E+02  0.00000000000E+00 0. -1.
         22    1    4    4    0    0  0.10662358635E+01 -0.12256068776E+02  0.12085614571E+02  0.17245583792E+02  0.00000000000E+00 0. -1.
<mgrwt>
<rscale>  0 0.10023811E+03</rscale>
<asrwt>0</asrwt>
<pdfrwt beam="2">  1        2 0.17012762E-01 0.10023811E+03</pdfrwt>
<pdfrwt beam="1">  1       -2 0.34946545E-02 0.10023811E+03</pdfrwt>
<totfact> 0.97399892E+04</totfact>
</mgrwt>
</event>
<event>
 7    1  0.3960685E-009  0.8987605E+02  0.7818608E-02  0.1303152E+00
          2   -1    0    0  501    0  0.00000000000E+00  0.00000000000E+00  0.82778636145E+02  0.82778636185E+02  0.25500000000E-02 0. -1.
         -2   -1    0    0    0  501 -0.00000000000E+00 -0.00000000000E+00 -0.24395497620E+02  0.24395497754E+02  0.25500000000E-02 0.  1.
         23    2    1    2    0    0  0.00000000000E+00  0.00000000000E+00  0.58383138525E+02  0.10717413394E+03  0.89876048652E+02 0.  0.
    9000005    2    3    3    0    0 -0.14155329259E+02 -0.93230330505E+01 -0.19365021046E+02  0.27599837785E+02  0.99726984284E+01 0.  0.
         22    1    3    3    0    0  0.14155329259E+02  0.93230330505E+01  0.77748159571E+02  0.79574296153E+02  0.00000000000E+00 0. -1.
         22    1    4    4    0    0 -0.71821499048E+01 -0.20772511169E+01 -0.23533052077E+01  0.78381308268E+01  0.00000000000E+00 0.  1.
         22    1    4    4    0    0 -0.69731793547E+01 -0.72457819336E+01 -0.17011715838E+02  0.19761706958E+02  0.00000000000E+00 0.  1.
<mgrwt>
<rscale>  0 0.89876049E+02</rscale>
<asrwt>0</asrwt>
<pdfrwt beam="1">  1        2 0.12735175E-01 0.89876049E+02</pdfrwt>
<pdfrwt beam="2">  1       -2 0.37531535E-02 0.89876049E+02</pdfrwt>
<totfact> 0.12069740E+05</totfact>
</mgrwt>
</event>
<event>
 7    1  0.3960685E-009  0.9637748E+02  0.7818608E-02  0.1288103E+00
         -2   -1    0    0    0  501 -0.00000000000E+00  0.00000000000E+00  0.30139825863E+01  0.30139836650E+01  0.25500000000E-02 0.  1.
          2   -1    0    0  501    0  0.00000000000E+00 -0.00000000000E+00 -0.77046042712E+03  0.77046042712E+03  0.25500000000E-02 0. -1.
         23    2    1    2    0    0  0.00000000000E+00  0.35527136788E-14 -0.76744644453E+03  0.77347441079E+03  0.96377481386E+02 0.  0.
    9000005    2    3    3    0    0 -0.26878109691E+02 -0.23192205762E+02 -0.64291367782E+03  0.64398031372E+03  0.10598874980E+02 0.  0.
         22    1    3    3    0    0  0.26878109691E+02  0.23192205762E+02 -0.12453276672E+03  0.12949409707E+03  0.00000000000E+00 0.  1.
         22    1    4    4    0    0 -0.22150875992E+02 -0.13774497399E+02 -0.41053447954E+03  0.41136231838E+03  0.00000000000E+00 0. -1.
         22    1    4    4    0    0 -0.47272336994E+01 -0.94177083631E+01 -0.23237919827E+03  0.23261799535E+03  0.00000000000E+00 0. -1.
<mgrwt>
<rscale>  0 0.96377481E+02</rscale>
<asrwt>0</asrwt>
<pdfrwt beam="2">  1        2 0.11853222E+00 0.96377481E+02</pdfrwt>
<pdfrwt beam="1">  1       -2 0.46369033E-03 0.96377481E+02</pdfrwt>
<totfact> 0.20903667E+05</totfact>
</mgrwt>
</event>
<event>
 7    1  0.3960685E-009  0.7259658E+02  0.7818608E-02  0.1351479E+00
          2   -1    0    0  501    0  0.00000000000E+00  0.00000000000E+00  0.71874411743E+02  0.71874411788E+02  0.25500000000E-02 0.  1.
         -2   -1    0    0    0  501 -0.00000000000E+00 -0.00000000000E+00 -0.18331501186E+02  0.18331501364E+02  0.25500000000E-02 0. -1.
         23    2    1    2    0    0  0.00000000000E+00  0.00000000000E+00  0.53542910556E+02  0.90205913152E+02  0.72596580475E+02 0.  0.
    9000005    2    3    3    0    0 -0.92783250633E+01 -0.19657726713E+02  0.62504284565E+02  0.66693793731E+02  0.82923457315E+01 0.  0.
         22    1    3    3    0    0  0.92783250633E+01  0.19657726713E+02 -0.89613740094E+01  0.23512119420E+02  0.00000000000E+00 0. -1.
         22    1    4    4    0    0  0.14799546719E+01 -0.39989827367E+01  0.11050448480E+02  0.11844599628E+02  0.00000000000E+00 0.  1.
         22    1    4    4    0    0 -0.10758279735E+02 -0.15658743976E+02  0.51453836086E+02  0.54849194103E+02  0.00000000000E+00 0.  1.
<mgrwt>
<rscale>  0 0.72596580E+02</rscale>
<asrwt>0</asrwt>
<pdfrwt beam="1">  1        2 0.11057602E-01 0.72596580E+02</pdfrwt>
<pdfrwt beam="2">  1       -2 0.28202310E-02 0.72596580E+02</pdfrwt>
<totfact> 0.20813442E+05</totfact>
</mgrwt>
</event>
<event>
 6    1  0.3960685E-009  0.1622684E+03  0.7818608E-02  0.1186159E+00
          2   -1    0    0  501    0  0.00000000000E+00  0.00000000000E+00  0.71982036753E+02  0.71982036798E+02  0.25500000000E-02 0. -1.
         -2   -1    0    0    0  501 -0.00000000000E+00 -0.00000000000E+00 -0.91450045158E+02  0.91450045194E+02  0.25500000000E-02 0.  1.
    9000005    2    1    2    0    0 -0.45651777079E+02  0.29492545121E+01  0.57496015069E+02  0.73898603550E+02  0.79012027657E+01 0.  0.
         22    1    1    2    0    0  0.45651777079E+02 -0.29492545121E+01 -0.76964023474E+02  0.89533478442E+02  0.00000000000E+00 0.  1.
         22    1    3    3    0    0 -0.27919577094E+02 -0.20624795825E+01  0.34357770146E+02  0.44319442421E+02  0.00000000000E+00 0. -1.
         22    1    3    3    0    0 -0.17732199985E+02  0.50117340946E+01  0.23138244923E+02  0.29579161128E+02  0.00000000000E+00 0. -1.
<mgrwt>
<rscale>  0 0.16226843E+03</rscale>
<asrwt>0</asrwt>
<pdfrwt beam="1">  1        2 0.11074160E-01 0.16226843E+03</pdfrwt>
<pdfrwt beam="2">  1       -2 0.14069238E-01 0.16226843E+03</pdfrwt>
<totfact> 0.20235573E+04</totfact>
</mgrwt>
</event>
<event>
 7    1  0.3960685E-009  0.9098127E+02  0.7818608E-02  0.1300493E+00
          2   -1    0    0  501    0  0.00000000000E+00  0.00000000000E+00  0.33832490723E+03  0.33832490724E+03  0.25500000000E-02 0.  1.
         -2   -1    0    0    0  501 -0.00000000000E+00 -0.00000000000E+00 -0.61165989570E+01  0.61165994886E+01  0.25500000000E-02 0. -1.
         23    2    1    2    0    0  0.00000000000E+00  0.17763568394E-14  0.33220830828E+03  0.34444150673E+03  0.90981269895E+02 0.  0.
    9000005    2    3    3    0    0 -0.27336790176E+02 -0.12277908661E+02  0.29533042674E+03  0.29692282319E+03  0.67122901731E+01 0.  0.
         22    1    3    3    0    0  0.27336790176E+02  0.12277908661E+02  0.36877881539E+02  0.47518683536E+02  0.00000000000E+00 0. -1.
         22    1    4    4    0    0 -0.11549001416E+02 -0.61771955836E+01  0.98681051891E+02  0.99546407175E+02  0.00000000000E+00 0. -1.
         22    1    4    4    0    0 -0.15787788760E+02 -0.61007130771E+01  0.19664937485E+03  0.19737641602E+03  0.00000000000E+00 0. -1.
<mgrwt>
<rscale>  0 0.90981270E+02</rscale>
<asrwt>0</asrwt>
<pdfrwt beam="1">  1        2 0.52049996E-01 0.90981270E+02</pdfrwt>
<pdfrwt beam="2">  1       -2 0.94101508E-03 0.90981270E+02</pdfrwt>
<totfact> 0.18892063E+05</totfact>
</mgrwt>
</event>
<event>
 7    1  0.3960685E-009  0.9256326E+02  0.7818608E-02  0.1296760E+00
         -2   -1    0    0    0  501 -0.00000000000E+00  0.00000000000E+00  0.29513002220E+01  0.29513013236E+01  0.25500000000E-02 0.  1.
          2   -1    0    0  501    0  0.00000000000E+00 -0.00000000000E+00 -0.72577809699E+03  0.72577809699E+03  0.25500000000E-02 0. -1.
         23    2    1    2    0    0  0.00000000000E+00  0.35527136788E-14 -0.72282679676E+03  0.72872939832E+03  0.92563264026E+02 0.  0.
    9000005    2    3    3    0    0  0.10033984695E+02  0.30504395733E+02 -0.62194165174E+03  0.62285677913E+03  0.10389904825E+02 0.  0.
         22    1    3    3    0    0 -0.10033984695E+02 -0.30504395733E+02 -0.10088514502E+03  0.10587261919E+03  0.00000000000E+00 0.  1.
         22    1    4    4    0    0 -0.79118994385E+00  0.83517748722E+01 -0.10870865965E+03  0.10903187978E+03  0.00000000000E+00 0. -1.
         22    1    4    4    0    0  0.10825174639E+02  0.22152620860E+02 -0.51323299209E+03  0.51382489935E+03  0.00000000000E+00 0. -1.
<mgrwt>
<rscale>  0 0.92563264E+02</rscale>
<asrwt>0</asrwt>
<pdfrwt beam="2">  1        2 0.11165803E+00 0.92563264E+02</pdfrwt>
<pdfrwt beam="1">  1       -2 0.45404685E-03 0.92563264E+02</pdfrwt>
<totfact> 0.22975175E+05</totfact>
</mgrwt>
</event>
<event>
 7    1  0.3960685E-009  0.9195223E+02  0.7818608E-02  0.1298192E+00
          2   -1    0    0  501    0  0.00000000000E+00  0.00000000000E+00  0.23305535535E+02  0.23305535675E+02  0.25500000000E-02 0. -1.
         -2   -1    0    0    0  501 -0.00000000000E+00 -0.00000000000E+00 -0.90699624096E+02  0.90699624132E+02  0.25500000000E-02 0.  1.
         23    2    1    2    0    0  0.00000000000E+00  0.55511151231E-16 -0.67394088561E+02  0.11400515981E+03  0.91952233739E+02 0.  0.
    9000005    2    3    3    0    0  0.25060677455E+02 -0.40191775736E+00  0.14023923737E+02  0.28816593561E+02  0.23508583701E+01 0.  0.
         22    1    3    3    0    0 -0.25060677455E+02  0.40191775736E+00 -0.81418012298E+02  0.85188566246E+02  0.00000000000E+00 0.  1.
         22    1    4    4    0    0  0.69316143621E+01  0.89381720478E+00  0.42536295006E+01  0.81816594154E+01  0.00000000000E+00 0.  1.
         22    1    4    4    0    0  0.18129063093E+02 -0.12957349621E+01  0.97702942364E+01  0.20634934146E+02  0.00000000000E+00 0.  1.
<mgrwt>
<rscale>  0 0.91952234E+02</rscale>
<asrwt>0</asrwt>
<pdfrwt beam="1">  1        2 0.35854671E-02 0.91952234E+02</pdfrwt>
<pdfrwt beam="2">  1       -2 0.13953788E-01 0.91952234E+02</pdfrwt>
<totfact> 0.80416393E+04</totfact>
</mgrwt>
</event>
<event>
 7    1  0.3960685E-009  0.9158900E+02  0.7818608E-02  0.1299049E+00
         -2   -1    0    0    0  501 -0.00000000000E+00  0.00000000000E+00  0.18981082283E+03  0.18981082284E+03  0.25500000000E-02 0.  1.
          2   -1    0    0  501    0  0.00000000000E+00 -0.00000000000E+00 -0.11048558874E+02  0.11048559169E+02  0.25500000000E-02 0. -1.
         23    2    1    2    0    0  0.00000000000E+00  0.00000000000E+00  0.17876226395E+03  0.20085938201E+03  0.91588996769E+02 0.  0.
    9000005    2    3    3    0    0  0.20706351148E+01  0.41447280460E+02  0.12835739561E+03  0.13556914277E+03  0.13461310391E+02 0.  0.
         22    1    3    3    0    0 -0.20706351148E+01 -0.41447280460E+02  0.50404868346E+02  0.65290239242E+02  0.00000000000E+00 0. -1.
         22    1    4    4    0    0  0.78135815322E+01  0.21799086786E+02  0.68351129759E+02  0.72167369222E+02  0.00000000000E+00 0.  1.
         22    1    4    4    0    0 -0.57429464174E+01  0.19648193674E+02  0.60006265848E+02  0.63401773549E+02  0.00000000000E+00 0.  1.
<mgrwt>
<rscale>  0 0.91588997E+02</rscale>
<asrwt>0</asrwt>
<pdfrwt beam="2">  1        2 0.16997784E-02 0.91588997E+02</pdfrwt>
<pdfrwt beam="1">  1       -2 0.29201664E-01 0.91588997E+02</pdfrwt>
<totfact> 0.62993775E+04</totfact>
</mgrwt>
</event>
<event>
 7    1  0.3960685E-009  0.9342626E+02  0.7818608E-02  0.1294760E+00
          2   -1    0    0  501    0  0.00000000000E+00  0.00000000000E+00  0.15111228390E+02  0.15111228605E+02  0.25500000000E-02 0.  1.
         -2   -1    0    0    0  501 -0.00000000000E+00 -0.00000000000E+00 -0.14440365654E+03  0.14440365657E+03  0.25500000000E-02 0. -1.
         23    2    1    2    0    0 -0.83266726847E-16  0.00000000000E+00 -0.12929242815E+03  0.15951488517E+03  0.93426262976E+02 0.  0.
    9000005    2    3    3    0    0  0.61135589623E-01  0.40329664253E+02 -0.10302341897E+03  0.11138437094E+03  0.12890604264E+02 0.  0.
         22    1    3    3    0    0 -0.61135589623E-01 -0.40329664253E+02 -0.26269009187E+02  0.48130514229E+02  0.00000000000E+00 0.  1.
         22    1    4    4    0    0 -0.14457168254E+01  0.74996424962E+01 -0.91185696538E+01  0.11894664654E+02  0.00000000000E+00 0.  1.
         22    1    4    4    0    0  0.15068524150E+01  0.32830021757E+02 -0.93904849314E+02  0.99489706289E+02  0.00000000000E+00 0.  1.
<mgrwt>
<rscale>  0 0.93426263E+02</rscale>
<asrwt>0</asrwt>
<pdfrwt beam="1">  1        2 0.23248045E-02 0.93426263E+02</pdfrwt>
<pdfrwt beam="2">  1       -2 0.22215946E-01 0.93426263E+02</pdfrwt>
<totfact> 0.66584019E+04</totfact>
</mgrwt>
</event>
<event>
 7    1  0.3960685E-009  0.9169194E+02  0.7818608E-02  0.1298805E+00
          2   -1    0    0  501    0  0.00000000000E+00  0.00000000000E+00  0.11397731101E+03  0.11397731104E+03  0.25500000000E-02 0. -1.
         -2   -1    0    0    0  501 -0.00000000000E+00 -0.00000000000E+00 -0.18440976353E+02  0.18440976529E+02  0.25500000000E-02 0.  1.
         23    2    1    2    0    0  0.00000000000E+00  0.22204460493E-15  0.95536334659E+02  0.13241828757E+03  0.91691938811E+02 0.  0.
    9000005    2    3    3    0    0 -0.32895415697E+02 -0.95815716158E+00  0.48078759677E+01  0.35905699502E+02  0.13530600372E+02 0.  0.
         22    1    3    3    0    0  0.32895415697E+02  0.95815716158E+00  0.90728458691E+02  0.96512588067E+02  0.00000000000E+00 0. -1.
         22    1    4    4    0    0 -0.19807605757E+02 -0.48344484456E+01  0.79751250319E+01  0.21893281090E+02  0.00000000000E+00 0. -1.
         22    1    4    4    0    0 -0.13087809940E+02  0.38762912841E+01 -0.31672490642E+01  0.14012418413E+02  0.00000000000E+00 0. -1.
<mgrwt>
<rscale>  0 0.91691939E+02</rscale>
<asrwt>0</asrwt>
<pdfrwt beam="1">  1        2 0.17534971E-01 0.91691939E+02</pdfrwt>
<pdfrwt beam="2">  1       -2 0.28370732E-02 0.91691939E+02</pdfrwt>
<totfact> 0.12579670E+05</totfact>
</mgrwt>
</event>
<event>
 7    1  0.3960685E-009  0.9106597E+02  0.7818608E-02  0.1300291E+00
          2   -1    0    0  501    0  0.00000000000E+00  0.00000000000E+00  0.67797988103E+03  0.67797988104E+03  0.25500000000E-02 0. -1.
         -2   -1    0    0    0  501 -0.00000000000E+00 -0.00000000000E+00 -0.30579849525E+01  0.30579860157E+01  0.25500000000E-02 0.  1.
         23    2    1    2    0    0 -0.35527136788E-14  0.00000000000E+00  0.67492189608E+03  0.68103786705E+03  0.91065968132E+02 0.  0.
    9000005    2    3    3    0    0  0.26506823766E+02  0.30569798459E+02  0.48838685942E+03  0.49016501884E+03  0.10143813595E+02 0.  0.
         22    1    3    3    0    0 -0.26506823766E+02 -0.30569798459E+02  0.18653503666E+03  0.19087284822E+03  0.00000000000E+00 0.  1.
         22    1    4    4    0    0  0.23444260884E+02  0.20385468324E+02  0.35886111625E+03  0.36020341676E+03  0.00000000000E+00 0. -1.
         22    1    4    4    0    0  0.30625628819E+01  0.10184330135E+02  0.12952574317E+03  0.12996160208E+03  0.00000000000E+00 0. -1.
<mgrwt>
<rscale>  0 0.91065968E+02</rscale>
<asrwt>0</asrwt>
<pdfrwt beam="1">  1        2 0.10430460E+00 0.91065968E+02</pdfrwt>
<pdfrwt beam="2">  1       -2 0.47045929E-03 0.91065968E+02</pdfrwt>
<totfact> 0.23609688E+05</totfact>
</mgrwt>
</event>
<event>
 7    1  0.3960685E-009  0.8165632E+02  0.7818608E-02  0.1324416E+00
         -2   -1    0    0    0  501 -0.00000000000E+00  0.00000000000E+00  0.62224552209E+02  0.62224552261E+02  0.25500000000E-02 0.  1.
          2   -1    0    0  501    0  0.00000000000E+00 -0.00000000000E+00 -0.26789078967E+02  0.26789079088E+02  0.25500000000E-02 0. -1.
         23    2    1    2    0    0  0.00000000000E+00  0.00000000000E+00  0.35435473242E+02  0.89013631350E+02  0.81656315139E+02 0.  0.
    9000005    2    3    3    0    0  0.88001463072E+00  0.39031843429E+02  0.13271232572E+02  0.44119168532E+02  0.15688090731E+02 0.  0.
         22    1    3    3    0    0 -0.88001463072E+00 -0.39031843429E+02  0.22164240670E+02  0.44894462817E+02  0.00000000000E+00 0.  1.
         22    1    4    4    0    0  0.12237221277E+01  0.34511433978E+02  0.52839968330E+01  0.34935042488E+02  0.00000000000E+00 0.  1.
         22    1    4    4    0    0 -0.34370749701E+00  0.45204094503E+01  0.79872357394E+01  0.91841260443E+01  0.00000000000E+00 0.  1.
<mgrwt>
<rscale>  0 0.81656315E+02</rscale>
<asrwt>0</asrwt>
<pdfrwt beam="2">  1        2 0.41213968E-02 0.81656315E+02</pdfrwt>
<pdfrwt beam="1">  1       -2 0.95730079E-02 0.81656315E+02</pdfrwt>
<totfact> 0.11886957E+05</totfact>
</mgrwt>
</event>
<event>
 7    1  0.3960685E-009  0.8921436E+02  0.7818608E-02  0.1304765E+00
         -2   -1    0    0    0  501 -0.00000000000E+00  0.00000000000E+00  0.27423702977E+02  0.27423703096E+02  0.25500000000E-02 0.  1.
          2   -1    0    0  501    0  0.00000000000E+00 -0.00000000000E+00 -0.72557689664E+02  0.72557689709E+02  0.25500000000E-02 0. -1.
         23    2    1    2    0    0  0.00000000000E+00  0.35527136788E-14 -0.45133986687E+02  0.99981392805E+02  0.89214360688E+02 0.  0.
    9000005    2    3    3    0    0  0.27468901971E+02 -0.26165101305E+02 -0.47153313440E+02  0.61991515438E+02  0.13429814450E+02 0.  0.
         22    1    3    3    0    0 -0.27468901971E+02  0.26165101305E+02  0.20193267529E+01  0.37989877367E+02  0.00000000000E+00 0.  1.
         22    1    4    4    0    0  0.21269542690E+01 -0.31050955391E+01 -0.74521794356E-01  0.37644529838E+01  0.00000000000E+00 0.  1.
         22    1    4    4    0    0  0.25341947702E+02 -0.23060005766E+02 -0.47078791646E+02  0.58227062455E+02  0.00000000000E+00 0.  1.
<mgrwt>
<rscale>  0 0.89214361E+02</rscale>
<asrwt>0</asrwt>
<pdfrwt beam="2">  1        2 0.11162721E-01 0.89214361E+02</pdfrwt>
<pdfrwt beam="1">  1       -2 0.42190313E-02 0.89214361E+02</pdfrwt>
<totfact> 0.11871031E+05</totfact>
</mgrwt>
</event>
<event>
 7    1  0.3960685E-009  0.9176150E+02  0.7818608E-02  0.1298641E+00
          2   -1    0    0  501    0  0.00000000000E+00  0.00000000000E+00  0.42845542986E+02  0.42845543062E+02  0.25500000000E-02 0.  1.
         -2   -1    0    0    0  501 -0.00000000000E+00 -0.00000000000E+00 -0.49130973071E+02  0.49130973138E+02  0.25500000000E-02 0. -1.
         23    2    1    2    0    0 -0.17763568394E-14  0.00000000000E+00 -0.62854300851E+01  0.91976516200E+02  0.91761500102E+02 0.  0.
    9000005    2    3    3    0    0 -0.11048381523E+02 -0.34049993185E+02  0.24533921915E+02  0.44739864880E+02  0.10875358146E+02 0.  0.
         22    1    3    3    0    0  0.11048381523E+02  0.34049993185E+02 -0.30819352000E+02  0.47236651319E+02  0.00000000000E+00 0. -1.
         22    1    4    4    0    0 -0.12064245998E+02 -0.21385196558E+02  0.14211234178E+02  0.28369558336E+02  0.00000000000E+00 0.  1.
         22    1    4    4    0    0  0.10158644754E+01 -0.12664796628E+02  0.10322687737E+02  0.16370306545E+02  0.00000000000E+00 0.  1.
<mgrwt>
<rscale>  0 0.91761500E+02</rscale>
<asrwt>0</asrwt>
<pdfrwt beam="1">  1        2 0.65916220E-02 0.91761500E+02</pdfrwt>
<pdfrwt beam="2">  1       -2 0.75586113E-02 0.91761500E+02</pdfrwt>
<totfact> 0.95324898E+04</totfact>
</mgrwt>
</event>
<event>
 7    1  0.3960685E-009  0.9289209E+02  0.7818608E-02  0.1295995E+00
          2   -1    0    0  501    0  0.00000000000E+00  0.00000000000E+00  0.17408153205E+03  0.17408153207E+03  0.25500000000E-02 0. -1.
         -2   -1    0    0    0  501 -0.00000000000E+00 -0.00000000000E+00 -0.12392095040E+02  0.12392095302E+02  0.25500000000E-02 0.  1.
         23    2    1    2    0    0  0.00000000000E+00  0.00000000000E+00  0.16168943701E+03  0.18647362737E+03  0.92892086122E+02 0.  0.
    9000005    2    3    3    0    0 -0.44666286463E+02  0.10483053672E+01  0.10460915915E+03  0.11398684091E+03  0.73312776787E+01 0.  0.
         22    1    3    3    0    0  0.44666286463E+02 -0.10483053672E+01  0.57080277858E+02  0.72486786458E+02  0.00000000000E+00 0.  1.
         22    1    4    4    0    0 -0.33109771109E+02  0.34225660424E+01  0.72408364399E+02  0.79692798521E+02  0.00000000000E+00 0. -1.
         22    1    4    4    0    0 -0.11556515354E+02 -0.23742606752E+01  0.32200794750E+02  0.34294042390E+02  0.00000000000E+00 0. -1.
<mgrwt>
<rscale>  0 0.92892086E+02</rscale>
<asrwt>0</asrwt>
<pdfrwt beam="1">  1        2 0.26781773E-01 0.92892086E+02</pdfrwt>
<pdfrwt beam="2">  1       -2 0.19064763E-02 0.92892086E+02</pdfrwt>
<totfact> 0.13995421E+05</totfact>
</mgrwt>
</event>
<event>
 7    1  0.3960685E-009  0.9163428E+02  0.7818608E-02  0.1298942E+00
         -2   -1    0    0    0  501 -0.00000000000E+00  0.00000000000E+00  0.44981098710E+02  0.44981098782E+02  0.25500000000E-02 0.  1.
          2   -1    0    0  501    0  0.00000000000E+00 -0.00000000000E+00 -0.46668721264E+02  0.46668721334E+02  0.25500000000E-02 0. -1.
         23    2    1    2    0    0  0.00000000000E+00  0.44408920985E-15 -0.16876225543E+01  0.91649820116E+02  0.91634281017E+02 0.  0.
    9000005    2    3    3    0    0 -0.21606730251E+02 -0.31088289230E+01  0.38839062341E+02  0.45618007226E+02  0.97986841118E+01 0.  0.
         22    1    3    3    0    0  0.21606730251E+02  0.31088289230E+01 -0.40526684895E+02  0.46031812891E+02  0.00000000000E+00 0. -1.
         22    1    4    4    0    0 -0.12878192182E+02 -0.45751983916E+01  0.15541549623E+02  0.20695894252E+02  0.00000000000E+00 0.  1.
         22    1    4    4    0    0 -0.87285380682E+01  0.14663694686E+01  0.23297512718E+02  0.24922112973E+02  0.00000000000E+00 0.  1.
<mgrwt>
<rscale>  0 0.91634281E+02</rscale>
<asrwt>0</asrwt>
<pdfrwt beam="2">  1        2 0.71798033E-02 0.91634281E+02</pdfrwt>
<pdfrwt beam="1">  1       -2 0.69201690E-02 0.91634281E+02</pdfrwt>
<totfact> 0.97861268E+04</totfact>
</mgrwt>
</event>
<event>
 7    1  0.3960685E-009  0.8875836E+02  0.7818608E-02  0.1305887E+00
          2   -1    0    0  501    0  0.00000000000E+00  0.00000000000E+00  0.14378476647E+03  0.14378476650E+03  0.25500000000E-02 0. -1.
         -2   -1    0    0    0  501 -0.00000000000E+00 -0.00000000000E+00 -0.13697637853E+02  0.13697638090E+02  0.25500000000E-02 0.  1.
         23    2    1    2    0    0  0.11102230246E-15  0.00000000000E+00  0.13008712862E+03  0.15748240459E+03  0.88758361417E+02 0.  0.
    9000005    2    3    3    0    0  0.28417230394E+00  0.22643603316E+02  0.13272472233E+03  0.13468393039E+03  0.33310153386E+01 0.  0.
         22    1    3    3    0    0 -0.28417230394E+00 -0.22643603316E+02 -0.26375937092E+01  0.22798474194E+02  0.00000000000E+00 0.  1.
         22    1    4    4    0    0  0.17127067083E+01  0.86967294529E+01  0.52848171389E+02  0.53586338619E+02  0.00000000000E+00 0. -1.
         22    1    4    4    0    0 -0.14285344044E+01  0.13946873863E+02  0.79876550942E+02  0.81097591773E+02  0.00000000000E+00 0. -1.
<mgrwt>
<rscale>  0 0.88758361E+02</rscale>
<asrwt>0</asrwt>
<pdfrwt beam="1">  1        2 0.22120735E-01 0.88758361E+02</pdfrwt>
<pdfrwt beam="2">  1       -2 0.21073288E-02 0.88758361E+02</pdfrwt>
<totfact> 0.14824111E+05</totfact>
</mgrwt>
</event>
<event>
 7    1  0.3960685E-009  0.9194314E+02  0.7818608E-02  0.1298213E+00
         -2   -1    0    0    0  501 -0.00000000000E+00  0.00000000000E+00  0.26609301508E+01  0.26609313727E+01  0.25500000000E-02 0. -1.
          2   -1    0    0  501    0  0.00000000000E+00 -0.00000000000E+00 -0.79422775328E+03  0.79422775328E+03  0.25500000000E-02 0.  1.
         23    2    1    2    0    0  0.00000000000E+00 -0.35527136788E-14 -0.79156682313E+03  0.79688868465E+03  0.91943135987E+02 0.  0.
    9000005    2    3    3    0    0  0.24328303224E+02 -0.18668230215E+02 -0.68870828014E+03  0.68955626167E+03  0.15112039097E+02 0.  0.
         22    1    3    3    0    0 -0.24328303224E+02  0.18668230215E+02 -0.10285854299E+03  0.10733242298E+03  0.00000000000E+00 0. -1.
         22    1    4    4    0    0  0.47417401292E+01 -0.11541666858E+01 -0.25867374697E+03  0.25871977808E+03  0.00000000000E+00 0. -1.
         22    1    4    4    0    0  0.19586563095E+02 -0.17514063529E+02 -0.43003453317E+03  0.43083648359E+03  0.00000000000E+00 0. -1.
<mgrwt>
<rscale>  0 0.91943136E+02</rscale>
<asrwt>0</asrwt>
<pdfrwt beam="2">  1        2 0.12218870E+00 0.91943136E+02</pdfrwt>
<pdfrwt beam="1">  1       -2 0.40937460E-03 0.91943136E+02</pdfrwt>
<totfact> 0.23811307E+05</totfact>
</mgrwt>
</event>
<event>
 7    1  0.3960685E-009  0.8961415E+02  0.7818608E-02  0.1303789E+00
          2   -1    0    0  501    0  0.00000000000E+00  0.00000000000E+00  0.12269358021E+03  0.12269358024E+03  0.25500000000E-02 0. -1.
         -2   -1    0    0    0  501 -0.00000000000E+00 -0.00000000000E+00 -0.16363317958E+02  0.16363318157E+02  0.25500000000E-02 0.  1.
         23    2    1    2    0    0  0.00000000000E+00  0.00000000000E+00  0.10633026226E+03  0.13905689840E+03  0.89614152457E+02 0.  0.
    9000005    2    3    3    0    0 -0.20654198201E+02  0.12567506717E+02 -0.22769259191E+01  0.27791182871E+02  0.13513967786E+02 0.  0.
         22    1    3    3    0    0  0.20654198201E+02 -0.12567506717E+02  0.10860718818E+03  0.11126571553E+03  0.00000000000E+00 0. -1.
         22    1    4    4    0    0 -0.62415048250E+01  0.26841015743E+01 -0.69315363553E+01  0.97060280231E+01  0.00000000000E+00 0. -1.
         22    1    4    4    0    0 -0.14412693376E+02  0.98834051427E+01  0.46546104362E+01  0.18085154848E+02  0.00000000000E+00 0. -1.
<mgrwt>
<rscale>  0 0.89614152E+02</rscale>
<asrwt>0</asrwt>
<pdfrwt beam="1">  1        2 0.18875936E-01 0.89614152E+02</pdfrwt>
<pdfrwt beam="2">  1       -2 0.25174334E-02 0.89614152E+02</pdfrwt>
<totfact> 0.13710706E+05</totfact>
</mgrwt>
</event>
<event>
 7    1  0.3960685E-009  0.8622399E+02  0.7818608E-02  0.1312262E+00
          2   -1    0    0  501    0  0.00000000000E+00  0.00000000000E+00  0.35579866313E+02  0.35579866405E+02  0.25500000000E-02 0. -1.
         -2   -1    0    0    0  501 -0.00000000000E+00 -0.00000000000E+00 -0.52238650432E+02  0.52238650494E+02  0.25500000000E-02 0.  1.
         23    2    1    2    0    0  0.88817841970E-15  0.17763568394E-14 -0.16658784119E+02  0.87818516899E+02  0.86223992149E+02 0.  0.
    9000005    2    3    3    0    0  0.69838680218E+01 -0.14797865497E+02 -0.48235061947E+02  0.52254313586E+02  0.11667941181E+02 0.  0.
         22    1    3    3    0    0 -0.69838680218E+01  0.14797865497E+02  0.31576277829E+02  0.35564203314E+02  0.00000000000E+00 0. -1.
         22    1    4    4    0    0  0.92945207465E+01 -0.13588445200E+02 -0.45865203048E+02  0.48730388973E+02  0.00000000000E+00 0.  1.
         22    1    4    4    0    0 -0.23106527247E+01 -0.12094202977E+01 -0.23698588998E+01  0.35239246126E+01  0.00000000000E+00 0.  1.
<mgrwt>
<rscale>  0 0.86223992E+02</rscale>
<asrwt>0</asrwt>
<pdfrwt beam="1">  1        2 0.54738256E-02 0.86223992E+02</pdfrwt>
<pdfrwt beam="2">  1       -2 0.80367155E-02 0.86223992E+02</pdfrwt>
<totfact> 0.10881981E+05</totfact>
</mgrwt>
</event>
<event>
 7    1  0.3960685E-009  0.9192857E+02  0.7818608E-02  0.1298247E+00
         -2   -1    0    0    0  501 -0.00000000000E+00  0.00000000000E+00  0.65728556244E+02  0.65728556294E+02  0.25500000000E-02 0.  1.
          2   -1    0    0  501    0  0.00000000000E+00 -0.00000000000E+00 -0.32143041578E+02  0.32143041679E+02  0.25500000000E-02 0. -1.
         23    2    1    2    0    0  0.35527136788E-14  0.35527136788E-14  0.33585514666E+02  0.97871597973E+02  0.91928574961E+02 0.  0.
    9000005    2    3    3    0    0  0.16515662445E+02  0.31707898596E+02  0.46704472533E+02  0.59789253050E+02  0.10737275557E+02 0.  0.
         22    1    3    3    0    0 -0.16515662445E+02 -0.31707898596E+02 -0.13118957866E+02  0.38082344923E+02  0.00000000000E+00 0. -1.
         22    1    4    4    0    0 -0.17675757858E+00 -0.35317004251E+00  0.32161511802E+01  0.32403087406E+01  0.00000000000E+00 0. -1.
         22    1    4    4    0    0  0.16692420023E+02  0.32061068638E+02  0.43488321353E+02  0.56548944310E+02  0.00000000000E+00 0. -1.
<mgrwt>
<rscale>  0 0.91928575E+02</rscale>
<asrwt>0</asrwt>
<pdfrwt beam="2">  1        2 0.49450834E-02 0.91928575E+02</pdfrwt>
<pdfrwt beam="1">  1       -2 0.10112085E-01 0.91928575E+02</pdfrwt>
<totfact> 0.87941082E+04</totfact>
</mgrwt>
</event>
<event>
 7    1  0.3960685E-009  0.9448646E+02  0.7818608E-02  0.1292337E+00
          2   -1    0    0  501    0  0.00000000000E+00  0.00000000000E+00  0.41522881237E+03  0.41522881237E+03  0.25500000000E-02 0. -1.
         -2   -1    0    0    0  501 -0.00000000000E+00 -0.00000000000E+00 -0.53751627985E+01  0.53751634033E+01  0.25500000000E-02 0.  1.
         23    2    1    2    0    0 -0.17763568394E-14 -0.35527136788E-14  0.40985364957E+03  0.42060397578E+03  0.94486456044E+02 0.  0.
    9000005    2    3    3    0    0  0.13140318601E+02  0.31504163258E+02  0.34952000400E+03  0.35128349494E+03  0.84071605386E+01 0.  0.
         22    1    3    3    0    0 -0.13140318601E+02 -0.31504163258E+02  0.60333645569E+02  0.69320480835E+02  0.00000000000E+00 0.  1.
         22    1    4    4    0    0  0.39504532773E+01  0.24657802242E+01  0.40948248206E+02  0.41212197034E+02  0.00000000000E+00 0. -1.
         22    1    4    4    0    0  0.91898653240E+01  0.29038383033E+02  0.30857175579E+03  0.31007129791E+03  0.00000000000E+00 0. -1.
<mgrwt>
<rscale>  0 0.94486456E+02</rscale>
<asrwt>0</asrwt>
<pdfrwt beam="1">  1        2 0.63881359E-01 0.94486456E+02</pdfrwt>
<pdfrwt beam="2">  1       -2 0.82694813E-03 0.94486456E+02</pdfrwt>
<totfact> 0.18399207E+05</totfact>
</mgrwt>
</event>
<event>
 7    1  0.3960685E-009  0.9243869E+02  0.7818608E-02  0.1297051E+00
         -2   -1    0    0    0  501 -0.00000000000E+00  0.00000000000E+00  0.38818948936E+02  0.38818949019E+02  0.25500000000E-02 0.  1.
          2   -1    0    0  501    0  0.00000000000E+00 -0.00000000000E+00 -0.55030542030E+02  0.55030542089E+02  0.25500000000E-02 0. -1.
         23    2    1    2    0    0 -0.71054273576E-14  0.00000000000E+00 -0.16211593094E+02  0.93849491108E+02  0.92438689036E+02 0.  0.
    9000005    2    3    3    0    0 -0.38064439791E+02 -0.63962634986E+01 -0.33799538024E+02  0.51433107833E+02  0.36251961909E+01 0.  0.
         22    1    3    3    0    0  0.38064439791E+02  0.63962634986E+01  0.17587944930E+02  0.42416383275E+02  0.00000000000E+00 0.  1.
         22    1    4    4    0    0 -0.76767150560E+01 -0.23835631265E+01 -0.83882565595E+01  0.11617924743E+02  0.00000000000E+00 0. -1.
         22    1    4    4    0    0 -0.30387724735E+02 -0.40127003721E+01 -0.25411281465E+02  0.39815183090E+02  0.00000000000E+00 0. -1.
<mgrwt>
<rscale>  0 0.92438689E+02</rscale>
<asrwt>0</asrwt>
<pdfrwt beam="2">  1        2 0.84662372E-02 0.92438689E+02</pdfrwt>
<pdfrwt beam="1">  1       -2 0.59721460E-02 0.92438689E+02</pdfrwt>
<totfact> 0.99685992E+04</totfact>
</mgrwt>
</event>
<event>
 7    1  0.3960685E-009  0.8944617E+02  0.7818608E-02  0.1304198E+00
         -2   -1    0    0    0  501 -0.00000000000E+00  0.00000000000E+00  0.23174976184E+02  0.23174976324E+02  0.25500000000E-02 0.  1.
          2   -1    0    0  501    0  0.00000000000E+00 -0.00000000000E+00 -0.86306639020E+02  0.86306639058E+02  0.25500000000E-02 0. -1.
         23    2    1    2    0    0  0.00000000000E+00  0.00000000000E+00 -0.63131662837E+02  0.10948161538E+03  0.89446169589E+02 0.  0.
    9000005    2    3    3    0    0  0.13800357279E+02 -0.87649017692E+01 -0.82012703916E+02  0.84506286029E+02  0.12163692311E+02 0.  0.
         22    1    3    3    0    0 -0.13800357279E+02  0.87649017692E+01  0.18881041079E+02  0.24975329353E+02  0.00000000000E+00 0.  1.
         22    1    4    4    0    0  0.93639184270E+01  0.51165812610E+00 -0.50343978232E+02  0.51209968821E+02  0.00000000000E+00 0.  1.
         22    1    4    4    0    0  0.44364388525E+01 -0.92765598953E+01 -0.31668725684E+02  0.33296317208E+02  0.00000000000E+00 0.  1.
<mgrwt>
<rscale>  0 0.89446170E+02</rscale>
<asrwt>0</asrwt>
<pdfrwt beam="2">  1        2 0.13277944E-01 0.89446170E+02</pdfrwt>
<pdfrwt beam="1">  1       -2 0.35653810E-02 0.89446170E+02</pdfrwt>
<totfact> 0.12378841E+05</totfact>
</mgrwt>
</event>
<event>
 7    1  0.3960685E-009  0.9982643E+02  0.7818608E-02  0.1280661E+00
          2   -1    0    0  501    0  0.00000000000E+00  0.00000000000E+00  0.35149079591E+02  0.35149079683E+02  0.25500000000E-02 0. -1.
         -2   -1    0    0    0  501 -0.00000000000E+00 -0.00000000000E+00 -0.70878928951E+02  0.70878928997E+02  0.25500000000E-02 0.  1.
         23    2    1    2    0    0  0.00000000000E+00  0.00000000000E+00 -0.35729849360E+02  0.10602800868E+03  0.99826431817E+02 0.  0.
    9000005    2    3    3    0    0 -0.36795503787E+02  0.13531921655E+02  0.14588756192E+02  0.42239419831E+02  0.58578816848E+01 0.  0.
         22    1    3    3    0    0  0.36795503787E+02 -0.13531921655E+02 -0.50318605553E+02  0.63788588849E+02  0.00000000000E+00 0.  1.
         22    1    4    4    0    0 -0.36651573133E+02  0.13392260929E+02  0.14981243738E+02  0.41798661819E+02  0.00000000000E+00 0. -1.
         22    1    4    4    0    0 -0.14393065436E+00  0.13966072632E+00 -0.39248754626E+00  0.44075801264E+00  0.00000000000E+00 0. -1.
<mgrwt>
<rscale>  0 0.99826432E+02</rscale>
<asrwt>0</asrwt>
<pdfrwt beam="1">  1        2 0.54075507E-02 0.99826432E+02</pdfrwt>
<pdfrwt beam="2">  1       -2 0.10904451E-01 0.99826432E+02</pdfrwt>
<totfact> 0.70530416E+04</totfact>
</mgrwt>
</event>
<event>
 7    1  0.3960685E-009  0.9071246E+02  0.7818608E-02  0.1301135E+00
          2   -1    0    0  501    0  0.00000000000E+00  0.00000000000E+00  0.35678893143E+02  0.35678893234E+02  0.25500000000E-02 0. -1.
         -2   -1    0    0    0  501 -0.00000000000E+00 -0.00000000000E+00 -0.57658390529E+02  0.57658390586E+02  0.25500000000E-02 0.  1.
         23    2    1    2    0    0  0.00000000000E+00  0.35527136788E-14 -0.21979497386E+02  0.93337283820E+02  0.90712459152E+02 0.  0.
    9000005    2    3    3    0    0 -0.37271527454E+02  0.24818748600E+02 -0.13648481477E+02  0.47790133888E+02  0.96165903295E+01 0.  0.
         22    1    3    3    0    0  0.37271527454E+02 -0.24818748600E+02 -0.83310159091E+01  0.45547149932E+02  0.00000000000E+00 0.  1.
         22    1    4    4    0    0 -0.31455465215E+02  0.21082749721E+02 -0.76379897667E+01  0.38629878531E+02  0.00000000000E+00 0.  1.
         22    1    4    4    0    0 -0.58160622394E+01  0.37359988794E+01 -0.60104917106E+01  0.91602553569E+01  0.00000000000E+00 0.  1.
<mgrwt>
<rscale>  0 0.90712459E+02</rscale>
<asrwt>0</asrwt>
<pdfrwt beam="1">  1        2 0.54890605E-02 0.90712459E+02</pdfrwt>
<pdfrwt beam="2">  1       -2 0.88705216E-02 0.90712459E+02</pdfrwt>
<totfact> 0.93992066E+04</totfact>
</mgrwt>
</event>
<event>
 7    1  0.3960685E-009  0.9015160E+02  0.7818608E-02  0.1302485E+00
         -2   -1    0    0    0  501 -0.00000000000E+00  0.00000000000E+00  0.63641193887E+02  0.63641193938E+02  0.25500000000E-02 0.  1.
          2   -1    0    0  501    0  0.00000000000E+00 -0.00000000000E+00 -0.31926298281E+02  0.31926298383E+02  0.25500000000E-02 0. -1.
         23    2    1    2    0    0  0.17763568394E-14  0.00000000000E+00  0.31714895605E+02  0.95567492321E+02  0.90151600015E+02 0.  0.
    9000005    2    3    3    0    0  0.12019412108E+02  0.86245293553E+01 -0.28641195256E+02  0.33424862202E+02  0.88348499461E+01 0.  0.
         22    1    3    3    0    0 -0.12019412108E+02 -0.86245293553E+01  0.60356090861E+02  0.62142630118E+02  0.00000000000E+00 0.  1.
         22    1    4    4    0    0  0.62495523461E+01  0.61354047998E+01 -0.24183469778E+02  0.25720425873E+02  0.00000000000E+00 0. -1.
         22    1    4    4    0    0  0.57698597616E+01  0.24891245555E+01 -0.44577254775E+01  0.77044363294E+01  0.00000000000E+00 0. -1.
<mgrwt>
<rscale>  0 0.90151600E+02</rscale>
<asrwt>0</asrwt>
<pdfrwt beam="2">  1        2 0.49117383E-02 0.90151600E+02</pdfrwt>
<pdfrwt beam="1">  1       -2 0.97909528E-02 0.90151600E+02</pdfrwt>
<totfact> 0.92986065E+04</totfact>
</mgrwt>
</event>
<event>
 7    1  0.3960685E-009  0.9233969E+02  0.7818608E-02  0.1297283E+00
          2   -1    0    0  501    0  0.00000000000E+00  0.00000000000E+00  0.78291328879E+01  0.78291333032E+01  0.25500000000E-02 0. -1.
         -2   -1    0    0    0  501 -0.00000000000E+00 -0.00000000000E+00 -0.27227212442E+03  0.27227212443E+03  0.25500000000E-02 0.  1.
         23    2    1    2    0    0 -0.35527136788E-14  0.35527136788E-14 -0.26444299153E+03  0.28010125773E+03  0.92339692518E+02 0.  0.
    9000005    2    3    3    0    0  0.29612327520E+02 -0.25690562630E+02 -0.61119210251E+02  0.73032537297E+02  0.78293481819E+01 0.  0.
         22    1    3    3    0    0 -0.29612327520E+02  0.25690562630E+02 -0.20332378128E+03  0.20706872043E+03  0.00000000000E+00 0.  1.
         22    1    4    4    0    0  0.12549319555E+02 -0.59663677705E+01 -0.21549740830E+02  0.25641261582E+02  0.00000000000E+00 0. -1.
         22    1    4    4    0    0  0.17063007965E+02 -0.19724194860E+02 -0.39569469421E+02  0.47391275716E+02  0.00000000000E+00 0. -1.
<mgrwt>
<rscale>  0 0.92339693E+02</rscale>
<asrwt>0</asrwt>
<pdfrwt beam="1">  1        2 0.12044822E-02 0.92339693E+02</pdfrwt>
<pdfrwt beam="2">  1       -2 0.41888012E-01 0.92339693E+02</pdfrwt>
<totfact> 0.52043594E+04</totfact>
</mgrwt>
</event>
<event>
 7    1  0.3960685E-009  0.9178625E+02  0.7818608E-02  0.1298583E+00
          2   -1    0    0  501    0  0.00000000000E+00  0.00000000000E+00  0.56360333739E+03  0.56360333739E+03  0.25500000000E-02 0. -1.
         -2   -1    0    0    0  501 -0.00000000000E+00 -0.00000000000E+00 -0.37369873115E+01  0.37369881816E+01  0.25500000000E-02 0.  1.
         23    2    1    2    0    0  0.00000000000E+00  0.00000000000E+00  0.55986635008E+03  0.56734032557E+03  0.91786246660E+02 0.  0.
    9000005    2    3    3    0    0  0.30365521762E+02 -0.15112990721E+02  0.46728153392E+03  0.46873801534E+03  0.14588614902E+02 0.  0.
         22    1    3    3    0    0 -0.30365521762E+02  0.15112990721E+02  0.92584816157E+02  0.98602310232E+02  0.00000000000E+00 0.  1.
         22    1    4    4    0    0  0.25369245208E+02 -0.69031777545E+01  0.28745914283E+03  0.28865898785E+03  0.00000000000E+00 0.  1.
         22    1    4    4    0    0  0.49962765539E+01 -0.82098129665E+01  0.17982239108E+03  0.18007902749E+03  0.00000000000E+00 0.  1.
<mgrwt>
<rscale>  0 0.91786247E+02</rscale>
<asrwt>0</asrwt>
<pdfrwt beam="1">  1        2 0.86708161E-01 0.91786247E+02</pdfrwt>
<pdfrwt beam="2">  1       -2 0.57492149E-03 0.91786247E+02</pdfrwt>
<totfact> 0.21981831E+05</totfact>
</mgrwt>
</event>
<event>
 7    1  0.3960685E-009  0.9071046E+02  0.7818608E-02  0.1301140E+00
         -2   -1    0    0    0  501 -0.00000000000E+00  0.00000000000E+00  0.34245494452E+01  0.34245503946E+01  0.25500000000E-02 0.  1.
          2   -1    0    0  501    0  0.00000000000E+00 -0.00000000000E+00 -0.60069120925E+03  0.60069120925E+03  0.25500000000E-02 0. -1.
         23    2    1    2    0    0  0.44408920985E-15  0.00000000000E+00 -0.59726665980E+03  0.60411575965E+03  0.90710463250E+02 0.  0.
    9000005    2    3    3    0    0  0.33145136308E+01 -0.27072593953E+02 -0.53804518758E+03  0.53891534465E+03  0.13900124993E+02 0.  0.
         22    1    3    3    0    0 -0.33145136308E+01  0.27072593953E+02 -0.59221472221E+02  0.65200414998E+02  0.00000000000E+00 0.  1.
         22    1    4    4    0    0  0.38100284459E+01 -0.28435920970E+02 -0.48320676207E+03  0.48405773708E+03  0.00000000000E+00 0. -1.
         22    1    4    4    0    0 -0.49551481510E+00  0.13633270168E+01 -0.54838425511E+02  0.54857607567E+02  0.00000000000E+00 0. -1.
<mgrwt>
<rscale>  0 0.90710463E+02</rscale>
<asrwt>0</asrwt>
<pdfrwt beam="2">  1        2 0.92413949E-01 0.90710463E+02</pdfrwt>
<pdfrwt beam="1">  1       -2 0.52685431E-03 0.90710463E+02</pdfrwt>
<totfact> 0.23103101E+05</totfact>
</mgrwt>
</event>
<event>
 7    1  0.3960685E-009  0.9117572E+02  0.7818608E-02  0.1300029E+00
          2   -1    0    0  501    0  0.00000000000E+00  0.00000000000E+00  0.24684180920E+03  0.24684180921E+03  0.25500000000E-02 0. -1.
         -2   -1    0    0    0  501 -0.00000000000E+00 -0.00000000000E+00 -0.84193719146E+01  0.84193723008E+01  0.25500000000E-02 0.  1.
         23    2    1    2    0    0 -0.17763568394E-14  0.00000000000E+00  0.23842243729E+03  0.25526118151E+03  0.91175721477E+02 0.  0.
    9000005    2    3    3    0    0  0.11650942761E+02 -0.30142878568E+02  0.20787752742E+03  0.21079401257E+03  0.13293296479E+02 0.  0.
         22    1    3    3    0    0 -0.11650942761E+02  0.30142878568E+02  0.30544909862E+02  0.44467168946E+02  0.00000000000E+00 0.  1.
         22    1    4    4    0    0  0.29390686558E+01 -0.23389187790E+02  0.12706418886E+03  0.12923235013E+03  0.00000000000E+00 0. -1.
         22    1    4    4    0    0  0.87118741050E+01 -0.67536907786E+01  0.80813338563E+02  0.81561662436E+02  0.00000000000E+00 0. -1.
<mgrwt>
<rscale>  0 0.91175721E+02</rscale>
<asrwt>0</asrwt>
<pdfrwt beam="1">  1        2 0.37975668E-01 0.91175721E+02</pdfrwt>
<pdfrwt beam="2">  1       -2 0.12952879E-02 0.91175721E+02</pdfrwt>
<totfact> 0.16707833E+05</totfact>
</mgrwt>
</event>
<event>
 7    1  0.3960685E-009  0.8898036E+02  0.7818608E-02  0.1305340E+00
         -2   -1    0    0    0  501 -0.00000000000E+00  0.00000000000E+00  0.52916339741E+02  0.52916339802E+02  0.25500000000E-02 0.  1.
          2   -1    0    0  501    0  0.00000000000E+00 -0.00000000000E+00 -0.37405765502E+02  0.37405765589E+02  0.25500000000E-02 0. -1.
         23    2    1    2    0    0  0.00000000000E+00  0.00000000000E+00  0.15510574239E+02  0.90322105391E+02  0.88980361929E+02 0.  0.
    9000005    2    3    3    0    0 -0.36250180518E+02  0.18747141640E+02 -0.64248989641E+01  0.43989655727E+02  0.15108923755E+02 0.  0.
         22    1    3    3    0    0  0.36250180518E+02 -0.18747141640E+02  0.21935473204E+02  0.46332449664E+02  0.00000000000E+00 0.  1.
         22    1    4    4    0    0 -0.67377604024E+01  0.98271071076E+01  0.18732971287E+01  0.12061454783E+02  0.00000000000E+00 0.  1.
         22    1    4    4    0    0 -0.29512420115E+02  0.89200345320E+01 -0.82981960928E+01  0.31928200944E+02  0.00000000000E+00 0.  1.
<mgrwt>
<rscale>  0 0.88980362E+02</rscale>
<asrwt>0</asrwt>
<pdfrwt beam="2">  1        2 0.57547332E-02 0.88980362E+02</pdfrwt>
<pdfrwt beam="1">  1       -2 0.81409753E-02 0.88980362E+02</pdfrwt>
<totfact> 0.10061822E+05</totfact>
</mgrwt>
</event>
<event>
 7    1  0.3960685E-009  0.9236203E+02  0.7818608E-02  0.1297230E+00
          2   -1    0    0  501    0  0.00000000000E+00  0.00000000000E+00  0.74639141184E+03  0.74639141185E+03  0.25500000000E-02 0. -1.
         -2   -1    0    0    0  501 -0.00000000000E+00 -0.00000000000E+00 -0.28573291517E+01  0.28573302896E+01  0.25500000000E-02 0.  1.
         23    2    1    2    0    0  0.00000000000E+00  0.00000000000E+00  0.74353408269E+03  0.74924874214E+03  0.92362034789E+02 0.  0.
    9000005    2    3    3    0    0  0.36612334175E+02 -0.20392284373E+02  0.52587578056E+03  0.52759260132E+03  0.72324346701E+01 0.  0.
         22    1    3    3    0    0 -0.36612334175E+02  0.20392284373E+02  0.21765830213E+03  0.22165614082E+03  0.00000000000E+00 0.  1.
         22    1    4    4    0    0  0.54003249954E+01 -0.41361643618E+00  0.76353435370E+02  0.76545291699E+02  0.00000000000E+00 0.  1.
         22    1    4    4    0    0  0.31212009179E+02 -0.19978667937E+02  0.44952234519E+03  0.45104730962E+03  0.00000000000E+00 0.  1.
<mgrwt>
<rscale>  0 0.92362035E+02</rscale>
<asrwt>0</asrwt>
<pdfrwt beam="1">  1        2 0.11482959E+00 0.92362035E+02</pdfrwt>
<pdfrwt beam="2">  1       -2 0.43958866E-03 0.92362035E+02</pdfrwt>
<totfact> 0.23246084E+05</totfact>
</mgrwt>
</event>
<event>
 7    1  0.3960685E-009  0.9204433E+02  0.7818608E-02  0.1297975E+00
          2   -1    0    0  501    0  0.00000000000E+00  0.00000000000E+00  0.11443496417E+02  0.11443496701E+02  0.25500000000E-02 0.  1.
         -2   -1    0    0    0  501 -0.00000000000E+00 -0.00000000000E+00 -0.18508676914E+03  0.18508676915E+03  0.25500000000E-02 0. -1.
         23    2    1    2    0    0  0.00000000000E+00 -0.88817841970E-15 -0.17364327272E+03  0.19653026585E+03  0.92044332995E+02 0.  0.
    9000005    2    3    3    0    0 -0.29702416409E+02  0.66013135591E+01 -0.13275234204E+02  0.33301228431E+02  0.26323165906E+01 0.  0.
         22    1    3    3    0    0  0.29702416409E+02 -0.66013135591E+01 -0.16036803851E+03  0.16322903742E+03  0.00000000000E+00 0. -1.
         22    1    4    4    0    0 -0.21939676776E+02  0.43083846730E+01 -0.86133430653E+01  0.23960410561E+02  0.00000000000E+00 0.  1.
         22    1    4    4    0    0 -0.77627396329E+01  0.22929288861E+01 -0.46618911386E+01  0.93408178696E+01  0.00000000000E+00 0.  1.
<mgrwt>
<rscale>  0 0.92044333E+02</rscale>
<asrwt>0</asrwt>
<pdfrwt beam="1">  1        2 0.17605381E-02 0.92044333E+02</pdfrwt>
<pdfrwt beam="2">  1       -2 0.28474885E-01 0.92044333E+02</pdfrwt>
<totfact> 0.62858012E+04</totfact>
</mgrwt>
</event>
<event>
 7    1  0.3960685E-009  0.9182829E+02  0.7818608E-02  0.1298484E+00
          2   -1    0    0  501    0  0.00000000000E+00  0.00000000000E+00  0.39450268588E+02  0.39450268670E+02  0.25500000000E-02 0. -1.
         -2   -1    0    0    0  501 -0.00000000000E+00 -0.00000000000E+00 -0.53437115674E+02  0.53437115735E+02  0.25500000000E-02 0.  1.
         23    2    1    2    0    0  0.35527136788E-14  0.17763568394E-14 -0.13986847086E+02  0.92887384405E+02  0.91828286983E+02 0.  0.
    9000005    2    3    3    0    0  0.30649416553E+02  0.10760781700E+02 -0.39708523056E+02  0.51453270773E+02  0.39358750043E+01 0.  0.
         22    1    3    3    0    0 -0.30649416553E+02 -0.10760781700E+02  0.25721675970E+02  0.41434113633E+02  0.00000000000E+00 0. -1.
         22    1    4    4    0    0  0.30123647261E+02  0.10866928049E+02 -0.39559176558E+02  0.50896490051E+02  0.00000000000E+00 0. -1.
         22    1    4    4    0    0  0.52576929215E+00 -0.10614634871E+00 -0.14934649825E+00  0.55678072205E+00  0.00000000000E+00 0. -1.
<mgrwt>
<rscale>  0 0.91828287E+02</rscale>
<asrwt>0</asrwt>
<pdfrwt beam="1">  1        2 0.60692721E-02 0.91828287E+02</pdfrwt>
<pdfrwt beam="2">  1       -2 0.82210948E-02 0.91828287E+02</pdfrwt>
<totfact> 0.93101900E+04</totfact>
</mgrwt>
</event>
<event>
 7    1  0.3960685E-009  0.8923249E+02  0.7818608E-02  0.1304721E+00
         -2   -1    0    0    0  501 -0.00000000000E+00  0.00000000000E+00  0.41816992981E+02  0.41816993058E+02  0.25500000000E-02 0.  1.
          2   -1    0    0  501    0  0.00000000000E+00 -0.00000000000E+00 -0.47602878452E+02  0.47602878520E+02  0.25500000000E-02 0. -1.
         23    2    1    2    0    0  0.00000000000E+00  0.00000000000E+00 -0.57858854715E+01  0.89419871579E+02  0.89232488268E+02 0.  0.
    9000005    2    3    3    0    0  0.14455350653E+02  0.20629584757E+02  0.33999056941E+02  0.42330822189E+02  0.11940287415E+01 0.  0.
         22    1    3    3    0    0 -0.14455350653E+02 -0.20629584757E+02 -0.39784942412E+02  0.47089049390E+02  0.00000000000E+00 0. -1.
         22    1    4    4    0    0  0.14226659576E+02  0.20074377445E+02  0.32960413381E+02  0.41131099216E+02  0.00000000000E+00 0.  1.
         22    1    4    4    0    0  0.22869107612E+00  0.55520731189E+00  0.10386435596E+01  0.11997229728E+01  0.00000000000E+00 0.  1.
<mgrwt>
<rscale>  0 0.89232488E+02</rscale>
<asrwt>0</asrwt>
<pdfrwt beam="2">  1        2 0.73235198E-02 0.89232488E+02</pdfrwt>
<pdfrwt beam="1">  1       -2 0.64333835E-02 0.89232488E+02</pdfrwt>
<totfact> 0.10611937E+05</totfact>
</mgrwt>
</event>
<event>
 7    1  0.3960685E-009  0.9068170E+02  0.7818608E-02  0.1301209E+00
         -2   -1    0    0    0  501 -0.00000000000E+00  0.00000000000E+00  0.29166949291E+02  0.29166949402E+02  0.25500000000E-02 0.  1.
          2   -1    0    0  501    0  0.00000000000E+00 -0.00000000000E+00 -0.70483629943E+02  0.70483629990E+02  0.25500000000E-02 0. -1.
         23    2    1    2    0    0 -0.88817841970E-15 -0.71054273576E-14 -0.41316680653E+02  0.99650579392E+02  0.90681695358E+02 0.  0.
    9000005    2    3    3    0    0 -0.42009560127E+01 -0.44735048804E+02 -0.24754679820E+02  0.51763498728E+02  0.69132484830E+01 0.  0.
         22    1    3    3    0    0  0.42009560127E+01  0.44735048804E+02 -0.16562000833E+02  0.47887080664E+02  0.00000000000E+00 0. -1.
         22    1    4    4    0    0  0.10817468030E+01 -0.12046523930E+02 -0.42691414007E+01  0.12826319941E+02  0.00000000000E+00 0.  1.
         22    1    4    4    0    0 -0.52827028157E+01 -0.32688524875E+02 -0.20485538419E+02  0.38937178786E+02  0.00000000000E+00 0.  1.
<mgrwt>
<rscale>  0 0.90681695E+02</rscale>
<asrwt>0</asrwt>
<pdfrwt beam="2">  1        2 0.10843635E-01 0.90681695E+02</pdfrwt>
<pdfrwt beam="1">  1       -2 0.44872230E-02 0.90681695E+02</pdfrwt>
<totfact> 0.11253016E+05</totfact>
</mgrwt>
</event>
<event>
 7    1  0.3960685E-009  0.8919289E+02  0.7818608E-02  0.1304818E+00
          2   -1    0    0  501    0  0.00000000000E+00  0.00000000000E+00  0.14543632113E+02  0.14543632336E+02  0.25500000000E-02 0. -1.
         -2   -1    0    0    0  501 -0.00000000000E+00 -0.00000000000E+00 -0.13675007524E+03  0.13675007527E+03  0.25500000000E-02 0.  1.
         23    2    1    2    0    0  0.00000000000E+00  0.00000000000E+00 -0.12220644313E+03  0.15129370760E+03  0.89192887708E+02 0.  0.
    9000005    2    3    3    0    0 -0.31437395084E+01 -0.41560110421E+02 -0.38319770992E+02  0.57623543523E+02  0.10721102691E+02 0.  0.
         22    1    3    3    0    0  0.31437395084E+01  0.41560110421E+02 -0.83886672136E+02  0.93670164078E+02  0.00000000000E+00 0. -1.
         22    1    4    4    0    0 -0.29320217166E+01 -0.28820422558E+01 -0.56893343994E+01  0.70193621376E+01  0.00000000000E+00 0. -1.
         22    1    4    4    0    0 -0.21171779181E+00 -0.38678068166E+02 -0.32630436593E+02  0.50604181386E+02  0.00000000000E+00 0. -1.
<mgrwt>
<rscale>  0 0.89192888E+02</rscale>
<asrwt>0</asrwt>
<pdfrwt beam="1">  1        2 0.22374820E-02 0.89192888E+02</pdfrwt>
<pdfrwt beam="2">  1       -2 0.21038472E-01 0.89192888E+02</pdfrwt>
<totfact> 0.76304565E+04</totfact>
</mgrwt>
</event>
<event>
 7    1  0.3960685E-009  0.8994346E+02  0.7818608E-02  0.1302989E+00
          2   -1    0    0  501    0  0.00000000000E+00  0.00000000000E+00  0.13743964804E+03  0.13743964807E+03  0.25500000000E-02 0.  1.
         -2   -1    0    0    0  501 -0.00000000000E+00 -0.00000000000E+00 -0.14715232049E+02  0.14715232270E+02  0.25500000000E-02 0. -1.
         23    2    1    2    0    0  0.00000000000E+00  0.35527136788E-14  0.12272441599E+03  0.15215488034E+03  0.89943456289E+02 0.  0.
    9000005    2    3    3    0    0  0.11286967640E+02  0.29567911561E+02  0.97035012298E+01  0.34786297629E+02  0.10689786436E+02 0.  0.
         22    1    3    3    0    0 -0.11286967640E+02 -0.29567911561E+02  0.11302091476E+03  0.11736858271E+03  0.00000000000E+00 0. -1.
         22    1    4    4    0    0  0.50728928375E+01  0.31937459641E+01 -0.30497298834E-01  0.59945963258E+01  0.00000000000E+00 0.  1.
         22    1    4    4    0    0  0.62140748028E+01  0.26374165597E+02  0.97339985286E+01  0.28791701304E+02  0.00000000000E+00 0.  1.
<mgrwt>
<rscale>  0 0.89943456E+02</rscale>
<asrwt>0</asrwt>
<pdfrwt beam="1">  1        2 0.21144561E-01 0.89943456E+02</pdfrwt>
<pdfrwt beam="2">  1       -2 0.22638819E-02 0.89943456E+02</pdfrwt>
<totfact> 0.14087300E+05</totfact>
</mgrwt>
</event>
<event>
 7    1  0.3960685E-009  0.9298882E+02  0.7818608E-02  0.1295771E+00
         -2   -1    0    0    0  501 -0.00000000000E+00  0.00000000000E+00  0.26110785709E+01  0.26110798161E+01  0.25500000000E-02 0.  1.
          2   -1    0    0  501    0  0.00000000000E+00 -0.00000000000E+00 -0.82790686380E+03  0.82790686380E+03  0.25500000000E-02 0. -1.
         23    2    1    2    0    0  0.00000000000E+00  0.00000000000E+00 -0.82529578523E+03  0.83051794362E+03  0.92988824908E+02 0.  0.
    9000005    2    3    3    0    0 -0.36316577181E+02 -0.15949613686E+02 -0.62419716381E+03  0.62554492224E+03  0.10538808442E+02 0.  0.
         22    1    3    3    0    0  0.36316577181E+02  0.15949613686E+02 -0.20109862142E+03  0.20497302138E+03  0.00000000000E+00 0.  1.
         22    1    4    4    0    0 -0.98388317643E+01 -0.65158068836E+01 -0.25845239769E+03  0.25872166554E+03  0.00000000000E+00 0.  1.
         22    1    4    4    0    0 -0.26477745416E+02 -0.94338068025E+01 -0.36574476612E+03  0.36682325670E+03  0.00000000000E+00 0.  1.
<mgrwt>
<rscale>  0 0.92988825E+02</rscale>
<asrwt>0</asrwt>
<pdfrwt beam="2">  1        2 0.12737008E+00 0.92988825E+02</pdfrwt>
<pdfrwt beam="1">  1       -2 0.40170515E-03 0.92988825E+02</pdfrwt>
<totfact> 0.23274079E+05</totfact>
</mgrwt>
</event>
<event>
 7    1  0.3960685E-009  0.9135451E+02  0.7818608E-02  0.1299604E+00
         -2   -1    0    0    0  501 -0.00000000000E+00  0.00000000000E+00  0.40988228341E+03  0.40988228342E+03  0.25500000000E-02 0.  1.
          2   -1    0    0  501    0  0.00000000000E+00 -0.00000000000E+00 -0.50902694622E+01  0.50902701009E+01  0.25500000000E-02 0. -1.
         23    2    1    2    0    0  0.00000000000E+00  0.35527136788E-14  0.40479201395E+03  0.41497255352E+03  0.91354505188E+02 0.  0.
    9000005    2    3    3    0    0  0.20848795458E+02 -0.19152456211E+02  0.36434019486E+03  0.36559808118E+03  0.10802338819E+02 0.  0.
         22    1    3    3    0    0 -0.20848795458E+02  0.19152456211E+02  0.40451819097E+02  0.49374472344E+02  0.00000000000E+00 0. -1.
         22    1    4    4    0    0  0.14536285498E+02 -0.18019528596E+02  0.31374180753E+03  0.31459486455E+03  0.00000000000E+00 0.  1.
         22    1    4    4    0    0  0.63125099607E+01 -0.11329276154E+01  0.50598387322E+02  0.51003216630E+02  0.00000000000E+00 0.  1.
<mgrwt>
<rscale>  0 0.91354505E+02</rscale>
<asrwt>0</asrwt>
<pdfrwt beam="2">  1        2 0.78311838E-03 0.91354505E+02</pdfrwt>
<pdfrwt beam="1">  1       -2 0.63058817E-01 0.91354505E+02</pdfrwt>
<totfact> 0.41777041E+04</totfact>
</mgrwt>
</event>
<event>
 7    1  0.3960685E-009  0.8961533E+02  0.7818608E-02  0.1303786E+00
         -2   -1    0    0    0  501 -0.00000000000E+00  0.00000000000E+00  0.23474688413E+02  0.23474688552E+02  0.25500000000E-02 0. -1.
          2   -1    0    0  501    0  0.00000000000E+00 -0.00000000000E+00 -0.85527307596E+02  0.85527307634E+02  0.25500000000E-02 0.  1.
         23    2    1    2    0    0  0.00000000000E+00  0.00000000000E+00 -0.62052619182E+02  0.10900199619E+03  0.89615331418E+02 0.  0.
    9000005    2    3    3    0    0 -0.51505711223E+01 -0.20373099310E+02  0.16281229185E+02  0.27898461377E+02  0.84648783268E+01 0.  0.
         22    1    3    3    0    0  0.51505711223E+01  0.20373099310E+02 -0.78333848367E+02  0.81103534808E+02  0.00000000000E+00 0.  1.
         22    1    4    4    0    0 -0.60907335666E+01 -0.12877188470E+02  0.14081295226E+02  0.20030024801E+02  0.00000000000E+00 0. -1.
         22    1    4    4    0    0  0.94016244431E+00 -0.74959108395E+01  0.21999339586E+01  0.78684365764E+01  0.00000000000E+00 0. -1.
<mgrwt>
<rscale>  0 0.89615331E+02</rscale>
<asrwt>0</asrwt>
<pdfrwt beam="2">  1        2 0.13158047E-01 0.89615331E+02</pdfrwt>
<pdfrwt beam="1">  1       -2 0.36114906E-02 0.89615331E+02</pdfrwt>
<totfact> 0.12282125E+05</totfact>
</mgrwt>
</event>
<event>
 7    1  0.3960685E-009  0.9084937E+02  0.7818608E-02  0.1300808E+00
          2   -1    0    0  501    0  0.00000000000E+00  0.00000000000E+00  0.93355342773E+03  0.93355342773E+03  0.25500000000E-02 0. -1.
         -2   -1    0    0    0  501 -0.00000000000E+00 -0.00000000000E+00 -0.22102658781E+01  0.22102673491E+01  0.25500000000E-02 0.  1.
         23    2    1    2    0    0  0.00000000000E+00 -0.17763568394E-14  0.93134316185E+03  0.93576369508E+03  0.90849369323E+02 0.  0.
    9000005    2    3    3    0    0  0.20043041731E+02 -0.11556305911E+02  0.86780772321E+03  0.86814695387E+03  0.73223856228E+01 0.  0.
         22    1    3    3    0    0 -0.20043041731E+02  0.11556305911E+02  0.63535438644E+02  0.67616741210E+02  0.00000000000E+00 0.  1.
         22    1    4    4    0    0  0.11632035763E+02 -0.42806173098E+01  0.56298742611E+03  0.56312384952E+03  0.00000000000E+00 0.  1.
         22    1    4    4    0    0  0.84110059685E+01 -0.72756886008E+01  0.30482029709E+03  0.30502310435E+03  0.00000000000E+00 0.  1.
<mgrwt>
<rscale>  0 0.90849369E+02</rscale>
<asrwt>0</asrwt>
<pdfrwt beam="1">  1        2 0.14362392E+00 0.90849369E+02</pdfrwt>
<pdfrwt beam="2">  1       -2 0.34004028E-03 0.90849369E+02</pdfrwt>
<totfact> 0.25123123E+05</totfact>
</mgrwt>
</event>
<event>
 7    1  0.3960685E-009  0.8985756E+02  0.7818608E-02  0.1303197E+00
          2   -1    0    0  501    0  0.00000000000E+00  0.00000000000E+00  0.87437292275E+02  0.87437292312E+02  0.25500000000E-02 0. -1.
         -2   -1    0    0    0  501 -0.00000000000E+00 -0.00000000000E+00 -0.23086203497E+02  0.23086203638E+02  0.25500000000E-02 0.  1.
         23    2    1    2    0    0  0.00000000000E+00  0.00000000000E+00  0.64351088778E+02  0.11052349595E+03  0.89857556889E+02 0.  0.
    9000005    2    3    3    0    0 -0.16277183094E+02 -0.19036221305E+02 -0.11407089143E+02  0.30732356511E+02  0.13675951264E+02 0.  0.
         22    1    3    3    0    0  0.16277183094E+02  0.19036221305E+02  0.75758177921E+02  0.79791139439E+02  0.00000000000E+00 0. -1.
         22    1    4    4    0    0 -0.10081206265E+01 -0.21662558000E+01  0.29738929353E+01  0.38148408328E+01  0.00000000000E+00 0. -1.
         22    1    4    4    0    0 -0.15269062467E+02 -0.16869965505E+02 -0.14380982079E+02  0.26917515679E+02  0.00000000000E+00 0. -1.
<mgrwt>
<rscale>  0 0.89857557E+02</rscale>
<asrwt>0</asrwt>
<pdfrwt beam="1">  1        2 0.13451891E-01 0.89857557E+02</pdfrwt>
<pdfrwt beam="2">  1       -2 0.35517236E-02 0.89857557E+02</pdfrwt>
<totfact> 0.12269446E+05</totfact>
</mgrwt>
</event>
<event>
 7    1  0.3960685E-009  0.9081369E+02  0.7818608E-02  0.1300893E+00
          2   -1    0    0  501    0  0.00000000000E+00  0.00000000000E+00  0.18123973635E+03  0.18123973637E+03  0.25500000000E-02 0. -1.
         -2   -1    0    0    0  501 -0.00000000000E+00 -0.00000000000E+00 -0.11375990648E+02  0.11375990934E+02  0.25500000000E-02 0.  1.
         23    2    1    2    0    0  0.00000000000E+00 -0.71054273576E-14  0.16986374570E+03  0.19261572730E+03  0.90813690049E+02 0.  0.
    9000005    2    3    3    0    0 -0.27435243234E+02  0.34887709786E+02  0.89964251798E+02  0.10121674486E+03  0.13469148939E+02 0.  0.
         22    1    3    3    0    0  0.27435243234E+02 -0.34887709786E+02  0.79899493903E+02  0.91398982441E+02  0.00000000000E+00 0.  1.
         22    1    4    4    0    0 -0.60025371740E+01  0.12633370876E+02  0.17232229806E+02  0.22194194202E+02  0.00000000000E+00 0. -1.
         22    1    4    4    0    0 -0.21432706060E+02  0.22254338909E+02  0.72732021993E+02  0.79022550658E+02  0.00000000000E+00 0. -1.
<mgrwt>
<rscale>  0 0.90813690E+02</rscale>
<asrwt>0</asrwt>
<pdfrwt beam="1">  1        2 0.27883034E-01 0.90813690E+02</pdfrwt>
<pdfrwt beam="2">  1       -2 0.17501526E-02 0.90813690E+02</pdfrwt>
<totfact> 0.15092665E+05</totfact>
</mgrwt>
</event>
<event>
 7    1  0.3960685E-009  0.9140212E+02  0.7818608E-02  0.1299491E+00
         -2   -1    0    0    0  501 -0.00000000000E+00  0.00000000000E+00  0.73561362135E+02  0.73561362179E+02  0.25500000000E-02 0.  1.
          2   -1    0    0  501    0  0.00000000000E+00 -0.00000000000E+00 -0.28392441827E+02  0.28392441942E+02  0.25500000000E-02 0. -1.
         23    2    1    2    0    0 -0.35527136788E-14 -0.44408920985E-15  0.45168920308E+02  0.10195380412E+03  0.91402116020E+02 0.  0.
    9000005    2    3    3    0    0  0.25514566132E+02 -0.39130525820E+01  0.64307200062E+02  0.69820039677E+02  0.85508417875E+01 0.  0.
         22    1    3    3    0    0 -0.25514566132E+02  0.39130525820E+01 -0.19138279754E+02  0.32133764444E+02  0.00000000000E+00 0. -1.
         22    1    4    4    0    0  0.18599425511E+02 -0.47573978255E+01  0.37580182244E+02  0.42200018494E+02  0.00000000000E+00 0.  1.
         22    1    4    4    0    0  0.69151406206E+01  0.84434524351E+00  0.26727017818E+02  0.27620021183E+02  0.00000000000E+00 0.  1.
<mgrwt>
<rscale>  0 0.91402116E+02</rscale>
<asrwt>0</asrwt>
<pdfrwt beam="2">  1        2 0.43680681E-02 0.91402116E+02</pdfrwt>
<pdfrwt beam="1">  1       -2 0.11317132E-01 0.91402116E+02</pdfrwt>
<totfact> 0.86527442E+04</totfact>
</mgrwt>
</event>
<event>
 7    1  0.3960685E-009  0.9187597E+02  0.7818608E-02  0.1298371E+00
         -2   -1    0    0    0  501 -0.00000000000E+00  0.00000000000E+00  0.12319931897E+02  0.12319932160E+02  0.25500000000E-02 0.  1.
          2   -1    0    0  501    0  0.00000000000E+00 -0.00000000000E+00 -0.17129139984E+03  0.17129139985E+03  0.25500000000E-02 0. -1.
         23    2    1    2    0    0  0.00000000000E+00  0.00000000000E+00 -0.15897146794E+03  0.18361133201E+03  0.91875968706E+02 0.  0.
    9000005    2    3    3    0    0 -0.37534146455E+02  0.24472756329E+02 -0.59690574580E+02  0.74687396452E+02  0.27412666079E+01 0.  0.
         22    1    3    3    0    0  0.37534146455E+02 -0.24472756329E+02 -0.99280893359E+02  0.10892393556E+03  0.00000000000E+00 0. -1.
         22    1    4    4    0    0 -0.89584222182E+01  0.54344044087E+01 -0.12163505210E+02  0.16054187582E+02  0.00000000000E+00 0.  1.
         22    1    4    4    0    0 -0.28575724237E+02  0.19038351920E+02 -0.47527069370E+02  0.58633208870E+02  0.00000000000E+00 0.  1.
<mgrwt>
<rscale>  0 0.91875969E+02</rscale>
<asrwt>0</asrwt>
<pdfrwt beam="2">  1        2 0.26352521E-01 0.91875969E+02</pdfrwt>
<pdfrwt beam="1">  1       -2 0.18953743E-02 0.91875969E+02</pdfrwt>
<totfact> 0.14337026E+05</totfact>
</mgrwt>
</event>
<event>
 7    1  0.3960685E-009  0.8769185E+02  0.7818608E-02  0.1308539E+00
         -2   -1    0    0    0  501 -0.00000000000E+00  0.00000000000E+00  0.35417870170E+02  0.35417870262E+02  0.25500000000E-02 0.  1.
          2   -1    0    0  501    0  0.00000000000E+00 -0.00000000000E+00 -0.54279528249E+02  0.54279528309E+02  0.25500000000E-02 0. -1.
         23    2    1    2    0    0 -0.17763568394E-14  0.00000000000E+00 -0.18861658079E+02  0.89697398570E+02  0.87691853469E+02 0.  0.
    9000005    2    3    3    0    0  0.13695452667E+02 -0.16333841177E+02  0.29639787746E+02  0.36718628875E+02  0.39218487316E+01 0.  0.
         22    1    3    3    0    0 -0.13695452667E+02  0.16333841177E+02 -0.48501445825E+02  0.52978769695E+02  0.00000000000E+00 0. -1.
         22    1    4    4    0    0  0.29941363692E+01 -0.14177870769E+01  0.47502974357E+01  0.57913986670E+01  0.00000000000E+00 0. -1.
         22    1    4    4    0    0  0.10701316298E+02 -0.14916054100E+02  0.24889490310E+02  0.30927230208E+02  0.00000000000E+00 0. -1.
<mgrwt>
<rscale>  0 0.87691853E+02</rscale>
<asrwt>0</asrwt>
<pdfrwt beam="2">  1        2 0.83506966E-02 0.87691853E+02</pdfrwt>
<pdfrwt beam="1">  1       -2 0.54489031E-02 0.87691853E+02</pdfrwt>
<totfact> 0.11529831E+05</totfact>
</mgrwt>
</event>
<event>
 7    1  0.3960685E-009  0.8973315E+02  0.7818608E-02  0.1303499E+00
         -2   -1    0    0    0  501 -0.00000000000E+00  0.00000000000E+00  0.24053837030E+03  0.24053837031E+03  0.25500000000E-02 0.  1.
          2   -1    0    0  501    0  0.00000000000E+00 -0.00000000000E+00 -0.83687662659E+01  0.83687666544E+01  0.25500000000E-02 0. -1.
         23    2    1    2    0    0  0.00000000000E+00  0.00000000000E+00  0.23216960403E+03  0.24890713697E+03  0.89733147700E+02 0.  0.
    9000005    2    3    3    0    0 -0.27790822337E+02 -0.21154286910E+02  0.19162936745E+03  0.19539690950E+03  0.15437101874E+02 0.  0.
         22    1    3    3    0    0  0.27790822337E+02  0.21154286910E+02  0.40540236586E+02  0.53510227464E+02  0.00000000000E+00 0. -1.
         22    1    4    4    0    0 -0.25784258853E+02 -0.20080511911E+02  0.18944223074E+03  0.19224051017E+03  0.00000000000E+00 0.  1.
         22    1    4    4    0    0 -0.20065634844E+01 -0.10737749988E+01  0.21871367073E+01  0.31563993318E+01  0.00000000000E+00 0.  1.
<mgrwt>
<rscale>  0 0.89733148E+02</rscale>
<asrwt>0</asrwt>
<pdfrwt beam="2">  1        2 0.12875026E-02 0.89733148E+02</pdfrwt>
<pdfrwt beam="1">  1       -2 0.37005902E-01 0.89733148E+02</pdfrwt>
<totfact> 0.59645279E+04</totfact>
</mgrwt>
</event>
<event>
 7    1  0.3960685E-009  0.9175107E+02  0.7818608E-02  0.1298666E+00
         -2   -1    0    0    0  501 -0.00000000000E+00  0.00000000000E+00  0.86699258497E+03  0.86699258497E+03  0.25500000000E-02 0.  1.
          2   -1    0    0  501    0  0.00000000000E+00 -0.00000000000E+00 -0.24274305117E+01  0.24274318511E+01  0.25500000000E-02 0. -1.
         23    2    1    2    0    0  0.00000000000E+00  0.00000000000E+00  0.86456515445E+03  0.86942001682E+03  0.91751072757E+02 0.  0.
    9000005    2    3    3    0    0 -0.19917302100E+02 -0.24932539278E+02  0.74020827089E+03  0.74103401709E+03  0.14310826275E+02 0.  0.
         22    1    3    3    0    0  0.19917302100E+02  0.24932539278E+02  0.12435688357E+03  0.12838599973E+03  0.00000000000E+00 0. -1.
         22    1    4    4    0    0 -0.41189842221E+01 -0.45839134013E+01  0.30610098479E+03  0.30616301406E+03  0.00000000000E+00 0. -1.
         22    1    4    4    0    0 -0.15798317878E+02 -0.20348625876E+02  0.43410728610E+03  0.43487100302E+03  0.00000000000E+00 0. -1.
<mgrwt>
<rscale>  0 0.91751073E+02</rscale>
<asrwt>0</asrwt>
<pdfrwt beam="2">  1        2 0.37345119E-03 0.91751073E+02</pdfrwt>
<pdfrwt beam="1">  1       -2 0.13338339E+00 0.91751073E+02</pdfrwt>
<totfact> 0.21567749E+04</totfact>
</mgrwt>
</event>
<event>
 7    1  0.3960685E-009  0.8793817E+02  0.7818608E-02  0.1307923E+00
          2   -1    0    0  501    0  0.00000000000E+00  0.00000000000E+00  0.72374673977E+02  0.72374674022E+02  0.25500000000E-02 0. -1.
         -2   -1    0    0    0  501 -0.00000000000E+00 -0.00000000000E+00 -0.26712112749E+02  0.26712112871E+02  0.25500000000E-02 0.  1.
         23    2    1    2    0    0 -0.22204460493E-15 -0.35527136788E-14  0.45662561228E+02  0.99086786893E+02  0.87938170546E+02 0.  0.
    9000005    2    3    3    0    0  0.17408404859E+01  0.25669945806E+02  0.62250648091E+02  0.68474023721E+02  0.12311461874E+02 0.  0.
         22    1    3    3    0    0 -0.17408404859E+01 -0.25669945806E+02 -0.16588086863E+02  0.30612763173E+02  0.00000000000E+00 0.  1.
         22    1    4    4    0    0  0.22086580054E+01  0.77701826644E+01  0.34611214734E+02  0.35541385654E+02  0.00000000000E+00 0.  1.
         22    1    4    4    0    0 -0.46781751949E+00  0.17899763142E+02  0.27639433357E+02  0.32932638067E+02  0.00000000000E+00 0.  1.
<mgrwt>
<rscale>  0 0.87938171E+02</rscale>
<asrwt>0</asrwt>
<pdfrwt beam="1">  1        2 0.11134565E-01 0.87938171E+02</pdfrwt>
<pdfrwt beam="2">  1       -2 0.41095559E-02 0.87938171E+02</pdfrwt>
<totfact> 0.12346996E+05</totfact>
</mgrwt>
</event>
<event>
 7    1  0.3960685E-009  0.9271053E+02  0.7818608E-02  0.1296417E+00
          2   -1    0    0  501    0  0.00000000000E+00  0.00000000000E+00  0.41931025210E+03  0.41931025211E+03  0.25500000000E-02 0.  1.
         -2   -1    0    0    0  501 -0.00000000000E+00 -0.00000000000E+00 -0.51246310919E+01  0.51246317263E+01  0.25500000000E-02 0. -1.
         23    2    1    2    0    0  0.00000000000E+00  0.00000000000E+00  0.41418562101E+03  0.42443488384E+03  0.92710527803E+02 0.  0.
    9000005    2    3    3    0    0  0.35446506844E+02 -0.27642459442E+02  0.23531399083E+03  0.24000164254E+03  0.14406725185E+02 0.  0.
         22    1    3    3    0    0 -0.35446506844E+02  0.27642459442E+02  0.17887163018E+03  0.18443324130E+03  0.00000000000E+00 0. -1.
         22    1    4    4    0    0  0.20315672605E+02 -0.18033122145E+02  0.17447986910E+03  0.17658183590E+03  0.00000000000E+00 0.  1.
         22    1    4    4    0    0  0.15130834239E+02 -0.96093372967E+01  0.60834121728E+02  0.63419806642E+02  0.00000000000E+00 0.  1.
<mgrwt>
<rscale>  0 0.92710528E+02</rscale>
<asrwt>0</asrwt>
<pdfrwt beam="1">  1        2 0.64509290E-01 0.92710528E+02</pdfrwt>
<pdfrwt beam="2">  1       -2 0.78840459E-03 0.92710528E+02</pdfrwt>
<totfact> 0.19419404E+05</totfact>
</mgrwt>
</event>
<event>
 7    1  0.3960685E-009  0.9278356E+02  0.7818608E-02  0.1296248E+00
          2   -1    0    0  501    0  0.00000000000E+00  0.00000000000E+00  0.27189972960E+02  0.27189973079E+02  0.25500000000E-02 0. -1.
         -2   -1    0    0    0  501 -0.00000000000E+00 -0.00000000000E+00 -0.79154069695E+02  0.79154069736E+02  0.25500000000E-02 0.  1.
         23    2    1    2    0    0  0.00000000000E+00 -0.35527136788E-14 -0.51964096735E+02  0.10634404282E+03  0.92783555078E+02 0.  0.
    9000005    2    3    3    0    0 -0.35612636361E+02  0.24372965685E+02 -0.42694529177E+02  0.62205327298E+02  0.13578608091E+02 0.  0.
         22    1    3    3    0    0  0.35612636361E+02 -0.24372965685E+02 -0.92695675577E+01  0.44138715518E+02  0.00000000000E+00 0. -1.
         22    1    4    4    0    0 -0.97625476829E+01  0.61539793741E+01 -0.20647373239E+02  0.23653600594E+02  0.00000000000E+00 0.  1.
         22    1    4    4    0    0 -0.25850088678E+02  0.18218986311E+02 -0.22047155938E+02  0.38551726703E+02  0.00000000000E+00 0.  1.
<mgrwt>
<rscale>  0 0.92783555E+02</rscale>
<asrwt>0</asrwt>
<pdfrwt beam="1">  1        2 0.41830728E-02 0.92783555E+02</pdfrwt>
<pdfrwt beam="2">  1       -2 0.12177549E-01 0.92783555E+02</pdfrwt>
<totfact> 0.81743920E+04</totfact>
</mgrwt>
</event>
<event>
 7    1  0.3960685E-009  0.8859773E+02  0.7818608E-02  0.1306283E+00
          2   -1    0    0  501    0  0.00000000000E+00  0.00000000000E+00  0.13906921089E+03  0.13906921092E+03  0.25500000000E-02 0. -1.
         -2   -1    0    0    0  501 -0.00000000000E+00 -0.00000000000E+00 -0.14110884432E+02  0.14110884662E+02  0.25500000000E-02 0.  1.
         23    2    1    2    0    0  0.00000000000E+00  0.00000000000E+00  0.12495832646E+03  0.15318009558E+03  0.88597733207E+02 0.  0.
    9000005    2    3    3    0    0  0.21487734759E+02 -0.14884168787E+02  0.38631129748E+01  0.29295827187E+02  0.12651506755E+02 0.  0.
         22    1    3    3    0    0 -0.21487734759E+02  0.14884168787E+02  0.12109521349E+03  0.12388426839E+03  0.00000000000E+00 0. -1.
         22    1    4    4    0    0 -0.69749602338E+00 -0.56603911040E+00  0.27224126167E+01  0.28667806740E+01  0.00000000000E+00 0.  1.
         22    1    4    4    0    0  0.22185230782E+02 -0.14318129676E+02  0.11407003581E+01  0.26429046513E+02  0.00000000000E+00 0.  1.
<mgrwt>
<rscale>  0 0.88597733E+02</rscale>
<asrwt>0</asrwt>
<pdfrwt beam="1">  1        2 0.21395263E-01 0.88597733E+02</pdfrwt>
<pdfrwt beam="2">  1       -2 0.21709053E-02 0.88597733E+02</pdfrwt>
<totfact> 0.14732490E+05</totfact>
</mgrwt>
</event>
<event>
 7    1  0.3960685E-009  0.9947909E+02  0.7818608E-02  0.1281395E+00
         -2   -1    0    0    0  501 -0.00000000000E+00  0.00000000000E+00  0.49727650565E+01  0.49727657103E+01  0.25500000000E-02 0.  1.
          2   -1    0    0  501    0  0.00000000000E+00 -0.00000000000E+00 -0.49751439967E+03  0.49751439968E+03  0.25500000000E-02 0. -1.
         23    2    1    2    0    0  0.00000000000E+00  0.35527136788E-14 -0.49254163461E+03  0.50248716539E+03  0.99479091023E+02 0.  0.
    9000005    2    3    3    0    0  0.22069599079E+02 -0.26919130142E+02 -0.42319673768E+03  0.42489579021E+03  0.15140904327E+02 0.  0.
         22    1    3    3    0    0 -0.22069599079E+02  0.26919130142E+02 -0.69344896930E+02  0.77591375174E+02  0.00000000000E+00 0.  1.
         22    1    4    4    0    0  0.79874322287E+01 -0.26024174887E+01 -0.56143186812E+02  0.56768204797E+02  0.00000000000E+00 0.  1.
         22    1    4    4    0    0  0.14082166850E+02 -0.24316712653E+02 -0.36705355087E+03  0.36812758542E+03  0.00000000000E+00 0.  1.
<mgrwt>
<rscale>  0 0.99479091E+02</rscale>
<asrwt>0</asrwt>
<pdfrwt beam="2">  1        2 0.76540638E-01 0.99479091E+02</pdfrwt>
<pdfrwt beam="1">  1       -2 0.76504122E-03 0.99479091E+02</pdfrwt>
<totfact> 0.17063823E+05</totfact>
</mgrwt>
</event>
<event>
 7    1  0.3960685E-009  0.8952116E+02  0.7818608E-02  0.1304015E+00
          2   -1    0    0  501    0  0.00000000000E+00  0.00000000000E+00  0.85537160543E+02  0.85537160581E+02  0.25500000000E-02 0. -1.
         -2   -1    0    0    0  501 -0.00000000000E+00 -0.00000000000E+00 -0.23422680771E+02  0.23422680910E+02  0.25500000000E-02 0.  1.
         23    2    1    2    0    0  0.71054273576E-14  0.00000000000E+00  0.62114479772E+02  0.10895984149E+03  0.89521162081E+02 0.  0.
    9000005    2    3    3    0    0  0.43849583570E+02  0.60650356253E+01  0.26299137140E+02  0.52018561173E+02  0.73969896448E+01 0.  0.
         22    1    3    3    0    0 -0.43849583570E+02 -0.60650356253E+01  0.35815342632E+02  0.56941280318E+02  0.00000000000E+00 0. -1.
         22    1    4    4    0    0  0.11459416772E+01  0.11979844583E+01  0.21626479794E+01  0.27249578663E+01  0.00000000000E+00 0. -1.
         22    1    4    4    0    0  0.42703641893E+02  0.48670511670E+01  0.24136489161E+02  0.49293603307E+02  0.00000000000E+00 0. -1.
<mgrwt>
<rscale>  0 0.89521162E+02</rscale>
<asrwt>0</asrwt>
<pdfrwt beam="1">  1        2 0.13159563E-01 0.89521162E+02</pdfrwt>
<pdfrwt beam="2">  1       -2 0.36034894E-02 0.89521162E+02</pdfrwt>
<totfact> 0.12318238E+05</totfact>
</mgrwt>
</event>
<event>
 7    1  0.3960685E-009  0.8893348E+02  0.7818608E-02  0.1305455E+00
          2   -1    0    0  501    0  0.00000000000E+00  0.00000000000E+00  0.69012833656E+01  0.69012838367E+01  0.25500000000E-02 0. -1.
         -2   -1    0    0    0  501 -0.00000000000E+00 -0.00000000000E+00 -0.28651061983E+03  0.28651061984E+03  0.25500000000E-02 0.  1.
         23    2    1    2    0    0  0.00000000000E+00  0.00000000000E+00 -0.27960933647E+03  0.29341190368E+03  0.88933481782E+02 0.  0.
    9000005    2    3    3    0    0  0.40429745912E+02  0.12024748673E+02 -0.17742423420E+03  0.18286347962E+03  0.13436307721E+02 0.  0.
         22    1    3    3    0    0 -0.40429745912E+02 -0.12024748673E+02 -0.10218510227E+03  0.11054842406E+03  0.00000000000E+00 0. -1.
         22    1    4    4    0    0  0.37147322803E+02  0.65630224338E+01 -0.15700212123E+03  0.16147031593E+03  0.00000000000E+00 0.  1.
         22    1    4    4    0    0  0.32824231087E+01  0.54617262391E+01 -0.20422112961E+02  0.21393163693E+02  0.00000000000E+00 0.  1.
<mgrwt>
<rscale>  0 0.88933482E+02</rscale>
<asrwt>0</asrwt>
<pdfrwt beam="1">  1        2 0.10617362E-02 0.88933482E+02</pdfrwt>
<pdfrwt beam="2">  1       -2 0.44078548E-01 0.88933482E+02</pdfrwt>
<totfact> 0.55777034E+04</totfact>
</mgrwt>
</event>
<event>
 7    1  0.3960685E-009  0.8714363E+02  0.7818608E-02  0.1309920E+00
         -2   -1    0    0    0  501 -0.00000000000E+00  0.00000000000E+00  0.18405861835E+03  0.18405861837E+03  0.25500000000E-02 0.  1.
          2   -1    0    0  501    0  0.00000000000E+00 -0.00000000000E+00 -0.10314665207E+02  0.10314665522E+02  0.25500000000E-02 0. -1.
         23    2    1    2    0    0  0.00000000000E+00 -0.35527136788E-14  0.17374395315E+03  0.19437328389E+03  0.87143629924E+02 0.  0.
    9000005    2    3    3    0    0  0.38807113729E+02 -0.17615410765E+02  0.94041099987E+02  0.10399165095E+03  0.12419348102E+02 0.  0.
         22    1    3    3    0    0 -0.38807113729E+02  0.17615410765E+02  0.79702853159E+02  0.90381632947E+02  0.00000000000E+00 0.  1.
         22    1    4    4    0    0  0.19913970570E+02 -0.94768062911E+01  0.63037309238E+02  0.66783818679E+02  0.00000000000E+00 0. -1.
         22    1    4    4    0    0  0.18893143159E+02 -0.81386044739E+01  0.31003790749E+02  0.37207832267E+02  0.00000000000E+00 0. -1.
<mgrwt>
<rscale>  0 0.87143630E+02</rscale>
<asrwt>0</asrwt>
<pdfrwt beam="2">  1        2 0.15868715E-02 0.87143630E+02</pdfrwt>
<pdfrwt beam="1">  1       -2 0.28316713E-01 0.87143630E+02</pdfrwt>
<totfact> 0.72417468E+04</totfact>
</mgrwt>
</event>
<event>
 7    1  0.3960685E-009  0.9161011E+02  0.7818608E-02  0.1298999E+00
          2   -1    0    0  501    0  0.00000000000E+00  0.00000000000E+00  0.14566629490E+03  0.14566629492E+03  0.25500000000E-02 0. -1.
         -2   -1    0    0    0  501 -0.00000000000E+00 -0.00000000000E+00 -0.14403490754E+02  0.14403490980E+02  0.25500000000E-02 0.  1.
         23    2    1    2    0    0  0.11102230246E-15 -0.35527136788E-14  0.13126280415E+03  0.16006978590E+03  0.91610111922E+02 0.  0.
    9000005    2    3    3    0    0  0.67086552504E+00  0.26363280003E+02  0.10381850264E+01  0.27201715931E+02  0.65865718220E+01 0.  0.
         22    1    3    3    0    0 -0.67086552504E+00 -0.26363280003E+02  0.13022461912E+03  0.13286806997E+03  0.00000000000E+00 0. -1.
         22    1    4    4    0    0  0.20237681684E+01  0.33727650688E+01  0.13814147065E+01  0.41688713580E+01  0.00000000000E+00 0. -1.
         22    1    4    4    0    0 -0.13529026434E+01  0.22990514934E+02 -0.34322968014E+00  0.23032844573E+02  0.00000000000E+00 0. -1.
<mgrwt>
<rscale>  0 0.91610112E+02</rscale>
<asrwt>0</asrwt>
<pdfrwt beam="1">  1        2 0.22410199E-01 0.91610112E+02</pdfrwt>
<pdfrwt beam="2">  1       -2 0.22159217E-02 0.91610112E+02</pdfrwt>
<totfact> 0.13665379E+05</totfact>
</mgrwt>
</event>
<event>
 7    1  0.3960685E-009  0.9179573E+02  0.7818608E-02  0.1298560E+00
         -2   -1    0    0    0  501 -0.00000000000E+00  0.00000000000E+00  0.28774878206E+03  0.28774878207E+03  0.25500000000E-02 0. -1.
          2   -1    0    0  501    0  0.00000000000E+00 -0.00000000000E+00 -0.73210175681E+01  0.73210180122E+01  0.25500000000E-02 0.  1.
         23    2    1    2    0    0  0.00000000000E+00  0.44408920985E-15  0.28042776449E+03  0.29506980008E+03  0.91795728786E+02 0.  0.
    9000005    2    3    3    0    0  0.22822799691E+02  0.38853228242E+01  0.26743585513E+03  0.26852237784E+03  0.68084410010E+01 0.  0.
         22    1    3    3    0    0 -0.22822799691E+02 -0.38853228242E+01  0.12991909358E+02  0.26547422246E+02  0.00000000000E+00 0.  1.
         22    1    4    4    0    0  0.10755881203E+02 -0.13596584357E+01  0.10696765532E+03  0.10751565903E+03  0.00000000000E+00 0. -1.
         22    1    4    4    0    0  0.12066918488E+02  0.52449812599E+01  0.16046819982E+03  0.16100671881E+03  0.00000000000E+00 0. -1.
<mgrwt>
<rscale>  0 0.91795729E+02</rscale>
<asrwt>0</asrwt>
<pdfrwt beam="2">  1        2 0.11263103E-02 0.91795729E+02</pdfrwt>
<pdfrwt beam="1">  1       -2 0.44269047E-01 0.91795729E+02</pdfrwt>
<totfact> 0.51293108E+04</totfact>
</mgrwt>
</event>
<event>
 7    1  0.3960685E-009  0.9258080E+02  0.7818608E-02  0.1296720E+00
         -2   -1    0    0    0  501 -0.00000000000E+00  0.00000000000E+00  0.52275090770E+01  0.52275096990E+01  0.25500000000E-02 0. -1.
          2   -1    0    0  501    0  0.00000000000E+00 -0.00000000000E+00 -0.40990857433E+03  0.40990857434E+03  0.25500000000E-02 0.  1.
         23    2    1    2    0    0  0.00000000000E+00  0.00000000000E+00 -0.40468106525E+03  0.41513608403E+03  0.92580795499E+02 0.  0.
    9000005    2    3    3    0    0  0.37888906532E+02 -0.73497262272E+01 -0.31644458196E+03  0.31882790838E+03  0.49471202043E+01 0.  0.
         22    1    3    3    0    0 -0.37888906532E+02  0.73497262272E+01 -0.88236483291E+02  0.96308175652E+02  0.00000000000E+00 0. -1.
         22    1    4    4    0    0  0.81087454993E+01 -0.23094116342E+01 -0.54607402631E+02  0.55254443783E+02  0.00000000000E+00 0.  1.
         22    1    4    4    0    0  0.29780161033E+02 -0.50403145931E+01 -0.26183717933E+03  0.26357346460E+03  0.00000000000E+00 0.  1.
<mgrwt>
<rscale>  0 0.92580795E+02</rscale>
<asrwt>0</asrwt>
<pdfrwt beam="2">  1        2 0.63062832E-01 0.92580795E+02</pdfrwt>
<pdfrwt beam="1">  1       -2 0.80423254E-03 0.92580795E+02</pdfrwt>
<totfact> 0.19335908E+05</totfact>
</mgrwt>
</event>
<event>
 7    1  0.3960685E-009  0.9282761E+02  0.7818608E-02  0.1296145E+00
         -2   -1    0    0    0  501 -0.00000000000E+00  0.00000000000E+00  0.49869187289E+02  0.49869187355E+02  0.25500000000E-02 0.  1.
          2   -1    0    0  501    0  0.00000000000E+00 -0.00000000000E+00 -0.43197838611E+02  0.43197838687E+02  0.25500000000E-02 0. -1.
         23    2    1    2    0    0  0.00000000000E+00 -0.55511151231E-15  0.66713486780E+01  0.93067026041E+02  0.92827606039E+02 0.  0.
    9000005    2    3    3    0    0 -0.32144845681E+02  0.55916527632E+00  0.35736274673E+02  0.49726817311E+02  0.12730721219E+02 0.  0.
         22    1    3    3    0    0  0.32144845681E+02 -0.55916527632E+00 -0.29064925995E+02  0.43340208730E+02  0.00000000000E+00 0.  1.
         22    1    4    4    0    0 -0.12880289260E+02  0.64863679681E+01  0.15128581709E+02  0.20900928337E+02  0.00000000000E+00 0.  1.
         22    1    4    4    0    0 -0.19264556421E+02 -0.59272026918E+01  0.20607692964E+02  0.28825888974E+02  0.00000000000E+00 0.  1.
<mgrwt>
<rscale>  0 0.92827606E+02</rscale>
<asrwt>0</asrwt>
<pdfrwt beam="2">  1        2 0.66458213E-02 0.92827606E+02</pdfrwt>
<pdfrwt beam="1">  1       -2 0.76721827E-02 0.92827606E+02</pdfrwt>
<totfact> 0.92391346E+04</totfact>
</mgrwt>
</event>
<event>
 7    1  0.3960685E-009  0.9339687E+02  0.7818608E-02  0.1294828E+00
         -2   -1    0    0    0  501 -0.00000000000E+00  0.00000000000E+00  0.10128712435E+03  0.10128712439E+03  0.25500000000E-02 0.  1.
          2   -1    0    0  501    0  0.00000000000E+00 -0.00000000000E+00 -0.21530318098E+02  0.21530318249E+02  0.25500000000E-02 0. -1.
         23    2    1    2    0    0  0.00000000000E+00  0.00000000000E+00  0.79756806256E+02  0.12281744264E+03  0.93396873991E+02 0.  0.
    9000005    2    3    3    0    0  0.21614670003E+02 -0.39824432199E+02  0.46633971658E+02  0.66689895645E+02  0.14820104899E+02 0.  0.
         22    1    3    3    0    0 -0.21614670003E+02  0.39824432199E+02  0.33122834598E+02  0.56127546990E+02  0.00000000000E+00 0. -1.
         22    1    4    4    0    0  0.10926748149E+01 -0.15457773775E+02  0.18993904950E+02  0.24513366427E+02  0.00000000000E+00 0.  1.
         22    1    4    4    0    0  0.20521995188E+02 -0.24366658425E+02  0.27640066708E+02  0.42176529219E+02  0.00000000000E+00 0.  1.
<mgrwt>
<rscale>  0 0.93396874E+02</rscale>
<asrwt>0</asrwt>
<pdfrwt beam="2">  1        2 0.33123567E-02 0.93396874E+02</pdfrwt>
<pdfrwt beam="1">  1       -2 0.15582634E-01 0.93396874E+02</pdfrwt>
<totfact> 0.74875890E+04</totfact>
</mgrwt>
</event>
<event>
 7    1  0.3960685E-009  0.9068226E+02  0.7818608E-02  0.1301208E+00
         -2   -1    0    0    0  501 -0.00000000000E+00  0.00000000000E+00  0.32336667429E+01  0.32336677483E+01  0.25500000000E-02 0. -1.
          2   -1    0    0  501    0  0.00000000000E+00 -0.00000000000E+00 -0.63575437476E+03  0.63575437477E+03  0.25500000000E-02 0.  1.
         23    2    1    2    0    0  0.00000000000E+00  0.17763568394E-14 -0.63252070802E+03  0.63898804252E+03  0.90682260695E+02 0.  0.
    9000005    2    3    3    0    0 -0.94643964727E+01 -0.12567616573E+02 -0.61567083399E+03  0.61593510253E+03  0.88292085458E+01 0.  0.
         22    1    3    3    0    0  0.94643964727E+01  0.12567616573E+02 -0.16849874033E+02  0.23052939983E+02  0.00000000000E+00 0. -1.
         22    1    4    4    0    0 -0.54210196925E+01 -0.33051634591E+01 -0.12588816330E+03  0.12604817023E+03  0.00000000000E+00 0.  1.
         22    1    4    4    0    0 -0.40433767803E+01 -0.92624531144E+01 -0.48978267069E+03  0.48988693231E+03  0.00000000000E+00 0.  1.
<mgrwt>
<rscale>  0 0.90682261E+02</rscale>
<asrwt>0</asrwt>
<pdfrwt beam="2">  1        2 0.97808266E-01 0.90682261E+02</pdfrwt>
<pdfrwt beam="1">  1       -2 0.49748777E-03 0.90682261E+02</pdfrwt>
<totfact> 0.23485086E+05</totfact>
</mgrwt>
</event>
<event>
 7    1  0.3960685E-009  0.9118875E+02  0.7818608E-02  0.1299998E+00
         -2   -1    0    0    0  501 -0.00000000000E+00  0.00000000000E+00  0.91737934255E+02  0.91737934290E+02  0.25500000000E-02 0.  1.
          2   -1    0    0  501    0  0.00000000000E+00 -0.00000000000E+00 -0.22660711653E+02  0.22660711796E+02  0.25500000000E-02 0. -1.
         23    2    1    2    0    0  0.00000000000E+00  0.17763568394E-14  0.69077222602E+02  0.11439864609E+03  0.91188746806E+02 0.  0.
    9000005    2    3    3    0    0 -0.24955126807E+02  0.91119008614E+01  0.80959647135E+02  0.85295775024E+02  0.38884034465E+01 0.  0.
         22    1    3    3    0    0  0.24955126807E+02 -0.91119008614E+01 -0.11882424534E+02  0.29102871062E+02  0.00000000000E+00 0. -1.
         22    1    4    4    0    0 -0.17292628448E+02  0.57153238821E+01  0.60622219383E+02  0.63298921070E+02  0.00000000000E+00 0.  1.
         22    1    4    4    0    0 -0.76624983589E+01  0.33965769793E+01  0.20337427753E+02  0.21996853954E+02  0.00000000000E+00 0.  1.
<mgrwt>
<rscale>  0 0.91188747E+02</rscale>
<asrwt>0</asrwt>
<pdfrwt beam="2">  1        2 0.34862634E-02 0.91188747E+02</pdfrwt>
<pdfrwt beam="1">  1       -2 0.14113528E-01 0.91188747E+02</pdfrwt>
<totfact> 0.81825811E+04</totfact>
</mgrwt>
</event>
<event>
 7    1  0.3960685E-009  0.1245627E+03  0.7818608E-02  0.1235754E+00
         -2   -1    0    0    0  501 -0.00000000000E+00  0.00000000000E+00  0.46906726418E+02  0.46906726487E+02  0.25500000000E-02 0.  1.
          2   -1    0    0  501    0  0.00000000000E+00 -0.00000000000E+00 -0.82695374514E+02  0.82695374553E+02  0.25500000000E-02 0. -1.
         23    2    1    2    0    0 -0.17763568394E-14  0.00000000000E+00 -0.35788648096E+02  0.12960210104E+03  0.12456274428E+03 0.  0.
    9000005    2    3    3    0    0 -0.10897780329E+02 -0.53398873895E+02 -0.48457702225E+02  0.73649386344E+02  0.10289890890E+02 0.  0.
         22    1    3    3    0    0  0.10897780329E+02  0.53398873895E+02  0.12669054129E+02  0.55952714696E+02  0.00000000000E+00 0.  1.
         22    1    4    4    0    0 -0.81846226719E+01 -0.48152323586E+02 -0.39019106951E+02  0.62514998378E+02  0.00000000000E+00 0.  1.
         22    1    4    4    0    0 -0.27131576571E+01 -0.52465503097E+01 -0.94385952739E+01  0.11134387966E+02  0.00000000000E+00 0.  1.
<mgrwt>
<rscale>  0 0.12456274E+03</rscale>
<asrwt>0</asrwt>
<pdfrwt beam="2">  1        2 0.12722365E-01 0.12456274E+03</pdfrwt>
<pdfrwt beam="1">  1       -2 0.72164195E-02 0.12456274E+03</pdfrwt>
<totfact> 0.47619281E+04</totfact>
</mgrwt>
</event>
<event>
 7    1  0.3960685E-009  0.9179942E+02  0.7818608E-02  0.1298552E+00
         -2   -1    0    0    0  501 -0.00000000000E+00  0.00000000000E+00  0.94562461276E+02  0.94562461310E+02  0.25500000000E-02 0.  1.
          2   -1    0    0  501    0  0.00000000000E+00 -0.00000000000E+00 -0.22279277547E+02  0.22279277692E+02  0.25500000000E-02 0. -1.
         23    2    1    2    0    0  0.00000000000E+00  0.00000000000E+00  0.72283183729E+02  0.11684173900E+03  0.91799418969E+02 0.  0.
    9000005    2    3    3    0    0  0.16506822242E+02 -0.36654041479E+02  0.11452146347E+02  0.43928029412E+02  0.13510224824E+02 0.  0.
         22    1    3    3    0    0 -0.16506822242E+02  0.36654041479E+02  0.60831037382E+02  0.72913709591E+02  0.00000000000E+00 0.  1.
         22    1    4    4    0    0 -0.11414857581E+01 -0.17445256573E+01 -0.16674159711E+01  0.26695759075E+01  0.00000000000E+00 0.  1.
         22    1    4    4    0    0  0.17648308000E+02 -0.34909515822E+02  0.13119562318E+02  0.41258453505E+02  0.00000000000E+00 0.  1.
<mgrwt>
<rscale>  0 0.91799419E+02</rscale>
<asrwt>0</asrwt>
<pdfrwt beam="2">  1        2 0.34275811E-02 0.91799419E+02</pdfrwt>
<pdfrwt beam="1">  1       -2 0.14548071E-01 0.91799419E+02</pdfrwt>
<totfact> 0.79774716E+04</totfact>
</mgrwt>
</event>
<event>
 7    1  0.3960685E-009  0.9148719E+02  0.7818608E-02  0.1299290E+00
         -2   -1    0    0    0  501 -0.00000000000E+00  0.00000000000E+00  0.18383749266E+01  0.18383766952E+01  0.25500000000E-02 0.  1.
          2   -1    0    0  501    0  0.00000000000E+00 -0.00000000000E+00 -0.11382201519E+04  0.11382201519E+04  0.25500000000E-02 0. -1.
         23    2    1    2    0    0 -0.35527136788E-14  0.00000000000E+00 -0.11363817770E+04  0.11400585286E+04  0.91487188132E+02 0.  0.
    9000005    2    3    3    0    0 -0.20243848098E+02 -0.25248077334E+02 -0.96702281652E+03  0.96763539708E+03  0.11741176626E+02 0.  0.
         22    1    3    3    0    0  0.20243848098E+02  0.25248077334E+02 -0.16935896050E+03  0.17242313156E+03  0.00000000000E+00 0.  1.
         22    1    4    4    0    0 -0.16922517098E+02 -0.23834152036E+02 -0.92372039868E+03  0.92418278134E+03  0.00000000000E+00 0.  1.
         22    1    4    4    0    0 -0.33213309995E+01 -0.14139252977E+01 -0.43302417839E+02  0.43452615745E+02  0.00000000000E+00 0.  1.
<mgrwt>
<rscale>  0 0.91487188E+02</rscale>
<asrwt>0</asrwt>
<pdfrwt beam="2">  1        2 0.17511023E+00 0.91487188E+02</pdfrwt>
<pdfrwt beam="1">  1       -2 0.28282796E-03 0.91487188E+02</pdfrwt>
<totfact> 0.24757679E+05</totfact>
</mgrwt>
</event>
<event>
 7    1  0.3960685E-009  0.8883811E+02  0.7818608E-02  0.1305690E+00
          2   -1    0    0  501    0  0.00000000000E+00  0.00000000000E+00  0.13090809597E+03  0.13090809599E+03  0.25500000000E-02 0.  1.
         -2   -1    0    0    0  501 -0.00000000000E+00 -0.00000000000E+00 -0.15072043689E+02  0.15072043904E+02  0.25500000000E-02 0. -1.
         23    2    1    2    0    0  0.35527136788E-14  0.00000000000E+00  0.11583605228E+03  0.14598013990E+03  0.88838112523E+02 0.  0.
    9000005    2    3    3    0    0 -0.29064102335E+02 -0.23318017955E+02  0.24183127599E+02  0.47042227000E+02  0.15482101109E+02 0.  0.
         22    1    3    3    0    0  0.29064102335E+02  0.23318017955E+02  0.91652924679E+02  0.98937912896E+02  0.00000000000E+00 0.  1.
         22    1    4    4    0    0 -0.24557756394E+02 -0.24781613017E+02  0.23911787222E+02  0.42296398321E+02  0.00000000000E+00 0. -1.
         22    1    4    4    0    0 -0.45063459414E+01  0.14635950617E+01  0.27134037699E+00  0.47458286788E+01  0.00000000000E+00 0. -1.
<mgrwt>
<rscale>  0 0.88838113E+02</rscale>
<asrwt>0</asrwt>
<pdfrwt beam="1">  1        2 0.20139706E-01 0.88838113E+02</pdfrwt>
<pdfrwt beam="2">  1       -2 0.23187761E-02 0.88838113E+02</pdfrwt>
<totfact> 0.14336582E+05</totfact>
</mgrwt>
</event>
<event>
 7    1  0.3960685E-009  0.9218040E+02  0.7818608E-02  0.1297656E+00
         -2   -1    0    0    0  501 -0.00000000000E+00  0.00000000000E+00  0.43736603164E+01  0.43736610598E+01  0.25500000000E-02 0.  1.
          2   -1    0    0  501    0  0.00000000000E+00 -0.00000000000E+00 -0.48570448291E+03  0.48570448291E+03  0.25500000000E-02 0. -1.
         23    2    1    2    0    0  0.00000000000E+00  0.00000000000E+00 -0.48133082259E+03  0.49007814397E+03  0.92180401522E+02 0.  0.
    9000005    2    3    3    0    0 -0.29548770825E+02  0.32752056081E+02 -0.29859506338E+03  0.30209361075E+03  0.12478411351E+02 0.  0.
         22    1    3    3    0    0  0.29548770825E+02 -0.32752056081E+02 -0.18273575922E+03  0.18798453322E+03  0.00000000000E+00 0.  1.
         22    1    4    4    0    0 -0.15635968984E+02  0.25883942428E+02 -0.20595650929E+03  0.20816470815E+03  0.00000000000E+00 0. -1.
         22    1    4    4    0    0 -0.13912801841E+02  0.68681136531E+01 -0.92638554085E+02  0.93928902598E+02  0.00000000000E+00 0. -1.
<mgrwt>
<rscale>  0 0.92180402E+02</rscale>
<asrwt>0</asrwt>
<pdfrwt beam="2">  1        2 0.74723724E-01 0.92180402E+02</pdfrwt>
<pdfrwt beam="1">  1       -2 0.67287126E-03 0.92180402E+02</pdfrwt>
<totfact> 0.20735438E+05</totfact>
</mgrwt>
</event>
<event>
 7    1  0.3960685E-009  0.9093332E+02  0.7818608E-02  0.1300607E+00
          2   -1    0    0  501    0  0.00000000000E+00  0.00000000000E+00  0.10996103805E+03  0.10996103808E+03  0.25500000000E-02 0. -1.
         -2   -1    0    0    0  501 -0.00000000000E+00 -0.00000000000E+00 -0.18799542353E+02  0.18799542526E+02  0.25500000000E-02 0.  1.
         23    2    1    2    0    0  0.17763568394E-14  0.00000000000E+00  0.91161495698E+02  0.12876058061E+03  0.90933320736E+02 0.  0.
    9000005    2    3    3    0    0  0.15892715337E+02  0.15298809896E+02 -0.76926222461E+01  0.27475001082E+02  0.14459158427E+02 0.  0.
         22    1    3    3    0    0 -0.15892715337E+02 -0.15298809896E+02  0.98854117944E+02  0.10128557952E+03  0.00000000000E+00 0. -1.
         22    1    4    4    0    0 -0.38016620220E-01  0.48110449150E+00 -0.55968576562E+01  0.56176260483E+01  0.00000000000E+00 0.  1.
         22    1    4    4    0    0  0.15930731957E+02  0.14817705405E+02 -0.20957645900E+01  0.21857375034E+02  0.00000000000E+00 0.  1.
<mgrwt>
<rscale>  0 0.90933321E+02</rscale>
<asrwt>0</asrwt>
<pdfrwt beam="1">  1        2 0.16917083E-01 0.90933321E+02</pdfrwt>
<pdfrwt beam="2">  1       -2 0.28922373E-02 0.90933321E+02</pdfrwt>
<totfact> 0.12725399E+05</totfact>
</mgrwt>
</event>
<event>
 7    1  0.3960685E-009  0.9227415E+02  0.7818608E-02  0.1297436E+00
          2   -1    0    0  501    0  0.00000000000E+00  0.00000000000E+00  0.10502365112E+03  0.10502365115E+03  0.25500000000E-02 0. -1.
         -2   -1    0    0    0  501 -0.00000000000E+00 -0.00000000000E+00 -0.20268098257E+02  0.20268098417E+02  0.25500000000E-02 0.  1.
         23    2    1    2    0    0  0.00000000000E+00  0.00000000000E+00  0.84755552862E+02  0.12529174957E+03  0.92274150056E+02 0.  0.
    9000005    2    3    3    0    0  0.16636674568E+02 -0.16169593061E+01  0.10063532891E+03  0.10223614753E+03  0.67354983896E+01 0.  0.
         22    1    3    3    0    0 -0.16636674568E+02  0.16169593061E+01 -0.15879776047E+02  0.23055602039E+02  0.00000000000E+00 0.  1.
         22    1    4    4    0    0  0.11685475365E+02  0.13388727371E+01  0.77796438634E+02  0.78680548923E+02  0.00000000000E+00 0. -1.
         22    1    4    4    0    0  0.49511992029E+01 -0.29558320432E+01  0.22838890275E+02  0.23555598605E+02  0.00000000000E+00 0. -1.
<mgrwt>
<rscale>  0 0.92274150E+02</rscale>
<asrwt>0</asrwt>
<pdfrwt beam="1">  1        2 0.16157485E-01 0.92274150E+02</pdfrwt>
<pdfrwt beam="2">  1       -2 0.31181689E-02 0.92274150E+02</pdfrwt>
<totfact> 0.12049964E+05</totfact>
</mgrwt>
</event>
<event>
 7    1  0.3960685E-009  0.9086827E+02  0.7818608E-02  0.1300763E+00
          2   -1    0    0  501    0  0.00000000000E+00  0.00000000000E+00  0.21216784676E+03  0.21216784677E+03  0.25500000000E-02 0. -1.
         -2   -1    0    0    0  501 -0.00000000000E+00 -0.00000000000E+00 -0.97293749530E+01  0.97293752871E+01  0.25500000000E-02 0.  1.
         23    2    1    2    0    0  0.17763568394E-14  0.71054273576E-14  0.20243847180E+03  0.22189722206E+03  0.90868268891E+02 0.  0.
    9000005    2    3    3    0    0 -0.13364534637E+02 -0.38915284475E+02  0.62560870835E+02  0.76093403849E+02  0.13540066391E+02 0.  0.
         22    1    3    3    0    0  0.13364534637E+02  0.38915284475E+02  0.13987760097E+03  0.14580381821E+03  0.00000000000E+00 0. -1.
         22    1    4    4    0    0 -0.14391212326E+02 -0.39555525853E+02  0.60465005812E+02  0.73673357095E+02  0.00000000000E+00 0. -1.
         22    1    4    4    0    0  0.10266776890E+01  0.64024137818E+00  0.20958650230E+01  0.24200467545E+01  0.00000000000E+00 0. -1.
<mgrwt>
<rscale>  0 0.90868269E+02</rscale>
<asrwt>0</asrwt>
<pdfrwt beam="1">  1        2 0.32641203E-01 0.90868269E+02</pdfrwt>
<pdfrwt beam="2">  1       -2 0.14968272E-02 0.90868269E+02</pdfrwt>
<totfact> 0.15947952E+05</totfact>
</mgrwt>
</event>
<event>
 7    1  0.3960685E-009  0.8820709E+02  0.7818608E-02  0.1307252E+00
          2   -1    0    0  501    0  0.00000000000E+00  0.00000000000E+00  0.54269134594E+03  0.54269134595E+03  0.25500000000E-02 0. -1.
         -2   -1    0    0    0  501 -0.00000000000E+00 -0.00000000000E+00 -0.35842147169E+01  0.35842156240E+01  0.25500000000E-02 0.  1.
         23    2    1    2    0    0  0.00000000000E+00  0.00000000000E+00  0.53910713123E+03  0.54627556157E+03  0.88207087204E+02 0.  0.
    9000005    2    3    3    0    0  0.27106895221E+02  0.32516376081E+02  0.34409971973E+03  0.34672609648E+03  0.47191500780E+01 0.  0.
         22    1    3    3    0    0 -0.27106895221E+02 -0.32516376081E+02  0.19500741149E+03  0.19954946509E+03  0.00000000000E+00 0.  1.
         22    1    4    4    0    0  0.16158107839E+02  0.22808990327E+02  0.22950667876E+03  0.23120261695E+03  0.00000000000E+00 0. -1.
         22    1    4    4    0    0  0.10948787382E+02  0.97073857538E+01  0.11459304098E+03  0.11552347953E+03  0.00000000000E+00 0. -1.
<mgrwt>
<rscale>  0 0.88207087E+02</rscale>
<asrwt>0</asrwt>
<pdfrwt beam="1">  1        2 0.83490989E-01 0.88207087E+02</pdfrwt>
<pdfrwt beam="2">  1       -2 0.55141763E-03 0.88207087E+02</pdfrwt>
<totfact> 0.24135747E+05</totfact>
</mgrwt>
</event>
<event>
 7    1  0.3960685E-009  0.9180548E+02  0.7818608E-02  0.1298537E+00
         -2   -1    0    0    0  501 -0.00000000000E+00  0.00000000000E+00  0.84818812396E+01  0.84818816229E+01  0.25500000000E-02 0. -1.
          2   -1    0    0  501    0  0.00000000000E+00 -0.00000000000E+00 -0.24841911577E+03  0.24841911578E+03  0.25500000000E-02 0.  1.
         23    2    1    2    0    0  0.00000000000E+00  0.00000000000E+00 -0.23993723453E+03  0.25690099741E+03  0.91805478890E+02 0.  0.
    9000005    2    3    3    0    0 -0.33649243255E+02  0.16742447839E+02 -0.19362482172E+03  0.19725688025E+03  0.26690986599E+01 0.  0.
         22    1    3    3    0    0  0.33649243255E+02 -0.16742447839E+02 -0.46312412810E+02  0.59644117158E+02  0.00000000000E+00 0. -1.
         22    1    4    4    0    0 -0.28615101361E+02  0.15207003772E+02 -0.16818233366E+03  0.17127572608E+03  0.00000000000E+00 0.  1.
         22    1    4    4    0    0 -0.50341418940E+01  0.15354440670E+01 -0.25442488064E+02  0.25981154169E+02  0.00000000000E+00 0.  1.
<mgrwt>
<rscale>  0 0.91805479E+02</rscale>
<asrwt>0</asrwt>
<pdfrwt beam="2">  1        2 0.38218320E-01 0.91805479E+02</pdfrwt>
<pdfrwt beam="1">  1       -2 0.13049050E-02 0.91805479E+02</pdfrwt>
<totfact> 0.16440971E+05</totfact>
</mgrwt>
</event>
<event>
 7    1  0.4981855E-009  0.9086918E+02  0.7818608E-02  0.1300760E+00
          2   -1    0    0  501    0  0.00000000000E+00  0.00000000000E+00  0.31530008583E+03  0.31530008584E+03  0.25500000000E-02 0. -1.
         -2   -1    0    0    0  501 -0.00000000000E+00 -0.00000000000E+00 -0.65471018447E+01  0.65471023413E+01  0.25500000000E-02 0.  1.
         23    2    1    2    0    0  0.00000000000E+00  0.00000000000E+00  0.30875298399E+03  0.32184718818E+03  0.90869177506E+02 0.  0.
    9000005    2    3    3    0    0 -0.41932018188E+02  0.11607419293E+02  0.18459896217E+03  0.19029017596E+03  0.15509606716E+02 0.  0.
         22    1    3    3    0    0  0.41932018188E+02 -0.11607419293E+02  0.12415402182E+03  0.13155701222E+03  0.00000000000E+00 0. -1.
         22    1    4    4    0    0 -0.37630897456E+02  0.11857404531E+02  0.13908904478E+03  0.14457677844E+03  0.00000000000E+00 0.  1.
         22    1    4    4    0    0 -0.43011207319E+01 -0.24998523784E+00  0.45509917385E+02  0.45713397518E+02  0.00000000000E+00 0.  1.
<mgrwt>
<rscale>  0 0.90869178E+02</rscale>
<asrwt>0</asrwt>
<pdfrwt beam="1">  1        2 0.48507708E-01 0.90869178E+02</pdfrwt>
<pdfrwt beam="2">  1       -2 0.10072464E-02 0.90869178E+02</pdfrwt>
<totfact> 0.18466937E+05</totfact>
</mgrwt>
</event>
<event>
 7    1  0.3960685E-009  0.9195716E+02  0.7818608E-02  0.1298180E+00
          2   -1    0    0  501    0  0.00000000000E+00  0.00000000000E+00  0.23651759687E+03  0.23651759689E+03  0.25500000000E-02 0. -1.
         -2   -1    0    0    0  501 -0.00000000000E+00 -0.00000000000E+00 -0.89381505373E+01  0.89381509011E+01  0.25500000000E-02 0.  1.
         23    2    1    2    0    0  0.71054273576E-14  0.00000000000E+00  0.22757944634E+03  0.24545574779E+03  0.91957162460E+02 0.  0.
    9000005    2    3    3    0    0 -0.41618688245E+02 -0.95102079944E+01  0.15734999135E+03  0.16326854918E+03  0.86625692830E+01 0.  0.
         22    1    3    3    0    0  0.41618688245E+02  0.95102079944E+01  0.70229454989E+02  0.82187198610E+02  0.00000000000E+00 0.  1.
         22    1    4    4    0    0 -0.26097626133E+02 -0.72019126022E+01  0.83854407833E+02  0.88116487379E+02  0.00000000000E+00 0.  1.
         22    1    4    4    0    0 -0.15521062111E+02 -0.23082953922E+01  0.73495583514E+02  0.75152061799E+02  0.00000000000E+00 0.  1.
<mgrwt>
<rscale>  0 0.91957162E+02</rscale>
<asrwt>0</asrwt>
<pdfrwt beam="1">  1        2 0.36387327E-01 0.91957162E+02</pdfrwt>
<pdfrwt beam="2">  1       -2 0.13751000E-02 0.91957162E+02</pdfrwt>
<totfact> 0.16073816E+05</totfact>
</mgrwt>
</event>
<event>
 7    1  0.3960685E-009  0.8722987E+02  0.7818608E-02  0.1309702E+00
         -2   -1    0    0    0  501 -0.00000000000E+00  0.00000000000E+00  0.16012421728E+02  0.16012421931E+02  0.25500000000E-02 0.  1.
          2   -1    0    0  501    0  0.00000000000E+00 -0.00000000000E+00 -0.11879917521E+03  0.11879917524E+03  0.25500000000E-02 0. -1.
         23    2    1    2    0    0 -0.35527136788E-14 -0.71054273576E-14 -0.10278675349E+03  0.13481159717E+03  0.87229868968E+02 0.  0.
    9000005    2    3    3    0    0 -0.21088677786E+02 -0.37592685765E+02 -0.55897288531E+02  0.71120433912E+02  0.86986723672E+01 0.  0.
         22    1    3    3    0    0  0.21088677786E+02  0.37592685765E+02 -0.46889464956E+02  0.63691163262E+02  0.00000000000E+00 0.  1.
         22    1    4    4    0    0 -0.17510575620E+02 -0.33345711203E+02 -0.52491753824E+02  0.64606044096E+02  0.00000000000E+00 0.  1.
         22    1    4    4    0    0 -0.35781021654E+01 -0.42469745624E+01 -0.34055347066E+01  0.65143898162E+01  0.00000000000E+00 0.  1.
<mgrwt>
<rscale>  0 0.87229869E+02</rscale>
<asrwt>0</asrwt>
<pdfrwt beam="2">  1        2 0.18276796E-01 0.87229869E+02</pdfrwt>
<pdfrwt beam="1">  1       -2 0.24634496E-02 0.87229869E+02</pdfrwt>
<totfact> 0.14603474E+05</totfact>
</mgrwt>
</event>
<event>
 7    1  0.3960685E-009  0.9374114E+02  0.7818608E-02  0.1294037E+00
          2   -1    0    0  501    0  0.00000000000E+00  0.00000000000E+00  0.14527717978E+04  0.14527717978E+04  0.25500000000E-02 0. -1.
         -2   -1    0    0    0  501 -0.00000000000E+00 -0.00000000000E+00 -0.15121774912E+01  0.15121796412E+01  0.25500000000E-02 0.  1.
         23    2    1    2    0    0  0.00000000000E+00  0.00000000000E+00  0.14512596204E+04  0.14542839775E+04  0.93741140968E+02 0.  0.
    9000005    2    3    3    0    0  0.14052000059E+02 -0.18523886041E+02  0.13548447994E+04  0.13551052965E+04  0.12858504083E+02 0.  0.
         22    1    3    3    0    0 -0.14052000059E+02  0.18523886041E+02  0.96414820961E+02  0.99178680979E+02  0.00000000000E+00 0.  1.
         22    1    4    4    0    0  0.59914866483E+01 -0.16215000553E+02  0.73212555094E+03  0.73232960236E+03  0.00000000000E+00 0. -1.
         22    1    4    4    0    0  0.80605134110E+01 -0.23088854879E+01  0.62271924846E+03  0.62277569415E+03  0.00000000000E+00 0. -1.
<mgrwt>
<rscale>  0 0.93741141E+02</rscale>
<asrwt>0</asrwt>
<pdfrwt beam="1">  1        2 0.22350392E+00 0.93741141E+02</pdfrwt>
<pdfrwt beam="2">  1       -2 0.23264227E-03 0.93741141E+02</pdfrwt>
<totfact> 0.22182771E+05</totfact>
</mgrwt>
</event>
<event>
 7    1  0.3960685E-009  0.9192163E+02  0.7818608E-02  0.1298264E+00
         -2   -1    0    0    0  501 -0.00000000000E+00  0.00000000000E+00  0.48505282886E+01  0.48505289589E+01  0.25500000000E-02 0.  1.
          2   -1    0    0  501    0  0.00000000000E+00 -0.00000000000E+00 -0.43549817302E+03  0.43549817303E+03  0.25500000000E-02 0. -1.
         23    2    1    2    0    0 -0.44408920985E-15  0.00000000000E+00 -0.43064764473E+03  0.44034870199E+03  0.91921626555E+02 0.  0.
    9000005    2    3    3    0    0  0.38550966519E+01 -0.36028603740E+02 -0.34724090701E+03  0.34941132818E+03  0.14110517393E+02 0.  0.
         22    1    3    3    0    0 -0.38550966519E+01  0.36028603740E+02 -0.83406737724E+02  0.90937373810E+02  0.00000000000E+00 0.  1.
         22    1    4    4    0    0 -0.28102206118E+01 -0.12640288575E+01 -0.16835611328E+02  0.17115283159E+02  0.00000000000E+00 0. -1.
         22    1    4    4    0    0  0.66653172637E+01 -0.34764574883E+02 -0.33040529568E+03  0.33229604502E+03  0.00000000000E+00 0. -1.
<mgrwt>
<rscale>  0 0.91921627E+02</rscale>
<asrwt>0</asrwt>
<pdfrwt beam="2">  1        2 0.66999688E-01 0.91921627E+02</pdfrwt>
<pdfrwt beam="1">  1       -2 0.74623552E-03 0.91921627E+02</pdfrwt>
<totfact> 0.20130765E+05</totfact>
</mgrwt>
</event>
<event>
 7    1  0.3960685E-009  0.9330462E+02  0.7818608E-02  0.1295041E+00
          2   -1    0    0  501    0  0.00000000000E+00  0.00000000000E+00  0.50139268011E+02  0.50139268075E+02  0.25500000000E-02 0.  1.
         -2   -1    0    0    0  501 -0.00000000000E+00 -0.00000000000E+00 -0.43407854968E+02  0.43407855043E+02  0.25500000000E-02 0. -1.
         23    2    1    2    0    0  0.00000000000E+00  0.00000000000E+00  0.67314130422E+01  0.93547123119E+02  0.93304621119E+02 0.  0.
    9000005    2    3    3    0    0  0.12072915588E+02  0.43887497706E+02  0.35565357904E+01  0.47918759229E+02  0.14549597709E+02 0.  0.
         22    1    3    3    0    0 -0.12072915588E+02 -0.43887497706E+02  0.31748772518E+01  0.45628363890E+02  0.00000000000E+00 0. -1.
         22    1    4    4    0    0  0.10460120965E+02  0.23825675609E+02  0.81643695600E+01  0.27271484725E+02  0.00000000000E+00 0.  1.
         22    1    4    4    0    0  0.16127946228E+01  0.20061822098E+02 -0.46078337696E+01  0.20647274503E+02  0.00000000000E+00 0.  1.
<mgrwt>
<rscale>  0 0.93304621E+02</rscale>
<asrwt>0</asrwt>
<pdfrwt beam="1">  1        2 0.77137335E-02 0.93304621E+02</pdfrwt>
<pdfrwt beam="2">  1       -2 0.66781316E-02 0.93304621E+02</pdfrwt>
<totfact> 0.94690578E+04</totfact>
</mgrwt>
</event>
<event>
 7    1  0.3960685E-009  0.1105841E+03  0.7818608E-02  0.1259492E+00
         -2   -1    0    0    0  501 -0.00000000000E+00  0.00000000000E+00  0.15610843533E+03  0.15610843535E+03  0.25500000000E-02 0.  1.
          2   -1    0    0  501    0  0.00000000000E+00 -0.00000000000E+00 -0.19583909697E+02  0.19583909863E+02  0.25500000000E-02 0. -1.
         23    2    1    2    0    0  0.00000000000E+00  0.00000000000E+00  0.13652452564E+03  0.17569234522E+03  0.11058414926E+03 0.  0.
    9000005    2    3    3    0    0 -0.13229416113E+02  0.32249711409E+02  0.37821485703E+01  0.38449494744E+02  0.15779659744E+02 0.  0.
         22    1    3    3    0    0  0.13229416113E+02 -0.32249711409E+02  0.13274237707E+03  0.13724285047E+03  0.00000000000E+00 0.  1.
         22    1    4    4    0    0 -0.10261992393E+02  0.15751948239E+02 -0.50998079066E+01  0.19479230012E+02  0.00000000000E+00 0. -1.
         22    1    4    4    0    0 -0.29674237204E+01  0.16497763170E+02  0.88819564768E+01  0.18970264732E+02  0.00000000000E+00 0. -1.
<mgrwt>
<rscale>  0 0.11058415E+03</rscale>
<asrwt>0</asrwt>
<pdfrwt beam="2">  1        2 0.30129091E-02 0.11058415E+03</pdfrwt>
<pdfrwt beam="1">  1       -2 0.24016683E-01 0.11058415E+03</pdfrwt>
<totfact> 0.42192998E+04</totfact>
</mgrwt>
</event>
<event>
 7    1  0.3960685E-009  0.9255085E+02  0.7818608E-02  0.1296789E+00
         -2   -1    0    0    0  501 -0.00000000000E+00  0.00000000000E+00  0.30443973821E+01  0.30443984500E+01  0.25500000000E-02 0.  1.
          2   -1    0    0  501    0  0.00000000000E+00 -0.00000000000E+00 -0.70339528542E+03  0.70339528543E+03  0.25500000000E-02 0. -1.
         23    2    1    2    0    0  0.00000000000E+00  0.00000000000E+00 -0.70035088804E+03  0.70643968388E+03  0.92550854007E+02 0.  0.
    9000005    2    3    3    0    0  0.16478284150E+02 -0.32489891612E+02 -0.56707727443E+03  0.56827679816E+03  0.58955274545E+01 0.  0.
         22    1    3    3    0    0 -0.16478284150E+02  0.32489891612E+02 -0.13327361360E+03  0.13816288571E+03  0.00000000000E+00 0.  1.
         22    1    4    4    0    0  0.16615714613E+02 -0.31411236325E+02 -0.53363360135E+03  0.53481545250E+03  0.00000000000E+00 0.  1.
         22    1    4    4    0    0 -0.13743046270E+00 -0.10786552870E+01 -0.33443673085E+02  0.33461345666E+02  0.00000000000E+00 0.  1.
<mgrwt>
<rscale>  0 0.92550854E+02</rscale>
<asrwt>0</asrwt>
<pdfrwt beam="2">  1        2 0.10821453E+00 0.92550854E+02</pdfrwt>
<pdfrwt beam="1">  1       -2 0.46836947E-03 0.92550854E+02</pdfrwt>
<totfact> 0.22821650E+05</totfact>
</mgrwt>
</event>
<event>
 7    1  0.3960685E-009  0.9446921E+02  0.7818608E-02  0.1292376E+00
         -2   -1    0    0    0  501 -0.00000000000E+00  0.00000000000E+00  0.38035477389E+02  0.38035477475E+02  0.25500000000E-02 0.  1.
          2   -1    0    0  501    0  0.00000000000E+00 -0.00000000000E+00 -0.58658595623E+02  0.58658595678E+02  0.25500000000E-02 0. -1.
         23    2    1    2    0    0  0.00000000000E+00  0.00000000000E+00 -0.20623118233E+02  0.96694073153E+02  0.94469205444E+02 0.  0.
    9000005    2    3    3    0    0 -0.16648753881E+02 -0.40896658078E+02 -0.25597089115E+02  0.52259199078E+02  0.11229214997E+02 0.  0.
         22    1    3    3    0    0  0.16648753881E+02  0.40896658078E+02  0.49739708810E+01  0.44434874075E+02  0.00000000000E+00 0. -1.
         22    1    4    4    0    0 -0.14147479074E+02 -0.36432529842E+02 -0.26279727738E+02  0.47096756628E+02  0.00000000000E+00 0.  1.
         22    1    4    4    0    0 -0.25012748073E+01 -0.44641282355E+01  0.68263862374E+00  0.51624424505E+01  0.00000000000E+00 0.  1.
<mgrwt>
<rscale>  0 0.94469205E+02</rscale>
<asrwt>0</asrwt>
<pdfrwt beam="2">  1        2 0.90243993E-02 0.94469205E+02</pdfrwt>
<pdfrwt beam="1">  1       -2 0.58516119E-02 0.94469205E+02</pdfrwt>
<totfact> 0.95339032E+04</totfact>
</mgrwt>
</event>
<event>
 7    1  0.7691057E-009  0.1172804E+03  0.7818608E-02  0.1247652E+00
          2   -1    0    0  501    0  0.00000000000E+00  0.00000000000E+00  0.15068311239E+04  0.15068311239E+04  0.25500000000E-02 0. -1.
         -2   -1    0    0    0  501 -0.00000000000E+00 -0.00000000000E+00 -0.22820552487E+01  0.22820566734E+01  0.25500000000E-02 0.  1.
         23    2    1    2    0    0  0.00000000000E+00  0.17763568394E-14  0.15045490687E+04  0.15091131806E+04  0.11728039822E+03 0.  0.
    9000005    2    3    3    0    0  0.23940825363E+02  0.12391310864E+02  0.14207171909E+04  0.14210535904E+04  0.15141413814E+02 0.  0.
         22    1    3    3    0    0 -0.23940825363E+02 -0.12391310864E+02  0.83831877737E+02  0.88059590216E+02  0.00000000000E+00 0.  1.
         22    1    4    4    0    0  0.36982753827E+01  0.98369050783E+01  0.46924122895E+03  0.46935889561E+03  0.00000000000E+00 0. -1.
         22    1    4    4    0    0  0.20242549980E+02  0.25544057854E+01  0.95147596200E+03  0.95169469479E+03  0.00000000000E+00 0. -1.
<mgrwt>
<rscale>  0 0.11728040E+03</rscale>
<asrwt>0</asrwt>
<pdfrwt beam="1">  1        2 0.23182035E+00 0.11728040E+03</pdfrwt>
<pdfrwt beam="2">  1       -2 0.35108526E-03 0.11728040E+03</pdfrwt>
<totfact> 0.12036105E+05</totfact>
</mgrwt>
</event>
<event>
 7    1  0.3960685E-009  0.9338256E+02  0.7818608E-02  0.1294861E+00
         -2   -1    0    0    0  501 -0.00000000000E+00  0.00000000000E+00  0.24105882761E+02  0.24105882895E+02  0.25500000000E-02 0.  1.
          2   -1    0    0  501    0  0.00000000000E+00 -0.00000000000E+00 -0.90437498691E+02  0.90437498727E+02  0.25500000000E-02 0. -1.
         23    2    1    2    0    0  0.00000000000E+00  0.00000000000E+00 -0.66331615930E+02  0.11454338162E+03  0.93382562620E+02 0.  0.
    9000005    2    3    3    0    0  0.10847680108E+02  0.32451185839E+02 -0.72074776758E+02  0.79848489745E+02  0.32025370678E+01 0.  0.
         22    1    3    3    0    0 -0.10847680108E+02 -0.32451185839E+02  0.57431608279E+01  0.34694891878E+02  0.00000000000E+00 0.  1.
         22    1    4    4    0    0  0.10155248992E+02  0.28991858892E+02 -0.62423703158E+02  0.69572808482E+02  0.00000000000E+00 0.  1.
         22    1    4    4    0    0  0.69243111627E+00  0.34593269469E+01 -0.96510736002E+01  0.10275681263E+02  0.00000000000E+00 0.  1.
<mgrwt>
<rscale>  0 0.93382563E+02</rscale>
<asrwt>0</asrwt>
<pdfrwt beam="2">  1        2 0.13913461E-01 0.93382563E+02</pdfrwt>
<pdfrwt beam="1">  1       -2 0.37085974E-02 0.93382563E+02</pdfrwt>
<totfact> 0.11139816E+05</totfact>
</mgrwt>
</event>
<event>
 7    1  0.3960685E-009  0.9201929E+02  0.7818608E-02  0.1298034E+00
          2   -1    0    0  501    0  0.00000000000E+00  0.00000000000E+00  0.24950541856E+02  0.24950541986E+02  0.25500000000E-02 0. -1.
         -2   -1    0    0    0  501 -0.00000000000E+00 -0.00000000000E+00 -0.84843348795E+02  0.84843348833E+02  0.25500000000E-02 0.  1.
         23    2    1    2    0    0  0.00000000000E+00  0.00000000000E+00 -0.59892806939E+02  0.10979389082E+03  0.92019292207E+02 0.  0.
    9000005    2    3    3    0    0 -0.20492923284E+02  0.20233444585E+02 -0.72323296145E+02  0.78427200743E+02  0.95296624629E+01 0.  0.
         22    1    3    3    0    0  0.20492923284E+02 -0.20233444585E+02  0.12430489206E+02  0.31366690077E+02  0.00000000000E+00 0. -1.
         22    1    4    4    0    0 -0.10022742406E+02  0.75335014906E+01 -0.43108136985E+02  0.44894548493E+02  0.00000000000E+00 0.  1.
         22    1    4    4    0    0 -0.10470180878E+02  0.12699943094E+02 -0.29215159160E+02  0.33532652250E+02  0.00000000000E+00 0.  1.
<mgrwt>
<rscale>  0 0.92019292E+02</rscale>
<asrwt>0</asrwt>
<pdfrwt beam="1">  1        2 0.38385450E-02 0.92019292E+02</pdfrwt>
<pdfrwt beam="2">  1       -2 0.13052823E-01 0.92019292E+02</pdfrwt>
<totfact> 0.81818203E+04</totfact>
</mgrwt>
</event>
<event>
 7    1  0.3960685E-009  0.1271734E+03  0.7818608E-02  0.1231711E+00
         -2   -1    0    0    0  501 -0.00000000000E+00  0.00000000000E+00  0.67569469980E+02  0.67569470028E+02  0.25500000000E-02 0.  1.
          2   -1    0    0  501    0  0.00000000000E+00 -0.00000000000E+00 -0.59838715063E+02  0.59838715118E+02  0.25500000000E-02 0. -1.
         23    2    1    2    0    0  0.00000000000E+00  0.35527136788E-14  0.77307549167E+01  0.12740818515E+03  0.12717342911E+03 0.  0.
    9000005    2    3    3    0    0 -0.52261283489E+02  0.30879464655E+02 -0.13416971440E+02  0.63127477159E+02  0.10967231212E+02 0.  0.
         22    1    3    3    0    0  0.52261283489E+02 -0.30879464655E+02  0.21147726356E+02  0.64280707988E+02  0.00000000000E+00 0.  1.
         22    1    4    4    0    0 -0.33920254988E+01  0.58888695937E+01 -0.13722615558E+01  0.69330890557E+01  0.00000000000E+00 0.  1.
         22    1    4    4    0    0 -0.48869257991E+02  0.24990595061E+02 -0.12044709884E+02  0.56194388103E+02  0.00000000000E+00 0.  1.
<mgrwt>
<rscale>  0 0.12717343E+03</rscale>
<asrwt>0</asrwt>
<pdfrwt beam="2">  1        2 0.92059562E-02 0.12717343E+03</pdfrwt>
<pdfrwt beam="1">  1       -2 0.10395303E-01 0.12717343E+03</pdfrwt>
<totfact> 0.40135588E+04</totfact>
</mgrwt>
</event>
<event>
 7    1  0.3960685E-009  0.9099032E+02  0.7818608E-02  0.1300471E+00
         -2   -1    0    0    0  501 -0.00000000000E+00  0.00000000000E+00  0.11156878827E+03  0.11156878830E+03  0.25500000000E-02 0.  1.
          2   -1    0    0  501    0  0.00000000000E+00 -0.00000000000E+00 -0.18551868350E+02  0.18551868525E+02  0.25500000000E-02 0. -1.
         23    2    1    2    0    0 -0.88817841970E-15  0.17763568394E-14  0.93016919924E+02  0.13012065683E+03  0.90990317843E+02 0.  0.
    9000005    2    3    3    0    0  0.77177831606E+01 -0.12783498321E+02  0.10778324189E+03  0.10912003135E+03  0.81836423786E+01 0.  0.
         22    1    3    3    0    0 -0.77177831606E+01  0.12783498321E+02 -0.14766321965E+02  0.21000625482E+02  0.00000000000E+00 0. -1.
         22    1    4    4    0    0  0.18159437692E+01 -0.87540245639E+01  0.77046606254E+02  0.77563587675E+02  0.00000000000E+00 0. -1.
         22    1    4    4    0    0  0.59018393914E+01 -0.40294737570E+01  0.30736635635E+02  0.31556443671E+02  0.00000000000E+00 0. -1.
<mgrwt>
<rscale>  0 0.90990318E+02</rscale>
<asrwt>0</asrwt>
<pdfrwt beam="2">  1        2 0.28541336E-02 0.90990318E+02</pdfrwt>
<pdfrwt beam="1">  1       -2 0.17164429E-01 0.90990318E+02</pdfrwt>
<totfact> 0.77580255E+04</totfact>
</mgrwt>
</event>
<event>
 7    1  0.3960685E-009  0.9285105E+02  0.7818608E-02  0.1296091E+00
          2   -1    0    0  501    0  0.00000000000E+00  0.00000000000E+00  0.27823516324E+02  0.27823516441E+02  0.25500000000E-02 0. -1.
         -2   -1    0    0    0  501 -0.00000000000E+00 -0.00000000000E+00 -0.77464312788E+02  0.77464312830E+02  0.25500000000E-02 0.  1.
         23    2    1    2    0    0  0.88817841970E-15  0.00000000000E+00 -0.49640796463E+02  0.10528782927E+03  0.92851054486E+02 0.  0.
    9000005    2    3    3    0    0  0.79044160643E+01  0.13243022082E+02  0.22521477701E+02  0.31495883642E+02  0.15713570611E+02 0.  0.
         22    1    3    3    0    0 -0.79044160643E+01 -0.13243022082E+02 -0.72162274165E+02  0.73791945629E+02  0.00000000000E+00 0.  1.
         22    1    4    4    0    0  0.56646456247E+01  0.16841944550E+02  0.17811555597E+02  0.25159308796E+02  0.00000000000E+00 0. -1.
         22    1    4    4    0    0  0.22397704396E+01 -0.35989224684E+01  0.47099221037E+01  0.63365748460E+01  0.00000000000E+00 0. -1.
<mgrwt>
<rscale>  0 0.92851054E+02</rscale>
<asrwt>0</asrwt>
<pdfrwt beam="1">  1        2 0.42805410E-02 0.92851054E+02</pdfrwt>
<pdfrwt beam="2">  1       -2 0.11917587E-01 0.92851054E+02</pdfrwt>
<totfact> 0.82088019E+04</totfact>
</mgrwt>
</event>
<event>
 7    1  0.3960685E-009  0.9207203E+02  0.7818608E-02  0.1297910E+00
          2   -1    0    0  501    0  0.00000000000E+00  0.00000000000E+00  0.52107559836E+03  0.52107559836E+03  0.25500000000E-02 0. -1.
         -2   -1    0    0    0  501 -0.00000000000E+00 -0.00000000000E+00 -0.40671916913E+01  0.40671924907E+01  0.25500000000E-02 0.  1.
         23    2    1    2    0    0  0.71054273576E-14  0.17763568394E-14  0.51700840666E+03  0.52514279085E+03  0.92072027364E+02 0.  0.
    9000005    2    3    3    0    0  0.42709433666E+02  0.14309877732E+02  0.30869213462E+03  0.31201246095E+03  0.56633460778E+01 0.  0.
         22    1    3    3    0    0 -0.42709433666E+02 -0.14309877732E+02  0.20831627204E+03  0.21313032990E+03  0.00000000000E+00 0.  1.
         22    1    4    4    0    0  0.35567153346E+02  0.11128919834E+02  0.23990037939E+03  0.24277781465E+03  0.00000000000E+00 0. -1.
         22    1    4    4    0    0  0.71422803191E+01  0.31809578985E+01  0.68791755229E+02  0.69234646304E+02  0.00000000000E+00 0. -1.
<mgrwt>
<rscale>  0 0.92072027E+02</rscale>
<asrwt>0</asrwt>
<pdfrwt beam="1">  1        2 0.80165477E-01 0.92072027E+02</pdfrwt>
<pdfrwt beam="2">  1       -2 0.62572186E-03 0.92072027E+02</pdfrwt>
<totfact> 0.21279468E+05</totfact>
</mgrwt>
</event>
<event>
 7    1  0.3960685E-009  0.9807976E+02  0.7818608E-02  0.1284387E+00
          2   -1    0    0  501    0  0.00000000000E+00  0.00000000000E+00  0.18712841397E+04  0.18712841397E+04  0.25500000000E-02 0. -1.
         -2   -1    0    0    0  501 -0.00000000000E+00 -0.00000000000E+00 -0.12851641787E+01  0.12851667085E+01  0.25500000000E-02 0.  1.
         23    2    1    2    0    0 -0.17763568394E-14  0.00000000000E+00  0.18699989756E+04  0.18725693064E+04  0.98079757643E+02 0.  0.
    9000005    2    3    3    0    0  0.15969804586E+02  0.19750608841E+02  0.17327031382E+04  0.17329438497E+04  0.13751362669E+02 0.  0.
         22    1    3    3    0    0 -0.15969804586E+02 -0.19750608841E+02  0.13729583737E+03  0.13962545673E+03  0.00000000000E+00 0.  1.
         22    1    4    4    0    0  0.17879176584E+02  0.15974477066E+02  0.13087806736E+04  0.13090002676E+04  0.00000000000E+00 0.  1.
         22    1    4    4    0    0 -0.19093719984E+01  0.37761317746E+01  0.42392246458E+03  0.42394358216E+03  0.00000000000E+00 0.  1.
<mgrwt>
<rscale>  0 0.98079758E+02</rscale>
<asrwt>0</asrwt>
<pdfrwt beam="1">  1        2 0.28789029E+00 0.98079758E+02</pdfrwt>
<pdfrwt beam="2">  1       -2 0.19771747E-03 0.98079758E+02</pdfrwt>
<totfact> 0.17168467E+05</totfact>
</mgrwt>
</event>
<event>
 7    1  0.3960685E-009  0.8797732E+02  0.7818608E-02  0.1307825E+00
          2   -1    0    0  501    0  0.00000000000E+00  0.00000000000E+00  0.15618105989E+03  0.15618105991E+03  0.25500000000E-02 0. -1.
         -2   -1    0    0    0  501 -0.00000000000E+00 -0.00000000000E+00 -0.12389480163E+02  0.12389480426E+02  0.25500000000E-02 0.  1.
         23    2    1    2    0    0 -0.71054273576E-14  0.17763568394E-14  0.14379157973E+03  0.16857054034E+03  0.87977319061E+02 0.  0.
    9000005    2    3    3    0    0 -0.39669985725E+02  0.15702980434E+02  0.54409502880E+02  0.69527887790E+02  0.73103908916E+01 0.  0.
         22    1    3    3    0    0  0.39669985725E+02 -0.15702980434E+02  0.89382076850E+02  0.99042652549E+02  0.00000000000E+00 0. -1.
         22    1    4    4    0    0 -0.28567049567E+02  0.76845862446E+01  0.36548745225E+02  0.47020633389E+02  0.00000000000E+00 0.  1.
         22    1    4    4    0    0 -0.11102936158E+02  0.80183941892E+01  0.17860757655E+02  0.22507254402E+02  0.00000000000E+00 0.  1.
<mgrwt>
<rscale>  0 0.87977319E+02</rscale>
<asrwt>0</asrwt>
<pdfrwt beam="1">  1        2 0.24027856E-01 0.87977319E+02</pdfrwt>
<pdfrwt beam="2">  1       -2 0.19060738E-02 0.87977319E+02</pdfrwt>
<totfact> 0.15611964E+05</totfact>
</mgrwt>
</event>
<event>
 7    1  0.3960685E-009  0.8869753E+02  0.7818608E-02  0.1306037E+00
          2   -1    0    0  501    0  0.00000000000E+00  0.00000000000E+00  0.34780457335E+03  0.34780457335E+03  0.25500000000E-02 0.  1.
         -2   -1    0    0    0  501 -0.00000000000E+00 -0.00000000000E+00 -0.56549366955E+01  0.56549372704E+01  0.25500000000E-02 0. -1.
         23    2    1    2    0    0  0.00000000000E+00  0.00000000000E+00  0.34214963665E+03  0.35345951062E+03  0.88697529795E+02 0.  0.
    9000005    2    3    3    0    0 -0.24836423248E+02  0.71415865589E+01  0.31376052179E+03  0.31506951165E+03  0.12461218380E+02 0.  0.
         22    1    3    3    0    0  0.24836423248E+02 -0.71415865589E+01  0.28389114863E+02  0.38389998971E+02  0.00000000000E+00 0. -1.
         22    1    4    4    0    0 -0.81799473801E+01 -0.30051074493E+01  0.72482962516E+02  0.73004945483E+02  0.00000000000E+00 0.  1.
         22    1    4    4    0    0 -0.16656475867E+02  0.10146694008E+02  0.24127755927E+03  0.24206456617E+03  0.00000000000E+00 0.  1.
<mgrwt>
<rscale>  0 0.88697530E+02</rscale>
<asrwt>0</asrwt>
<pdfrwt beam="1">  1        2 0.53508390E-01 0.88697530E+02</pdfrwt>
<pdfrwt beam="2">  1       -2 0.86999041E-03 0.88697530E+02</pdfrwt>
<totfact> 0.20417250E+05</totfact>
</mgrwt>
</event>
<event>
 7    1  0.3960685E-009  0.9332493E+02  0.7818608E-02  0.1294994E+00
         -2   -1    0    0    0  501 -0.00000000000E+00  0.00000000000E+00  0.14162731352E+02  0.14162731581E+02  0.25500000000E-02 0. -1.
          2   -1    0    0  501    0  0.00000000000E+00 -0.00000000000E+00 -0.15374050269E+03  0.15374050271E+03  0.25500000000E-02 0.  1.
         23    2    1    2    0    0  0.71054273576E-14  0.00000000000E+00 -0.13957777134E+03  0.16790323429E+03  0.93324926113E+02 0.  0.
    9000005    2    3    3    0    0  0.42089671415E+02  0.13749708062E+02 -0.44926277890E+02  0.63406822280E+02  0.64389249826E+01 0.  0.
         22    1    3    3    0    0 -0.42089671415E+02 -0.13749708062E+02 -0.94651493445E+02  0.10449641201E+03  0.00000000000E+00 0. -1.
         22    1    4    4    0    0  0.39563284451E+02  0.13459441663E+02 -0.39925903644E+02  0.57796953451E+02  0.00000000000E+00 0.  1.
         22    1    4    4    0    0  0.25263869643E+01  0.29026639930E+00 -0.50003742463E+01  0.56098688290E+01  0.00000000000E+00 0.  1.
<mgrwt>
<rscale>  0 0.93324926E+02</rscale>
<asrwt>0</asrwt>
<pdfrwt beam="2">  1        2 0.23652384E-01 0.93324926E+02</pdfrwt>
<pdfrwt beam="1">  1       -2 0.21788819E-02 0.93324926E+02</pdfrwt>
<totfact> 0.13234108E+05</totfact>
</mgrwt>
</event>
<event>
 7    1  0.3960685E-009  0.9334299E+02  0.7818608E-02  0.1294952E+00
         -2   -1    0    0    0  501 -0.00000000000E+00  0.00000000000E+00  0.24276434558E+03  0.24276434559E+03  0.25500000000E-02 0.  1.
          2   -1    0    0  501    0  0.00000000000E+00 -0.00000000000E+00 -0.89726037935E+01  0.89726041558E+01  0.25500000000E-02 0. -1.
         23    2    1    2    0    0  0.00000000000E+00 -0.35527136788E-14  0.23379174179E+03  0.25173694975E+03  0.93342987639E+02 0.  0.
    9000005    2    3    3    0    0 -0.88745423892E+01  0.19205013541E+02  0.22842108235E+03  0.22990958091E+03  0.15317783247E+02 0.  0.
         22    1    3    3    0    0  0.88745423892E+01 -0.19205013541E+02  0.53706594355E+01  0.21827368840E+02  0.00000000000E+00 0. -1.
         22    1    4    4    0    0 -0.70343653998E+01  0.19557435908E+01  0.10786613945E+03  0.10811295607E+03  0.00000000000E+00 0.  1.
         22    1    4    4    0    0 -0.18401769893E+01  0.17249269950E+02  0.12055494290E+03  0.12179662484E+03  0.00000000000E+00 0.  1.
<mgrwt>
<rscale>  0 0.93342988E+02</rscale>
<asrwt>0</asrwt>
<pdfrwt beam="2">  1        2 0.13804007E-02 0.93342988E+02</pdfrwt>
<pdfrwt beam="1">  1       -2 0.37348358E-01 0.93342988E+02</pdfrwt>
<totfact> 0.53663266E+04</totfact>
</mgrwt>
</event>
<event>
 7    1  0.3960685E-009  0.9151932E+02  0.7818608E-02  0.1299214E+00
         -2   -1    0    0    0  501 -0.00000000000E+00  0.00000000000E+00  0.29736678735E+02  0.29736678845E+02  0.25500000000E-02 0.  1.
          2   -1    0    0  501    0  0.00000000000E+00 -0.00000000000E+00 -0.70416287033E+02  0.70416287079E+02  0.25500000000E-02 0. -1.
         23    2    1    2    0    0  0.00000000000E+00  0.00000000000E+00 -0.40679608297E+02  0.10015296592E+03  0.91519320649E+02 0.  0.
    9000005    2    3    3    0    0 -0.32116305133E+02  0.28598936399E+02 -0.79787474547E+01  0.46127948400E+02  0.14655067183E+02 0.  0.
         22    1    3    3    0    0  0.32116305133E+02 -0.28598936399E+02 -0.32700860843E+02  0.54025017523E+02  0.00000000000E+00 0. -1.
         22    1    4    4    0    0 -0.21389250261E+02  0.25124387510E+02 -0.10398070869E+02  0.34595588625E+02  0.00000000000E+00 0. -1.
         22    1    4    4    0    0 -0.10727054872E+02  0.34745488884E+01  0.24193234147E+01  0.11532359775E+02  0.00000000000E+00 0. -1.
<mgrwt>
<rscale>  0 0.91519321E+02</rscale>
<asrwt>0</asrwt>
<pdfrwt beam="2">  1        2 0.10833275E-01 0.91519321E+02</pdfrwt>
<pdfrwt beam="1">  1       -2 0.45748737E-02 0.91519321E+02</pdfrwt>
<totfact> 0.10964422E+05</totfact>
</mgrwt>
</event>
<event>
 7    1  0.3960685E-009  0.9002360E+02  0.7818608E-02  0.1302795E+00
          2   -1    0    0  501    0  0.00000000000E+00  0.00000000000E+00  0.69492233639E+03  0.69492233639E+03  0.25500000000E-02 0. -1.
         -2   -1    0    0    0  501 -0.00000000000E+00 -0.00000000000E+00 -0.29155223555E+01  0.29155234707E+01  0.25500000000E-02 0.  1.
         23    2    1    2    0    0 -0.17763568394E-14  0.00000000000E+00  0.69200681403E+03  0.69783785986E+03  0.90023596858E+02 0.  0.
    9000005    2    3    3    0    0 -0.11705973462E+02  0.16414233345E+02  0.65692099481E+03  0.65737217586E+03  0.13657500070E+02 0.  0.
         22    1    3    3    0    0  0.11705973462E+02 -0.16414233345E+02  0.35085819226E+02  0.40465684002E+02  0.00000000000E+00 0.  1.
         22    1    4    4    0    0  0.13285305092E+01 -0.15779094818E+01  0.43312991074E+02  0.43362080063E+02  0.00000000000E+00 0. -1.
         22    1    4    4    0    0 -0.13034503971E+02  0.17992142827E+02  0.61360800373E+03  0.61401009580E+03  0.00000000000E+00 0. -1.
<mgrwt>
<rscale>  0 0.90023597E+02</rscale>
<asrwt>0</asrwt>
<pdfrwt beam="1">  1        2 0.10691122E+00 0.90023597E+02</pdfrwt>
<pdfrwt beam="2">  1       -2 0.44854161E-03 0.90023597E+02</pdfrwt>
<totfact> 0.24481628E+05</totfact>
</mgrwt>
</event>
<event>
 7    1  0.3960685E-009  0.9102885E+02  0.7818608E-02  0.1300379E+00
         -2   -1    0    0    0  501 -0.00000000000E+00  0.00000000000E+00  0.23626770381E+02  0.23626770519E+02  0.25500000000E-02 0.  1.
          2   -1    0    0  501    0  0.00000000000E+00 -0.00000000000E+00 -0.87678640181E+02  0.87678640218E+02  0.25500000000E-02 0. -1.
         23    2    1    2    0    0  0.00000000000E+00  0.00000000000E+00 -0.64051869799E+02  0.11130541074E+03  0.91028854955E+02 0.  0.
    9000005    2    3    3    0    0  0.11622376306E+02  0.42995287090E+02 -0.42246175271E+02  0.61715465618E+02  0.63549215962E+01 0.  0.
         22    1    3    3    0    0 -0.11622376306E+02 -0.42995287090E+02 -0.21805694528E+02  0.49589945118E+02  0.00000000000E+00 0. -1.
         22    1    4    4    0    0 -0.76795116918E+00  0.22028647547E+01 -0.17638116756E+01  0.29246185653E+01  0.00000000000E+00 0.  1.
         22    1    4    4    0    0  0.12390327475E+02  0.40792422335E+02 -0.40482363596E+02  0.58790847053E+02  0.00000000000E+00 0.  1.
<mgrwt>
<rscale>  0 0.91028855E+02</rscale>
<asrwt>0</asrwt>
<pdfrwt beam="2">  1        2 0.13489021E-01 0.91028855E+02</pdfrwt>
<pdfrwt beam="1">  1       -2 0.36348878E-02 0.91028855E+02</pdfrwt>
<totfact> 0.11847869E+05</totfact>
</mgrwt>
</event>
<event>
 7    1  0.3960685E-009  0.9170398E+02  0.7818608E-02  0.1298777E+00
         -2   -1    0    0    0  501 -0.00000000000E+00  0.00000000000E+00  0.17215567069E+02  0.17215567258E+02  0.25500000000E-02 0.  1.
          2   -1    0    0  501    0  0.00000000000E+00 -0.00000000000E+00 -0.12212231079E+03  0.12212231082E+03  0.25500000000E-02 0. -1.
         23    2    1    2    0    0  0.00000000000E+00  0.00000000000E+00 -0.10490674372E+03  0.13933787808E+03  0.91703976950E+02 0.  0.
    9000005    2    3    3    0    0  0.18382754999E+02 -0.12117078233E+02 -0.11344805884E+03  0.11572213481E+03  0.60333376020E+01 0.  0.
         22    1    3    3    0    0 -0.18382754999E+02  0.12117078233E+02  0.85413151194E+01  0.23615743271E+02  0.00000000000E+00 0.  1.
         22    1    4    4    0    0  0.14597795318E+02 -0.65678933181E+01 -0.74654750612E+02  0.76351585705E+02  0.00000000000E+00 0. -1.
         22    1    4    4    0    0  0.37849596818E+01 -0.55491849149E+01 -0.38793308231E+02  0.39370549101E+02  0.00000000000E+00 0. -1.
<mgrwt>
<rscale>  0 0.91703977E+02</rscale>
<asrwt>0</asrwt>
<pdfrwt beam="2">  1        2 0.18788047E-01 0.91703977E+02</pdfrwt>
<pdfrwt beam="1">  1       -2 0.26485489E-02 0.91703977E+02</pdfrwt>
<totfact> 0.12855372E+05</totfact>
</mgrwt>
</event>
<event>
 7    1  0.3960685E-009  0.9144471E+02  0.7818608E-02  0.1299390E+00
          2   -1    0    0  501    0  0.00000000000E+00  0.00000000000E+00  0.52765611763E+02  0.52765611825E+02  0.25500000000E-02 0. -1.
         -2   -1    0    0    0  501 -0.00000000000E+00 -0.00000000000E+00 -0.39619249855E+02  0.39619249937E+02  0.25500000000E-02 0.  1.
         23    2    1    2    0    0  0.00000000000E+00  0.00000000000E+00  0.13146361908E+02  0.92384861762E+02  0.91444714726E+02 0.  0.
    9000005    2    3    3    0    0 -0.16756628004E+02 -0.36379367700E+02 -0.12921192756E+02  0.44596156167E+02  0.14751845523E+02 0.  0.
         22    1    3    3    0    0  0.16756628004E+02  0.36379367700E+02  0.26067554664E+02  0.47788705595E+02  0.00000000000E+00 0. -1.
         22    1    4    4    0    0 -0.65580957134E+01 -0.23882807726E+02 -0.14617072542E+01  0.24809951882E+02  0.00000000000E+00 0.  1.
         22    1    4    4    0    0 -0.10198532291E+02 -0.12496559974E+02 -0.11459485502E+02  0.19786204285E+02  0.00000000000E+00 0.  1.
<mgrwt>
<rscale>  0 0.91444715E+02</rscale>
<asrwt>0</asrwt>
<pdfrwt beam="1">  1        2 0.81177864E-02 0.91444715E+02</pdfrwt>
<pdfrwt beam="2">  1       -2 0.60952693E-02 0.91444715E+02</pdfrwt>
<totfact> 0.10166178E+05</totfact>
</mgrwt>
</event>
<event>
 7    1  0.3960685E-009  0.9317010E+02  0.7818608E-02  0.1295351E+00
         -2   -1    0    0    0  501 -0.00000000000E+00  0.00000000000E+00  0.48569053382E+03  0.48569053383E+03  0.25500000000E-02 0.  1.
          2   -1    0    0  501    0  0.00000000000E+00 -0.00000000000E+00 -0.44682090519E+01  0.44682097796E+01  0.25500000000E-02 0. -1.
         23    2    1    2    0    0  0.00000000000E+00 -0.35527136788E-14  0.48122232477E+03  0.49015874361E+03  0.93170102922E+02 0.  0.
    9000005    2    3    3    0    0 -0.28270720780E+02 -0.27130604274E+02  0.36785330769E+03  0.37020943192E+03  0.14271095252E+02 0.  0.
         22    1    3    3    0    0  0.28270720780E+02  0.27130604274E+02  0.11336901708E+03  0.11994931169E+03  0.00000000000E+00 0. -1.
         22    1    4    4    0    0 -0.55068037518E+01 -0.11193994460E+02  0.73896089343E+02  0.74941726826E+02  0.00000000000E+00 0.  1.
         22    1    4    4    0    0 -0.22763917028E+02 -0.15936609814E+02  0.29395721835E+03  0.29526770509E+03  0.00000000000E+00 0.  1.
<mgrwt>
<rscale>  0 0.93170103E+02</rscale>
<asrwt>0</asrwt>
<pdfrwt beam="2">  1        2 0.68741663E-03 0.93170103E+02</pdfrwt>
<pdfrwt beam="1">  1       -2 0.74721642E-01 0.93170103E+02</pdfrwt>
<totfact> 0.35102039E+04</totfact>
</mgrwt>
</event>
<event>
 7    1  0.3960685E-009  0.8634356E+02  0.7818608E-02  0.1311956E+00
          2   -1    0    0  501    0  0.00000000000E+00  0.00000000000E+00  0.26720857615E+03  0.26720857616E+03  0.25500000000E-02 0. -1.
         -2   -1    0    0    0  501 -0.00000000000E+00 -0.00000000000E+00 -0.69750849801E+01  0.69750854462E+01  0.25500000000E-02 0.  1.
         23    2    1    2    0    0  0.71054273576E-14  0.17763568394E-14  0.26023349117E+03  0.27418366161E+03  0.86343560076E+02 0.  0.
    9000005    2    3    3    0    0  0.34162221931E+02  0.12989531273E+02  0.61043254505E+02  0.71668141925E+02  0.86173265284E+01 0.  0.
         22    1    3    3    0    0 -0.34162221931E+02 -0.12989531273E+02  0.19919023667E+03  0.20251551968E+03  0.00000000000E+00 0. -1.
         22    1    4    4    0    0  0.11776156376E+01 -0.10828118069E+01  0.37533969100E+01  0.40801039647E+01  0.00000000000E+00 0.  1.
         22    1    4    4    0    0  0.32984606293E+02  0.14072343080E+02  0.57289857595E+02  0.67588037960E+02  0.00000000000E+00 0.  1.
<mgrwt>
<rscale>  0 0.86343560E+02</rscale>
<asrwt>0</asrwt>
<pdfrwt beam="1">  1        2 0.41109007E-01 0.86343560E+02</pdfrwt>
<pdfrwt beam="2">  1       -2 0.10730902E-02 0.86343560E+02</pdfrwt>
<totfact> 0.19894409E+05</totfact>
</mgrwt>
</event>
<event>
 7    1  0.3960685E-009  0.9083984E+02  0.7818608E-02  0.1300831E+00
         -2   -1    0    0    0  501 -0.00000000000E+00  0.00000000000E+00  0.10751193140E+01  0.10751223381E+01  0.25500000000E-02 0.  1.
          2   -1    0    0  501    0  0.00000000000E+00 -0.00000000000E+00 -0.19188254211E+04  0.19188254211E+04  0.25500000000E-02 0. -1.
         23    2    1    2    0    0  0.00000000000E+00  0.00000000000E+00 -0.19177503018E+04  0.19199005434E+04  0.90839840929E+02 0.  0.
    9000005    2    3    3    0    0 -0.84889940771E+01 -0.17581618387E+02 -0.18254268772E+04  0.18255353430E+04  0.38507453032E+01 0.  0.
         22    1    3    3    0    0  0.84889940771E+01  0.17581618387E+02 -0.92323424636E+02  0.94365200482E+02  0.00000000000E+00 0.  1.
         22    1    4    4    0    0 -0.73744149436E+01 -0.15571474916E+02 -0.14685987495E+04  0.14686998127E+04  0.00000000000E+00 0. -1.
         22    1    4    4    0    0 -0.11145791335E+01 -0.20101434716E+01 -0.35682812766E+03  0.35683553026E+03  0.00000000000E+00 0. -1.
<mgrwt>
<rscale>  0 0.90839841E+02</rscale>
<asrwt>0</asrwt>
<pdfrwt beam="2">  1        2 0.29520117E+00 0.90839841E+02</pdfrwt>
<pdfrwt beam="1">  1       -2 0.16540474E-03 0.90839841E+02</pdfrwt>
<totfact> 0.20614335E+05</totfact>
</mgrwt>
</event>
<event>
 7    1  0.3960685E-009  0.9095033E+02  0.7818608E-02  0.1300567E+00
          2   -1    0    0  501    0  0.00000000000E+00  0.00000000000E+00  0.31340089307E+01  0.31340099681E+01  0.25500000000E-02 0. -1.
         -2   -1    0    0    0  501 -0.00000000000E+00 -0.00000000000E+00 -0.65985462178E+03  0.65985462178E+03  0.25500000000E-02 0.  1.
         23    2    1    2    0    0  0.00000000000E+00  0.00000000000E+00 -0.65672061285E+03  0.66298863175E+03  0.90950329810E+02 0.  0.
    9000005    2    3    3    0    0 -0.10163495696E+02  0.40131279036E+01 -0.64992953024E+03  0.65012314912E+03  0.11502734534E+02 0.  0.
         22    1    3    3    0    0  0.10163495696E+02 -0.40131279036E+01 -0.67910826031E+01  0.12865482628E+02  0.00000000000E+00 0. -1.
         22    1    4    4    0    0 -0.10331349932E+02  0.56069198741E+01 -0.36523693249E+03  0.36542604066E+03  0.00000000000E+00 0.  1.
         22    1    4    4    0    0  0.16785423652E+00 -0.15937919705E+01 -0.28469259775E+03  0.28469710846E+03  0.00000000000E+00 0.  1.
<mgrwt>
<rscale>  0 0.90950330E+02</rscale>
<asrwt>0</asrwt>
<pdfrwt beam="1">  1        2 0.48215583E-03 0.90950330E+02</pdfrwt>
<pdfrwt beam="2">  1       -2 0.10151599E+00 0.90950330E+02</pdfrwt>
<totfact> 0.28911578E+04</totfact>
</mgrwt>
</event>
<event>
 7    1  0.3960685E-009  0.9032042E+02  0.7818608E-02  0.1302078E+00
          2   -1    0    0  501    0  0.00000000000E+00  0.00000000000E+00  0.70408606289E+02  0.70408606335E+02  0.25500000000E-02 0. -1.
         -2   -1    0    0    0  501 -0.00000000000E+00 -0.00000000000E+00 -0.28965842087E+02  0.28965842199E+02  0.25500000000E-02 0.  1.
         23    2    1    2    0    0  0.00000000000E+00  0.00000000000E+00  0.41442764203E+02  0.99374448534E+02  0.90320420264E+02 0.  0.
    9000005    2    3    3    0    0 -0.11792946131E+01  0.12041561811E+02  0.67909327750E+02  0.70273435964E+02  0.13427176174E+02 0.  0.
         22    1    3    3    0    0  0.11792946131E+01 -0.12041561811E+02 -0.26466563548E+02  0.29101012571E+02  0.00000000000E+00 0.  1.
         22    1    4    4    0    0 -0.62021542294E+00  0.48889415841E+01  0.57023384960E+02  0.57235940189E+02  0.00000000000E+00 0. -1.
         22    1    4    4    0    0 -0.55907919013E+00  0.71526202264E+01  0.10885942790E+02  0.13037495775E+02  0.00000000000E+00 0. -1.
<mgrwt>
<rscale>  0 0.90320420E+02</rscale>
<asrwt>0</asrwt>
<pdfrwt beam="1">  1        2 0.10832093E-01 0.90320420E+02</pdfrwt>
<pdfrwt beam="2">  1       -2 0.44562835E-02 0.90320420E+02</pdfrwt>
<totfact> 0.11375722E+05</totfact>
</mgrwt>
</event>
<event>
 7    1  0.3960685E-009  0.9186742E+02  0.7818608E-02  0.1298391E+00
         -2   -1    0    0    0  501 -0.00000000000E+00  0.00000000000E+00  0.64539277711E+01  0.64539282748E+01  0.25500000000E-02 0.  1.
          2   -1    0    0  501    0  0.00000000000E+00 -0.00000000000E+00 -0.32691809517E+03  0.32691809518E+03  0.25500000000E-02 0. -1.
         23    2    1    2    0    0  0.00000000000E+00  0.00000000000E+00 -0.32046416740E+03  0.33337202346E+03  0.91867423148E+02 0.  0.
    9000005    2    3    3    0    0  0.28568184674E+02 -0.31381312224E+02 -0.97354562901E+02  0.10626230646E+03  0.35831445482E+01 0.  0.
         22    1    3    3    0    0 -0.28568184674E+02  0.31381312224E+02 -0.22310960450E+03  0.22710971700E+03  0.00000000000E+00 0. -1.
         22    1    4    4    0    0  0.64847337425E+01 -0.50431626631E+01 -0.19212706580E+02  0.20895295056E+02  0.00000000000E+00 0. -1.
         22    1    4    4    0    0  0.22083450932E+02 -0.26338149561E+02 -0.78141856321E+02  0.85367011408E+02  0.00000000000E+00 0. -1.
<mgrwt>
<rscale>  0 0.91867423E+02</rscale>
<asrwt>0</asrwt>
<pdfrwt beam="2">  1        2 0.50295079E-01 0.91867423E+02</pdfrwt>
<pdfrwt beam="1">  1       -2 0.99291226E-03 0.91867423E+02</pdfrwt>
<totfact> 0.18178749E+05</totfact>
</mgrwt>
</event>
<event>
 7    1  0.3960685E-009  0.9253857E+02  0.7818608E-02  0.1296818E+00
         -2   -1    0    0    0  501 -0.00000000000E+00  0.00000000000E+00  0.22228925705E+01  0.22228940331E+01  0.25500000000E-02 0. -1.
          2   -1    0    0  501    0  0.00000000000E+00 -0.00000000000E+00 -0.96309008928E+03  0.96309008928E+03  0.25500000000E-02 0.  1.
         23    2    1    2    0    0  0.00000000000E+00  0.00000000000E+00 -0.96086719671E+03  0.96531298332E+03  0.92538565188E+02 0.  0.
    9000005    2    3    3    0    0 -0.27254533661E+02 -0.21283463068E+02 -0.79775744083E+03  0.79857790042E+03  0.10673951243E+02 0.  0.
         22    1    3    3    0    0  0.27254533661E+02  0.21283463068E+02 -0.16310975588E+03  0.16673508289E+03  0.00000000000E+00 0. -1.
         22    1    4    4    0    0 -0.12843612170E+02 -0.15107473637E+02 -0.52043142100E+03  0.52080904187E+03  0.00000000000E+00 0.  1.
         22    1    4    4    0    0 -0.14410921491E+02 -0.61759894303E+01 -0.27732601984E+03  0.27776885855E+03  0.00000000000E+00 0.  1.
<mgrwt>
<rscale>  0 0.92538565E+02</rscale>
<asrwt>0</asrwt>
<pdfrwt beam="2">  1        2 0.14816737E+00 0.92538565E+02</pdfrwt>
<pdfrwt beam="1">  1       -2 0.34198435E-03 0.92538565E+02</pdfrwt>
<totfact> 0.23992302E+05</totfact>
</mgrwt>
</event>
<event>
 7    1  0.3960685E-009  0.8993493E+02  0.7818608E-02  0.1303009E+00
          2   -1    0    0  501    0  0.00000000000E+00  0.00000000000E+00  0.14739941858E+04  0.14739941858E+04  0.25500000000E-02 0.  1.
         -2   -1    0    0    0  501 -0.00000000000E+00 -0.00000000000E+00 -0.13718313131E+01  0.13718336831E+01  0.25500000000E-02 0. -1.
         23    2    1    2    0    0  0.00000000000E+00  0.00000000000E+00  0.14726223545E+04  0.14753660195E+04  0.89934934910E+02 0.  0.
    9000005    2    3    3    0    0  0.19723533113E+02 -0.10754324283E+02  0.13720579781E+04  0.13723229845E+04  0.14919967419E+02 0.  0.
         22    1    3    3    0    0 -0.19723533113E+02  0.10754324283E+02  0.10056437643E+03  0.10304303497E+03  0.00000000000E+00 0. -1.
         22    1    4    4    0    0  0.70709790802E+01  0.33779793790E+01  0.33593366801E+03  0.33602505679E+03  0.00000000000E+00 0. -1.
         22    1    4    4    0    0  0.12652554033E+02 -0.14132303662E+02  0.10361243101E+04  0.10362979277E+04  0.00000000000E+00 0. -1.
<mgrwt>
<rscale>  0 0.89934935E+02</rscale>
<asrwt>0</asrwt>
<pdfrwt beam="1">  1        2 0.22676871E+00 0.89934935E+02</pdfrwt>
<pdfrwt beam="2">  1       -2 0.21105081E-03 0.89934935E+02</pdfrwt>
<totfact> 0.24621320E+05</totfact>
</mgrwt>
</event>
<event>
 7    1  0.3960685E-009  0.9156232E+02  0.7818608E-02  0.1299112E+00
         -2   -1    0    0    0  501 -0.00000000000E+00  0.00000000000E+00  0.10513075634E+02  0.10513075944E+02  0.25500000000E-02 0.  1.
          2   -1    0    0  501    0  0.00000000000E+00 -0.00000000000E+00 -0.19936264913E+03  0.19936264915E+03  0.25500000000E-02 0. -1.
         23    2    1    2    0    0 -0.35527136788E-14  0.35527136788E-14 -0.18884957350E+03  0.20987572509E+03  0.91562320704E+02 0.  0.
    9000005    2    3    3    0    0  0.31837482952E+02 -0.31859641240E+02 -0.98685699981E+02  0.10908789771E+03  0.11516943414E+02 0.  0.
         22    1    3    3    0    0 -0.31837482952E+02  0.31859641240E+02 -0.90163873516E+02  0.10078782738E+03  0.00000000000E+00 0.  1.
         22    1    4    4    0    0  0.19969212760E+01 -0.46566911952E+01 -0.20181706400E+02  0.20808021066E+02  0.00000000000E+00 0.  1.
         22    1    4    4    0    0  0.29840561676E+02 -0.27202950045E+02 -0.78503993581E+02  0.88279876645E+02  0.00000000000E+00 0.  1.
<mgrwt>
<rscale>  0 0.91562321E+02</rscale>
<asrwt>0</asrwt>
<pdfrwt beam="2">  1        2 0.30671174E-01 0.91562321E+02</pdfrwt>
<pdfrwt beam="1">  1       -2 0.16173964E-02 0.91562321E+02</pdfrwt>
<totfact> 0.15275426E+05</totfact>
</mgrwt>
</event>
<event>
 7    1  0.3960685E-009  0.9285066E+02  0.7818608E-02  0.1296092E+00
         -2   -1    0    0    0  501 -0.00000000000E+00  0.00000000000E+00  0.69617651793E+02  0.69617651840E+02  0.25500000000E-02 0.  1.
          2   -1    0    0  501    0  0.00000000000E+00 -0.00000000000E+00 -0.30959262648E+02  0.30959262753E+02  0.25500000000E-02 0. -1.
         23    2    1    2    0    0 -0.88817841970E-15  0.00000000000E+00  0.38658389146E+02  0.10057691459E+03  0.92850658036E+02 0.  0.
    9000005    2    3    3    0    0 -0.67342627921E+01  0.42823668306E+02  0.35650864995E+02  0.57122777114E+02  0.10621234762E+02 0.  0.
         22    1    3    3    0    0  0.67342627921E+01 -0.42823668306E+02  0.30075241511E+01  0.43454137479E+02  0.00000000000E+00 0. -1.
         22    1    4    4    0    0  0.71371986326E-01  0.20286386218E+02  0.11168737135E+02  0.23157790243E+02  0.00000000000E+00 0.  1.
         22    1    4    4    0    0 -0.68056347785E+01  0.22537282088E+02  0.24482127859E+02  0.33964986871E+02  0.00000000000E+00 0.  1.
<mgrwt>
<rscale>  0 0.92850658E+02</rscale>
<asrwt>0</asrwt>
<pdfrwt beam="2">  1        2 0.47629635E-02 0.92850658E+02</pdfrwt>
<pdfrwt beam="1">  1       -2 0.10710408E-01 0.92850658E+02</pdfrwt>
<totfact> 0.84520602E+04</totfact>
</mgrwt>
</event>
<event>
 7    1  0.3960685E-009  0.8990005E+02  0.7818608E-02  0.1303094E+00
         -2   -1    0    0    0  501 -0.00000000000E+00  0.00000000000E+00  0.74159799090E+01  0.74159803475E+01  0.25500000000E-02 0.  1.
          2   -1    0    0  501    0  0.00000000000E+00 -0.00000000000E+00 -0.27245285356E+03  0.27245285357E+03  0.25500000000E-02 0. -1.
         23    2    1    2    0    0  0.00000000000E+00  0.00000000000E+00 -0.26503687365E+03  0.27986883392E+03  0.89900054532E+02 0.  0.
    9000005    2    3    3    0    0  0.55975721086E+01 -0.22262690371E+02 -0.25277277564E+03  0.25384253383E+03  0.38724260714E+01 0.  0.
         22    1    3    3    0    0 -0.55975721086E+01  0.22262690371E+02 -0.12264098015E+02  0.26026300087E+02  0.00000000000E+00 0.  1.
         22    1    4    4    0    0  0.48657627915E+01 -0.21949884151E+02 -0.24461555037E+03  0.24564657649E+03  0.00000000000E+00 0.  1.
         22    1    4    4    0    0  0.73180931713E+00 -0.31280622086E+00 -0.81572252712E+01  0.81959573409E+01  0.00000000000E+00 0.  1.
<mgrwt>
<rscale>  0 0.89900055E+02</rscale>
<asrwt>0</asrwt>
<pdfrwt beam="2">  1        2 0.41915816E-01 0.89900055E+02</pdfrwt>
<pdfrwt beam="1">  1       -2 0.11409202E-02 0.89900055E+02</pdfrwt>
<totfact> 0.17997019E+05</totfact>
</mgrwt>
</event>
<event>
 7    1  0.3960685E-009  0.9199075E+02  0.7818608E-02  0.1298101E+00
          2   -1    0    0  501    0  0.00000000000E+00  0.00000000000E+00  0.28627347607E+03  0.28627347608E+03  0.25500000000E-02 0.  1.
         -2   -1    0    0    0  501 -0.00000000000E+00 -0.00000000000E+00 -0.73900468188E+01  0.73900472588E+01  0.25500000000E-02 0. -1.
         23    2    1    2    0    0  0.00000000000E+00  0.00000000000E+00  0.27888342925E+03  0.29366352334E+03  0.91990748609E+02 0.  0.
    9000005    2    3    3    0    0  0.21467967424E+02  0.39824759819E+02  0.16452842461E+03  0.17068404453E+03  0.40688370902E+01 0.  0.
         22    1    3    3    0    0 -0.21467967424E+02 -0.39824759819E+02  0.11435500465E+03  0.12297947881E+03  0.00000000000E+00 0.  1.
         22    1    4    4    0    0  0.17784278114E+02  0.35698056715E+02  0.14324541449E+03  0.14869391573E+03  0.00000000000E+00 0.  1.
         22    1    4    4    0    0  0.36836893102E+01  0.41267031038E+01  0.21283010115E+02  0.21990128808E+02  0.00000000000E+00 0.  1.
<mgrwt>
<rscale>  0 0.91990749E+02</rscale>
<asrwt>0</asrwt>
<pdfrwt beam="1">  1        2 0.44042076E-01 0.91990749E+02</pdfrwt>
<pdfrwt beam="2">  1       -2 0.11369302E-02 0.91990749E+02</pdfrwt>
<totfact> 0.17240514E+05</totfact>
</mgrwt>
</event>
<event>
 7    1  0.3960685E-009  0.9121450E+02  0.7818608E-02  0.1299937E+00
         -2   -1    0    0    0  501 -0.00000000000E+00  0.00000000000E+00  0.91485426542E+01  0.91485430096E+01  0.25500000000E-02 0.  1.
          2   -1    0    0  501    0  0.00000000000E+00 -0.00000000000E+00 -0.22736091584E+03  0.22736091585E+03  0.25500000000E-02 0. -1.
         23    2    1    2    0    0  0.71054273576E-14  0.00000000000E+00 -0.21821237319E+03  0.23650945886E+03  0.91214496220E+02 0.  0.
    9000005    2    3    3    0    0  0.35162809579E+02  0.11114810757E+02 -0.17656700552E+03  0.18088303669E+03  0.13520478116E+02 0.  0.
         22    1    3    3    0    0 -0.35162809579E+02 -0.11114810757E+02 -0.41645367662E+02  0.55626422170E+02  0.00000000000E+00 0.  1.
         22    1    4    4    0    0  0.23476505003E+02  0.13496146975E+02 -0.11229922598E+03  0.11551800044E+03  0.00000000000E+00 0.  1.
         22    1    4    4    0    0  0.11686304576E+02 -0.23813362183E+01 -0.64267779544E+02  0.65365036253E+02  0.00000000000E+00 0.  1.
<mgrwt>
<rscale>  0 0.91214496E+02</rscale>
<asrwt>0</asrwt>
<pdfrwt beam="2">  1        2 0.34978598E-01 0.91214496E+02</pdfrwt>
<pdfrwt beam="1">  1       -2 0.14074683E-02 0.91214496E+02</pdfrwt>
<totfact> 0.16190564E+05</totfact>
</mgrwt>
</event>
<event>
 7    1  0.3960685E-009  0.8515077E+02  0.7818608E-02  0.1315039E+00
          2   -1    0    0  501    0  0.00000000000E+00  0.00000000000E+00  0.29500411180E+03  0.29500411181E+03  0.25500000000E-02 0.  1.
         -2   -1    0    0    0  501 -0.00000000000E+00 -0.00000000000E+00 -0.61445354934E+01  0.61445360225E+01  0.25500000000E-02 0. -1.
         23    2    1    2    0    0  0.00000000000E+00  0.00000000000E+00  0.28885957630E+03  0.30114864783E+03  0.85150767864E+02 0.  0.
    9000005    2    3    3    0    0 -0.20891724148E+02 -0.32477427305E+02  0.20242878354E+03  0.20648329324E+03  0.12910869800E+02 0.  0.
         22    1    3    3    0    0  0.20891724148E+02  0.32477427305E+02  0.86430792764E+02  0.94665354592E+02  0.00000000000E+00 0. -1.
         22    1    4    4    0    0 -0.16614070863E+02 -0.13938991787E+02  0.10949077120E+03  0.11161788307E+03  0.00000000000E+00 0.  1.
         22    1    4    4    0    0 -0.42776532851E+01 -0.18538435518E+02  0.92938012339E+02  0.94865410169E+02  0.00000000000E+00 0.  1.
<mgrwt>
<rscale>  0 0.85150768E+02</rscale>
<asrwt>0</asrwt>
<pdfrwt beam="1">  1        2 0.45385267E-01 0.85150768E+02</pdfrwt>
<pdfrwt beam="2">  1       -2 0.94531280E-03 0.85150768E+02</pdfrwt>
<totfact> 0.21411919E+05</totfact>
</mgrwt>
</event>
<event>
 7    1  0.3960685E-009  0.8552740E+02  0.7818608E-02  0.1314059E+00
         -2   -1    0    0    0  501 -0.00000000000E+00  0.00000000000E+00  0.22890790655E+02  0.22890790797E+02  0.25500000000E-02 0.  1.
          2   -1    0    0  501    0  0.00000000000E+00 -0.00000000000E+00 -0.79889504751E+02  0.79889504792E+02  0.25500000000E-02 0. -1.
         23    2    1    2    0    0  0.00000000000E+00  0.00000000000E+00 -0.56998714096E+02  0.10278029559E+03  0.85527397674E+02 0.  0.
    9000005    2    3    3    0    0  0.27147506465E+02  0.13502836172E+02 -0.63943463231E+02  0.71674938615E+02  0.11367349894E+02 0.  0.
         22    1    3    3    0    0 -0.27147506465E+02 -0.13502836172E+02  0.69447491349E+01  0.31105356974E+02  0.00000000000E+00 0.  1.
         22    1    4    4    0    0  0.14117350794E+02  0.40770838855E+01 -0.19537732445E+02  0.24446782928E+02  0.00000000000E+00 0.  1.
         22    1    4    4    0    0  0.13030155671E+02  0.94257522863E+01 -0.44405730786E+02  0.47228155687E+02  0.00000000000E+00 0.  1.
<mgrwt>
<rscale>  0 0.85527398E+02</rscale>
<asrwt>0</asrwt>
<pdfrwt beam="2">  1        2 0.12290693E-01 0.85527398E+02</pdfrwt>
<pdfrwt beam="1">  1       -2 0.35216602E-02 0.85527398E+02</pdfrwt>
<totfact> 0.13700726E+05</totfact>
</mgrwt>
</event>
<event>
 7    1  0.3960685E-009  0.8805785E+02  0.7818608E-02  0.1307624E+00
          2   -1    0    0  501    0  0.00000000000E+00  0.00000000000E+00  0.10699410698E+04  0.10699410698E+04  0.25500000000E-02 0. -1.
         -2   -1    0    0    0  501 -0.00000000000E+00 -0.00000000000E+00 -0.18118243749E+01  0.18118261694E+01  0.25500000000E-02 0.  1.
         23    2    1    2    0    0  0.00000000000E+00  0.00000000000E+00  0.10681292455E+04  0.10717528960E+04  0.88057850833E+02 0.  0.
    9000005    2    3    3    0    0 -0.16257849404E+02  0.19621048717E+02  0.96894804955E+03  0.96935068489E+03  0.11450953936E+02 0.  0.
         22    1    3    3    0    0  0.16257849404E+02 -0.19621048717E+02  0.99181195913E+02  0.10240221112E+03  0.00000000000E+00 0.  1.
         22    1    4    4    0    0 -0.46641867126E+01  0.89206338850E-01  0.10417923337E+03  0.10428362893E+03  0.00000000000E+00 0.  1.
         22    1    4    4    0    0 -0.11593662691E+02  0.19531842379E+02  0.86476881617E+03  0.86506705596E+03  0.00000000000E+00 0.  1.
<mgrwt>
<rscale>  0 0.88057851E+02</rscale>
<asrwt>0</asrwt>
<pdfrwt beam="1">  1        2 0.16460616E+00 0.88057851E+02</pdfrwt>
<pdfrwt beam="2">  1       -2 0.27874262E-03 0.88057851E+02</pdfrwt>
<totfact> 0.27430330E+05</totfact>
</mgrwt>
</event>
<event>
 7    1  0.3960685E-009  0.9331878E+02  0.7818608E-02  0.1295008E+00
         -2   -1    0    0    0  501 -0.00000000000E+00  0.00000000000E+00  0.21789833626E+01  0.21789848547E+01  0.25500000000E-02 0.  1.
          2   -1    0    0  501    0  0.00000000000E+00 -0.00000000000E+00 -0.99913471634E+03  0.99913471635E+03  0.25500000000E-02 0. -1.
         23    2    1    2    0    0  0.71054273576E-14  0.00000000000E+00 -0.99695573298E+03  0.10013137012E+04  0.93318779945E+02 0.  0.
    9000005    2    3    3    0    0 -0.37819173741E+02 -0.12040565464E+02 -0.75968573088E+03  0.76074703889E+03  0.61953496066E+01 0.  0.
         22    1    3    3    0    0  0.37819173741E+02  0.12040565464E+02 -0.23727000210E+03  0.24056666232E+03  0.00000000000E+00 0. -1.
         22    1    4    4    0    0 -0.32501476857E+02 -0.11014409500E+02 -0.61127746033E+03  0.61223998295E+03  0.00000000000E+00 0. -1.
         22    1    4    4    0    0 -0.53176968844E+01 -0.10261559636E+01 -0.14840827054E+03  0.14850705593E+03  0.00000000000E+00 0. -1.
<mgrwt>
<rscale>  0 0.93318780E+02</rscale>
<asrwt>0</asrwt>
<pdfrwt beam="2">  1        2 0.15371267E+00 0.93318780E+02</pdfrwt>
<pdfrwt beam="1">  1       -2 0.33522912E-03 0.93318780E+02</pdfrwt>
<totfact> 0.23516008E+05</totfact>
</mgrwt>
</event>
<event>
 7    1  0.3960685E-009  0.8778559E+02  0.7818608E-02  0.1308305E+00
         -2   -1    0    0    0  501 -0.00000000000E+00  0.00000000000E+00  0.13569466264E+02  0.13569466504E+02  0.25500000000E-02 0.  1.
          2   -1    0    0  501    0  0.00000000000E+00 -0.00000000000E+00 -0.14197887077E+03  0.14197887080E+03  0.25500000000E-02 0. -1.
         23    2    1    2    0    0  0.44408920985E-15  0.00000000000E+00 -0.12840940451E+03  0.15554833730E+03  0.87785591474E+02 0.  0.
    9000005    2    3    3    0    0  0.34233637561E+01 -0.38865634533E+02 -0.96726193831E+02  0.10528818603E+03  0.14400992222E+02 0.  0.
         22    1    3    3    0    0 -0.34233637561E+01  0.38865634533E+02 -0.31683210678E+02  0.50260151272E+02  0.00000000000E+00 0. -1.
         22    1    4    4    0    0 -0.31653304577E+01 -0.18440852717E+02 -0.58869670577E+02  0.61771534543E+02  0.00000000000E+00 0.  1.
         22    1    4    4    0    0  0.65886942137E+01 -0.20424781816E+02 -0.37856523254E+02  0.43516651486E+02  0.00000000000E+00 0.  1.
<mgrwt>
<rscale>  0 0.87785591E+02</rscale>
<asrwt>0</asrwt>
<pdfrwt beam="2">  1        2 0.21842902E-01 0.87785591E+02</pdfrwt>
<pdfrwt beam="1">  1       -2 0.20876103E-02 0.87785591E+02</pdfrwt>
<totfact> 0.15208397E+05</totfact>
</mgrwt>
</event>
<event>
 7    1  0.3960685E-009  0.8800490E+02  0.7818608E-02  0.1307756E+00
          2   -1    0    0  501    0  0.00000000000E+00  0.00000000000E+00  0.14256171767E+03  0.14256171770E+03  0.25500000000E-02 0. -1.
         -2   -1    0    0    0  501 -0.00000000000E+00 -0.00000000000E+00 -0.13581596590E+02  0.13581596829E+02  0.25500000000E-02 0.  1.
         23    2    1    2    0    0  0.00000000000E+00  0.00000000000E+00  0.12898012108E+03  0.15614331453E+03  0.88004903478E+02 0.  0.
    9000005    2    3    3    0    0  0.37821389214E+02  0.67617289820E+01  0.10126858387E+03  0.10877130005E+03  0.99845467628E+01 0.  0.
         22    1    3    3    0    0 -0.37821389214E+02 -0.67617289820E+01  0.27711537211E+02  0.47372014476E+02  0.00000000000E+00 0.  1.
         22    1    4    4    0    0  0.13730582722E+02  0.48734877870E+01  0.50244412934E+02  0.52314250603E+02  0.00000000000E+00 0.  1.
         22    1    4    4    0    0  0.24090806492E+02  0.18882411949E+01  0.51024170939E+02  0.56457049447E+02  0.00000000000E+00 0.  1.
<mgrwt>
<rscale>  0 0.88004903E+02</rscale>
<asrwt>0</asrwt>
<pdfrwt beam="1">  1        2 0.21932572E-01 0.88004903E+02</pdfrwt>
<pdfrwt beam="2">  1       -2 0.20894764E-02 0.88004903E+02</pdfrwt>
<totfact> 0.15126752E+05</totfact>
</mgrwt>
</event>
<event>
 7    1  0.3960685E-009  0.9404823E+02  0.7818608E-02  0.1293334E+00
         -2   -1    0    0    0  501 -0.00000000000E+00  0.00000000000E+00  0.26758283495E+03  0.26758283496E+03  0.25500000000E-02 0.  1.
          2   -1    0    0  501    0  0.00000000000E+00 -0.00000000000E+00 -0.82638608419E+01  0.82638612353E+01  0.25500000000E-02 0. -1.
         23    2    1    2    0    0 -0.35527136788E-14  0.00000000000E+00  0.25931897411E+03  0.27584669620E+03  0.94048229492E+02 0.  0.
    9000005    2    3    3    0    0 -0.20812081722E+02 -0.15926708265E+02  0.24325249484E+03  0.24510690866E+03  0.14792486103E+02 0.  0.
         22    1    3    3    0    0  0.20812081722E+02  0.15926708265E+02  0.16066479268E+02  0.30739787538E+02  0.00000000000E+00 0. -1.
         22    1    4    4    0    0 -0.18010767632E+02 -0.12331921953E+02  0.23108974090E+03  0.23211835860E+03  0.00000000000E+00 0. -1.
         22    1    4    4    0    0 -0.28013140905E+01 -0.35947863124E+01  0.12162753942E+02  0.12988550062E+02  0.00000000000E+00 0. -1.
<mgrwt>
<rscale>  0 0.94048229E+02</rscale>
<asrwt>0</asrwt>
<pdfrwt beam="2">  1        2 0.12713632E-02 0.94048229E+02</pdfrwt>
<pdfrwt beam="1">  1       -2 0.41166592E-01 0.94048229E+02</pdfrwt>
<totfact> 0.50099955E+04</totfact>
</mgrwt>
</event>
<event>
 7    1  0.3960685E-009  0.9221509E+02  0.7818608E-02  0.1297575E+00
          2   -1    0    0  501    0  0.00000000000E+00  0.00000000000E+00  0.35142214578E+03  0.35142214579E+03  0.25500000000E-02 0. -1.
         -2   -1    0    0    0  501 -0.00000000000E+00 -0.00000000000E+00 -0.60494349100E+01  0.60494354474E+01  0.25500000000E-02 0.  1.
         23    2    1    2    0    0 -0.17763568394E-14  0.00000000000E+00  0.34537271087E+03  0.35747158124E+03  0.92215085415E+02 0.  0.
    9000005    2    3    3    0    0  0.93554215727E+01  0.14948605745E+02  0.33752355792E+03  0.33816888898E+03  0.11183049266E+02 0.  0.
         22    1    3    3    0    0 -0.93554215727E+01 -0.14948605745E+02  0.78491529449E+01  0.19302692260E+02  0.00000000000E+00 0.  1.
         22    1    4    4    0    0  0.94164229031E+01  0.95546918586E+01  0.15934422937E+03  0.15990792536E+03  0.00000000000E+00 0.  1.
         22    1    4    4    0    0 -0.61001330346E-01  0.53939138865E+01  0.17817932855E+03  0.17826096362E+03  0.00000000000E+00 0.  1.
<mgrwt>
<rscale>  0 0.92215085E+02</rscale>
<asrwt>0</asrwt>
<pdfrwt beam="1">  1        2 0.54064943E-01 0.92215085E+02</pdfrwt>
<pdfrwt beam="2">  1       -2 0.93068238E-03 0.92215085E+02</pdfrwt>
<totfact> 0.18482039E+05</totfact>
</mgrwt>
</event>
<event>
 7    1  0.3960685E-009  0.9042565E+02  0.7818608E-02  0.1301824E+00
          2   -1    0    0  501    0  0.00000000000E+00  0.00000000000E+00  0.57648903882E+03  0.57648903882E+03  0.25500000000E-02 0. -1.
         -2   -1    0    0    0  501 -0.00000000000E+00 -0.00000000000E+00 -0.35459465921E+01  0.35459475089E+01  0.25500000000E-02 0.  1.
         23    2    1    2    0    0  0.17763568394E-14  0.00000000000E+00  0.57294309222E+03  0.58003498633E+03  0.90425651451E+02 0.  0.
    9000005    2    3    3    0    0  0.11062430065E+02 -0.39921053173E+02  0.39899365893E+03  0.40122091197E+03  0.81371058707E+01 0.  0.
         22    1    3    3    0    0 -0.11062430065E+02  0.39921053173E+02  0.17394943330E+03  0.17881407436E+03  0.00000000000E+00 0. -1.
         22    1    4    4    0    0 -0.33325075098E+00 -0.18660034067E+01  0.38184989894E+02  0.38232008553E+02  0.00000000000E+00 0.  1.
         22    1    4    4    0    0  0.11395680816E+02 -0.38055049767E+02  0.36080866903E+03  0.36298890342E+03  0.00000000000E+00 0.  1.
<mgrwt>
<rscale>  0 0.90425651E+02</rscale>
<asrwt>0</asrwt>
<pdfrwt beam="1">  1        2 0.88690592E-01 0.90425651E+02</pdfrwt>
<pdfrwt beam="2">  1       -2 0.54553049E-03 0.90425651E+02</pdfrwt>
<totfact> 0.23020807E+05</totfact>
</mgrwt>
</event>
<event>
 7    1  0.3960685E-009  0.9158183E+02  0.7818608E-02  0.1299066E+00
          2   -1    0    0  501    0  0.00000000000E+00  0.00000000000E+00  0.34103638520E+03  0.34103638521E+03  0.25500000000E-02 0.  1.
         -2   -1    0    0    0  501 -0.00000000000E+00 -0.00000000000E+00 -0.61483405125E+01  0.61483410413E+01  0.25500000000E-02 0. -1.
         23    2    1    2    0    0  0.00000000000E+00  0.00000000000E+00  0.33488804469E+03  0.34718472625E+03  0.91581830443E+02 0.  0.
    9000005    2    3    3    0    0  0.27469160724E+02  0.33502968765E+02  0.21225559369E+03  0.21712427206E+03  0.14611938875E+02 0.  0.
         22    1    3    3    0    0 -0.27469160724E+02 -0.33502968765E+02  0.12263245100E+03  0.13006045420E+03  0.00000000000E+00 0. -1.
         22    1    4    4    0    0  0.22473168518E+02  0.19846539598E+02  0.11778632632E+03  0.12154236753E+03  0.00000000000E+00 0. -1.
         22    1    4    4    0    0  0.49959922054E+01  0.13656429167E+02  0.94469267367E+02  0.95581904525E+02  0.00000000000E+00 0. -1.
<mgrwt>
<rscale>  0 0.91581830E+02</rscale>
<asrwt>0</asrwt>
<pdfrwt beam="1">  1        2 0.52467151E-01 0.91581830E+02</pdfrwt>
<pdfrwt beam="2">  1       -2 0.94589831E-03 0.91581830E+02</pdfrwt>
<totfact> 0.18618449E+05</totfact>
</mgrwt>
</event>
<event>
 7    1  0.3960685E-009  0.9164211E+02  0.7818608E-02  0.1298923E+00
         -2   -1    0    0    0  501 -0.00000000000E+00  0.00000000000E+00  0.19768192953E+01  0.19768209400E+01  0.25500000000E-02 0.  1.
          2   -1    0    0  501    0  0.00000000000E+00 -0.00000000000E+00 -0.10620940599E+04  0.10620940599E+04  0.25500000000E-02 0. -1.
         23    2    1    2    0    0 -0.36082248300E-15 -0.71054273576E-14 -0.10601172406E+04  0.10640708808E+04  0.91642106209E+02 0.  0.
    9000005    2    3    3    0    0  0.12070273391E+00 -0.35925507358E+02 -0.85171258649E+03  0.85259237956E+03  0.14449188549E+02 0.  0.
         22    1    3    3    0    0 -0.12070273391E+00  0.35925507358E+02 -0.20840465407E+03  0.21147850124E+03  0.00000000000E+00 0.  1.
         22    1    4    4    0    0 -0.31104819957E+01 -0.21939375744E+02 -0.64580781213E+03  0.64618785312E+03  0.00000000000E+00 0.  1.
         22    1    4    4    0    0  0.32311847296E+01 -0.13986131614E+02 -0.20590477436E+03  0.20640452644E+03  0.00000000000E+00 0.  1.
<mgrwt>
<rscale>  0 0.91642106E+02</rscale>
<asrwt>0</asrwt>
<pdfrwt beam="2">  1        2 0.16339863E+00 0.91642106E+02</pdfrwt>
<pdfrwt beam="1">  1       -2 0.30412702E-03 0.91642106E+02</pdfrwt>
<totfact> 0.24699966E+05</totfact>
</mgrwt>
</event>
<event>
 7    1  0.3960685E-009  0.9083744E+02  0.7818608E-02  0.1300836E+00
          2   -1    0    0  501    0  0.00000000000E+00  0.00000000000E+00  0.14220540468E+04  0.14220540468E+04  0.25500000000E-02 0. -1.
         -2   -1    0    0    0  501 -0.00000000000E+00 -0.00000000000E+00 -0.14506189730E+01  0.14506212143E+01  0.25500000000E-02 0.  1.
         23    2    1    2    0    0  0.00000000000E+00  0.00000000000E+00  0.14206034279E+04  0.14235046680E+04  0.90837441131E+02 0.  0.
    9000005    2    3    3    0    0  0.77060386078E+01  0.20531455569E+02  0.13313937402E+04  0.13316390484E+04  0.13127837460E+02 0.  0.
         22    1    3    3    0    0 -0.77060386078E+01 -0.20531455569E+02  0.89209687669E+02  0.91865619645E+02  0.00000000000E+00 0.  1.
         22    1    4    4    0    0  0.97175548281E+01  0.78592030870E+01  0.74625517099E+03  0.74635981817E+03  0.00000000000E+00 0. -1.
         22    1    4    4    0    0 -0.20115162203E+01  0.12672252482E+02  0.58513856920E+03  0.58527923023E+03  0.00000000000E+00 0. -1.
<mgrwt>
<rscale>  0 0.90837441E+02</rscale>
<asrwt>0</asrwt>
<pdfrwt beam="1">  1        2 0.21877779E+00 0.90837441E+02</pdfrwt>
<pdfrwt beam="2">  1       -2 0.22317208E-03 0.90837441E+02</pdfrwt>
<totfact> 0.24266492E+05</totfact>
</mgrwt>
</event>
<event>
 7    1  0.3960685E-009  0.8944642E+02  0.7818608E-02  0.1304198E+00
          2   -1    0    0  501    0  0.00000000000E+00  0.00000000000E+00  0.33709339535E+03  0.33709339536E+03  0.25500000000E-02 0. -1.
         -2   -1    0    0    0  501 -0.00000000000E+00 -0.00000000000E+00 -0.59335639742E+01  0.59335645222E+01  0.25500000000E-02 0.  1.
         23    2    1    2    0    0 -0.35527136788E-14  0.00000000000E+00  0.33115983137E+03  0.34302695988E+03  0.89446415741E+02 0.  0.
    9000005    2    3    3    0    0  0.31994931629E+02  0.28900704163E+02  0.14838926342E+03  0.15523982810E+03  0.14869579005E+02 0.  0.
         22    1    3    3    0    0 -0.31994931629E+02 -0.28900704163E+02  0.18277056795E+03  0.18778713177E+03  0.00000000000E+00 0. -1.
         22    1    4    4    0    0  0.28112627644E+02  0.28795205110E+02  0.11958005281E+03  0.12617001506E+03  0.00000000000E+00 0. -1.
         22    1    4    4    0    0  0.38823039851E+01  0.10549905305E+00  0.28809210615E+02  0.29069813046E+02  0.00000000000E+00 0. -1.
<mgrwt>
<rscale>  0 0.89446416E+02</rscale>
<asrwt>0</asrwt>
<pdfrwt beam="1">  1        2 0.51860522E-01 0.89446416E+02</pdfrwt>
<pdfrwt beam="2">  1       -2 0.91285605E-03 0.89446416E+02</pdfrwt>
<totfact> 0.19739386E+05</totfact>
</mgrwt>
</event>
<event>
 7    1  0.3960685E-009  0.9108942E+02  0.7818608E-02  0.1300235E+00
          2   -1    0    0  501    0  0.00000000000E+00  0.00000000000E+00  0.47278283046E+02  0.47278283115E+02  0.25500000000E-02 0.  1.
         -2   -1    0    0    0  501 -0.00000000000E+00 -0.00000000000E+00 -0.43874699707E+02  0.43874699781E+02  0.25500000000E-02 0. -1.
         23    2    1    2    0    0 -0.88817841970E-15 -0.35527136788E-14  0.34035833388E+01  0.91152982896E+02  0.91089417121E+02 0.  0.
    9000005    2    3    3    0    0  0.54197504908E+01  0.29619992023E+02  0.35014095025E+02  0.47495886430E+02  0.11097511189E+02 0.  0.
         22    1    3    3    0    0 -0.54197504908E+01 -0.29619992023E+02 -0.31610511686E+02  0.43657096466E+02  0.00000000000E+00 0. -1.
         22    1    4    4    0    0 -0.28039048739E+01  0.34509021086E+01  0.31395429289E+01  0.54431000090E+01  0.00000000000E+00 0.  1.
         22    1    4    4    0    0  0.82236553647E+01  0.26169089914E+02  0.31874552096E+02  0.42052786421E+02  0.00000000000E+00 0.  1.
<mgrwt>
<rscale>  0 0.91089417E+02</rscale>
<asrwt>0</asrwt>
<pdfrwt beam="1">  1        2 0.72735821E-02 0.91089417E+02</pdfrwt>
<pdfrwt beam="2">  1       -2 0.67499538E-02 0.91089417E+02</pdfrwt>
<totfact> 0.99886515E+04</totfact>
</mgrwt>
</event>
<event>
 7    1  0.3960685E-009  0.9379443E+02  0.7818608E-02  0.1293915E+00
         -2   -1    0    0    0  501 -0.00000000000E+00  0.00000000000E+00  0.44736380744E+01  0.44736388011E+01  0.25500000000E-02 0.  1.
          2   -1    0    0  501    0  0.00000000000E+00 -0.00000000000E+00 -0.49162416291E+03  0.49162416291E+03  0.25500000000E-02 0. -1.
         23    2    1    2    0    0  0.00000000000E+00  0.00000000000E+00 -0.48715052483E+03  0.49609780172E+03  0.93794429587E+02 0.  0.
    9000005    2    3    3    0    0 -0.38868810778E+02  0.16188080398E+02 -0.35108334808E+03  0.35366495793E+03  0.68225195265E+01 0.  0.
         22    1    3    3    0    0  0.38868810778E+02 -0.16188080398E+02 -0.13606717676E+03  0.14243284378E+03  0.00000000000E+00 0.  1.
         22    1    4    4    0    0 -0.37678620212E+02  0.16180127627E+02 -0.34691346492E+03  0.34932853747E+03  0.00000000000E+00 0.  1.
         22    1    4    4    0    0 -0.11901905662E+01  0.79527712140E-02 -0.41698831598E+01  0.43364204589E+01  0.00000000000E+00 0.  1.
<mgrwt>
<rscale>  0 0.93794430E+02</rscale>
<asrwt>0</asrwt>
<pdfrwt beam="2">  1        2 0.75634444E-01 0.93794430E+02</pdfrwt>
<pdfrwt beam="1">  1       -2 0.68825246E-03 0.93794430E+02</pdfrwt>
<totfact> 0.19881195E+05</totfact>
</mgrwt>
</event>
<event>
 7    1  0.3960685E-009  0.8915602E+02  0.7818608E-02  0.1304908E+00
          2   -1    0    0  501    0  0.00000000000E+00  0.00000000000E+00  0.73885570659E+01  0.73885575060E+01  0.25500000000E-02 0. -1.
         -2   -1    0    0    0  501 -0.00000000000E+00 -0.00000000000E+00 -0.26895627187E+03  0.26895627189E+03  0.25500000000E-02 0.  1.
         23    2    1    2    0    0  0.00000000000E+00  0.00000000000E+00 -0.26156771481E+03  0.27634482939E+03  0.89156016633E+02 0.  0.
    9000005    2    3    3    0    0 -0.37679276683E+02  0.18625194699E+02 -0.17211034849E+03  0.17750533244E+03  0.10933673629E+02 0.  0.
         22    1    3    3    0    0  0.37679276683E+02 -0.18625194699E+02 -0.89457366322E+02  0.98839496955E+02  0.00000000000E+00 0. -1.
         22    1    4    4    0    0 -0.52562063167E+01 -0.12409859082E+01 -0.22220793739E+02  0.22867693921E+02  0.00000000000E+00 0.  1.
         22    1    4    4    0    0 -0.32423070366E+02  0.19866180607E+02 -0.14988955475E+03  0.15463763852E+03  0.00000000000E+00 0.  1.
<mgrwt>
<rscale>  0 0.89156017E+02</rscale>
<asrwt>0</asrwt>
<pdfrwt beam="1">  1        2 0.11367013E-02 0.89156017E+02</pdfrwt>
<pdfrwt beam="2">  1       -2 0.41377880E-01 0.89156017E+02</pdfrwt>
<totfact> 0.57321663E+04</totfact>
</mgrwt>
</event>
<event>
 7    1  0.3960685E-009  0.8968470E+02  0.7818608E-02  0.1303617E+00
         -2   -1    0    0    0  501 -0.00000000000E+00  0.00000000000E+00  0.16982956158E+01  0.16982975303E+01  0.25500000000E-02 0.  1.
          2   -1    0    0  501    0  0.00000000000E+00 -0.00000000000E+00 -0.11840313041E+04  0.11840313042E+04  0.25500000000E-02 0. -1.
         23    2    1    2    0    0  0.00000000000E+00  0.00000000000E+00 -0.11823330085E+04  0.11857296017E+04  0.89684699018E+02 0.  0.
    9000005    2    3    3    0    0 -0.32175647044E+02 -0.40611668348E+01 -0.99950848359E+03  0.10000509215E+04  0.57333729238E+01 0.  0.
         22    1    3    3    0    0  0.32175647044E+02  0.40611668348E+01 -0.18282452495E+03  0.18567868015E+03  0.00000000000E+00 0.  1.
         22    1    4    4    0    0 -0.58514213693E+01 -0.84334510031E+00 -0.25962338416E+03  0.25969068517E+03  0.00000000000E+00 0.  1.
         22    1    4    4    0    0 -0.26324225675E+02 -0.32178217345E+01 -0.73988509942E+03  0.74036023636E+03  0.00000000000E+00 0.  1.
<mgrwt>
<rscale>  0 0.89684699E+02</rscale>
<asrwt>0</asrwt>
<pdfrwt beam="2">  1        2 0.18215800E+00 0.89684699E+02</pdfrwt>
<pdfrwt beam="1">  1       -2 0.26127734E-03 0.89684699E+02</pdfrwt>
<totfact> 0.26007834E+05</totfact>
</mgrwt>
</event>
<event>
 7    1  0.3960685E-009  0.9553852E+02  0.7818608E-02  0.1289968E+00
         -2   -1    0    0    0  501 -0.00000000000E+00  0.00000000000E+00  0.37159528682E+01  0.37159537432E+01  0.25500000000E-02 0.  1.
          2   -1    0    0  501    0  0.00000000000E+00 -0.00000000000E+00 -0.61408252446E+03  0.61408252446E+03  0.25500000000E-02 0. -1.
         23    2    1    2    0    0  0.00000000000E+00 -0.83266726847E-15 -0.61036657159E+03  0.61779847821E+03  0.95538515584E+02 0.  0.
    9000005    2    3    3    0    0  0.18423349651E+02 -0.23814754031E+00 -0.58986066624E+03  0.59023094874E+03  0.98737403834E+01 0.  0.
         22    1    3    3    0    0 -0.18423349651E+02  0.23814754031E+00 -0.20505905354E+02  0.27567529468E+02  0.00000000000E+00 0.  1.
         22    1    4    4    0    0  0.61444680790E+01 -0.48034133916E+01 -0.21424626281E+03  0.21438817224E+03  0.00000000000E+00 0. -1.
         22    1    4    4    0    0  0.12278881572E+02  0.45652658513E+01 -0.37561440343E+03  0.37584277650E+03  0.00000000000E+00 0. -1.
<mgrwt>
<rscale>  0 0.95538516E+02</rscale>
<asrwt>0</asrwt>
<pdfrwt beam="2">  1        2 0.94474154E-01 0.95538516E+02</pdfrwt>
<pdfrwt beam="1">  1       -2 0.57168561E-03 0.95538516E+02</pdfrwt>
<totfact> 0.20264572E+05</totfact>
</mgrwt>
</event>
<event>
 7    1  0.3960685E-009  0.8898199E+02  0.7818608E-02  0.1305336E+00
         -2   -1    0    0    0  501 -0.00000000000E+00  0.00000000000E+00  0.41838677762E+02  0.41838677840E+02  0.25500000000E-02 0. -1.
          2   -1    0    0  501    0  0.00000000000E+00 -0.00000000000E+00 -0.47311457913E+02  0.47311457982E+02  0.25500000000E-02 0.  1.
         23    2    1    2    0    0  0.00000000000E+00  0.35527136788E-14 -0.54727801508E+01  0.89150135822E+02  0.88981994777E+02 0.  0.
    9000005    2    3    3    0    0 -0.23116652013E+02 -0.19203969821E+02 -0.34959814491E+02  0.47047199448E+02  0.93850034362E+01 0.  0.
         22    1    3    3    0    0  0.23116652013E+02  0.19203969821E+02  0.29487034340E+02  0.42102936374E+02  0.00000000000E+00 0. -1.
         22    1    4    4    0    0 -0.10279652854E+01 -0.27240527951E+00 -0.56564061931E+01  0.57555059105E+01  0.00000000000E+00 0. -1.
         22    1    4    4    0    0 -0.22088686728E+02 -0.18931564541E+02 -0.29303408298E+02  0.41291693537E+02  0.00000000000E+00 0. -1.
<mgrwt>
<rscale>  0 0.88981995E+02</rscale>
<asrwt>0</asrwt>
<pdfrwt beam="2">  1        2 0.72786858E-02 0.88981995E+02</pdfrwt>
<pdfrwt beam="1">  1       -2 0.64367197E-02 0.88981995E+02</pdfrwt>
<totfact> 0.10680389E+05</totfact>
</mgrwt>
</event>
<event>
 7    1  0.3960685E-009  0.9038768E+02  0.7818608E-02  0.1301916E+00
          2   -1    0    0  501    0  0.00000000000E+00  0.00000000000E+00  0.14290843581E+01  0.14290866332E+01  0.25500000000E-02 0. -1.
         -2   -1    0    0    0  501 -0.00000000000E+00 -0.00000000000E+00 -0.14292238526E+04  0.14292238526E+04  0.25500000000E-02 0.  1.
         23    2    1    2    0    0  0.00000000000E+00  0.00000000000E+00 -0.14277947683E+04  0.14306529393E+04  0.90387677945E+02 0.  0.
    9000005    2    3    3    0    0 -0.81044096482E+01  0.83663703725E+01 -0.14047368621E+04  0.14048199246E+04  0.98838877610E+01 0.  0.
         22    1    3    3    0    0  0.81044096482E+01 -0.83663703725E+01 -0.23057906161E+02  0.25833014642E+02  0.00000000000E+00 0. -1.
         22    1    4    4    0    0 -0.33813556177E+01 -0.74359087459E+00 -0.14522896829E+03  0.14527023000E+03  0.00000000000E+00 0.  1.
         22    1    4    4    0    0 -0.47230540305E+01  0.91099612471E+01 -0.12595078938E+04  0.12595496946E+04  0.00000000000E+00 0.  1.
<mgrwt>
<rscale>  0 0.90387678E+02</rscale>
<asrwt>0</asrwt>
<pdfrwt beam="1">  1        2 0.21986045E-03 0.90387678E+02</pdfrwt>
<pdfrwt beam="2">  1       -2 0.21987945E+00 0.90387678E+02</pdfrwt>
<totfact> 0.11753686E+04</totfact>
</mgrwt>
</event>
<event>
 6    1  0.3960685E-009  0.2204361E+03  0.7818608E-02  0.1133558E+00
         -2   -1    0    0    0  501 -0.00000000000E+00  0.00000000000E+00  0.34435751603E+03  0.34435751604E+03  0.25500000000E-02 0.  1.
          2   -1    0    0  501    0  0.00000000000E+00 -0.00000000000E+00 -0.35277336426E+02  0.35277336518E+02  0.25500000000E-02 0. -1.
    9000005    2    1    2    0    0 -0.65287033112E+02 -0.35195403827E+02  0.14918451704E+02  0.76266701124E+02  0.96403504103E+01 0.  0.
         22    1    1    2    0    0  0.65287033112E+02  0.35195403827E+02  0.29416172790E+03  0.30336815144E+03  0.00000000000E+00 0.  1.
         22    1    3    3    0    0 -0.26330508147E+02 -0.19415982254E+02  0.78768910065E+01  0.33649984221E+02  0.00000000000E+00 0. -1.
         22    1    3    3    0    0 -0.38956524965E+02 -0.15779421573E+02  0.70415606973E+01  0.42616716903E+02  0.00000000000E+00 0. -1.
<mgrwt>
<rscale>  0 0.22043608E+03</rscale>
<asrwt>0</asrwt>
<pdfrwt beam="2">  1        2 0.54272824E-02 0.22043608E+03</pdfrwt>
<pdfrwt beam="1">  1       -2 0.52978081E-01 0.22043608E+03</pdfrwt>
<totfact> 0.47337000E+03</totfact>
</mgrwt>
</event>
<event>
 7    1  0.3960685E-009  0.9153488E+02  0.7818608E-02  0.1299177E+00
         -2   -1    0    0    0  501 -0.00000000000E+00  0.00000000000E+00  0.23035393679E+01  0.23035407793E+01  0.25500000000E-02 0.  1.
          2   -1    0    0  501    0  0.00000000000E+00 -0.00000000000E+00 -0.90932156610E+03  0.90932156610E+03  0.25500000000E-02 0. -1.
         23    2    1    2    0    0  0.00000000000E+00  0.00000000000E+00 -0.90701802673E+03  0.91162510688E+03  0.91534882325E+02 0.  0.
    9000005    2    3    3    0    0 -0.13324516814E+02 -0.38261940902E+01 -0.88777044760E+03  0.88790482417E+03  0.68137098470E+01 0.  0.
         22    1    3    3    0    0  0.13324516814E+02  0.38261940902E+01 -0.19247579130E+02  0.23720282711E+02  0.00000000000E+00 0.  1.
         22    1    4    4    0    0 -0.62460129502E+01  0.13332089941E+01 -0.46321578688E+03  0.46325981407E+03  0.00000000000E+00 0.  1.
         22    1    4    4    0    0 -0.70785038637E+01 -0.51594030843E+01 -0.42455466072E+03  0.42464501009E+03  0.00000000000E+00 0.  1.
<mgrwt>
<rscale>  0 0.91534882E+02</rscale>
<asrwt>0</asrwt>
<pdfrwt beam="2">  1        2 0.13989534E+00 0.91534882E+02</pdfrwt>
<pdfrwt beam="1">  1       -2 0.35439151E-03 0.91534882E+02</pdfrwt>
<totfact> 0.24567126E+05</totfact>
</mgrwt>
</event>
<event>
 7    1  0.3960685E-009  0.1128389E+03  0.7818608E-02  0.1255401E+00
         -2   -1    0    0    0  501 -0.00000000000E+00  0.00000000000E+00  0.25158760371E+02  0.25158760501E+02  0.25500000000E-02 0. -1.
          2   -1    0    0  501    0  0.00000000000E+00 -0.00000000000E+00 -0.12652280896E+03  0.12652280898E+03  0.25500000000E-02 0.  1.
         23    2    1    2    0    0  0.00000000000E+00  0.71054273576E-14 -0.10136404858E+03  0.15168156948E+03  0.11283894795E+03 0.  0.
    9000005    2    3    3    0    0 -0.24056171985E+02 -0.45873832635E+02 -0.80072750831E+02  0.95677754512E+02  0.77122857621E+01 0.  0.
         22    1    3    3    0    0  0.24056171985E+02  0.45873832635E+02 -0.21291297754E+02  0.56003814970E+02  0.00000000000E+00 0. -1.
         22    1    4    4    0    0 -0.11547369561E+02 -0.14309913946E+02 -0.29680215768E+02  0.34914618557E+02  0.00000000000E+00 0.  1.
         22    1    4    4    0    0 -0.12508802424E+02 -0.31563918689E+02 -0.50392535063E+02  0.60763135956E+02  0.00000000000E+00 0.  1.
<mgrwt>
<rscale>  0 0.11283895E+03</rscale>
<asrwt>0</asrwt>
<pdfrwt beam="2">  1        2 0.19465047E-01 0.11283895E+03</pdfrwt>
<pdfrwt beam="1">  1       -2 0.38705786E-02 0.11283895E+03</pdfrwt>
<totfact> 0.73165169E+04</totfact>
</mgrwt>
</event>
<event>
 7    1  0.3960685E-009  0.1004107E+03  0.7818608E-02  0.1279435E+00
          2   -1    0    0  501    0  0.00000000000E+00  0.00000000000E+00  0.18388957172E+02  0.18388957349E+02  0.25500000000E-02 0. -1.
         -2   -1    0    0    0  501 -0.00000000000E+00 -0.00000000000E+00 -0.13707017827E+03  0.13707017830E+03  0.25500000000E-02 0.  1.
         23    2    1    2    0    0  0.00000000000E+00  0.00000000000E+00 -0.11868122110E+03  0.15545913565E+03  0.10041070966E+03 0.  0.
    9000005    2    3    3    0    0 -0.15370351642E+02 -0.26348991809E+02 -0.12096231119E+03  0.12486958758E+03  0.54786945823E+01 0.  0.
         22    1    3    3    0    0  0.15370351642E+02  0.26348991809E+02  0.22810900915E+01  0.30589548067E+02  0.00000000000E+00 0. -1.
         22    1    4    4    0    0 -0.31703751097E+01 -0.63921533138E+01 -0.20045756843E+02  0.21277764679E+02  0.00000000000E+00 0.  1.
         22    1    4    4    0    0 -0.12199976532E+02 -0.19956838495E+02 -0.10091655435E+03  0.10359182290E+03  0.00000000000E+00 0.  1.
<mgrwt>
<rscale>  0 0.10041071E+03</rscale>
<asrwt>0</asrwt>
<pdfrwt beam="1">  1        2 0.28290704E-02 0.10041071E+03</pdfrwt>
<pdfrwt beam="2">  1       -2 0.21087719E-01 0.10041071E+03</pdfrwt>
<totfact> 0.56538090E+04</totfact>
</mgrwt>
</event>
<event>
 7    1  0.3960685E-009  0.8927729E+02  0.7818608E-02  0.1304611E+00
         -2   -1    0    0    0  501 -0.00000000000E+00  0.00000000000E+00  0.14381646609E+03  0.14381646612E+03  0.25500000000E-02 0.  1.
          2   -1    0    0  501    0  0.00000000000E+00 -0.00000000000E+00 -0.13855217658E+02  0.13855217893E+02  0.25500000000E-02 0. -1.
         23    2    1    2    0    0 -0.88817841970E-15  0.00000000000E+00  0.12996124843E+03  0.15767168401E+03  0.89277286268E+02 0.  0.
    9000005    2    3    3    0    0 -0.61019533042E+01 -0.36387878483E+02  0.26309123568E+02  0.47648620408E+02  0.14727848088E+02 0.  0.
         22    1    3    3    0    0  0.61019533042E+01  0.36387878483E+02  0.10365212487E+03  0.11002306360E+03  0.00000000000E+00 0.  1.
         22    1    4    4    0    0 -0.10210925675E+02 -0.32038925110E+02  0.23593637372E+02  0.41078162688E+02  0.00000000000E+00 0.  1.
         22    1    4    4    0    0  0.41089723705E+01 -0.43489533726E+01  0.27154861955E+01  0.65704577205E+01  0.00000000000E+00 0.  1.
<mgrwt>
<rscale>  0 0.89277286E+02</rscale>
<asrwt>0</asrwt>
<pdfrwt beam="2">  1        2 0.21315721E-02 0.89277286E+02</pdfrwt>
<pdfrwt beam="1">  1       -2 0.22125609E-01 0.89277286E+02</pdfrwt>
<totfact> 0.74796072E+04</totfact>
</mgrwt>
</event>
<event>
 7    1  0.3960685E-009  0.8780619E+02  0.7818608E-02  0.1308253E+00
          2   -1    0    0  501    0  0.00000000000E+00  0.00000000000E+00  0.48247360901E+02  0.48247360968E+02  0.25500000000E-02 0. -1.
         -2   -1    0    0    0  501 -0.00000000000E+00 -0.00000000000E+00 -0.39949991190E+02  0.39949991271E+02  0.25500000000E-02 0.  1.
         23    2    1    2    0    0  0.00000000000E+00 -0.88817841970E-15  0.82973697116E+01  0.88197352239E+02  0.87806187697E+02 0.  0.
    9000005    2    3    3    0    0 -0.36861713278E+02 -0.60928672871E+01  0.24960512798E+02  0.47288071201E+02  0.14738573242E+02 0.  0.
         22    1    3    3    0    0  0.36861713278E+02  0.60928672871E+01 -0.16663143087E+02  0.40909281038E+02  0.00000000000E+00 0.  1.
         22    1    4    4    0    0 -0.37944837759E+01  0.19963148795E+01  0.84009397397E+01  0.94318168310E+01  0.00000000000E+00 0.  1.
         22    1    4    4    0    0 -0.33067229502E+02 -0.80891821665E+01  0.16559573059E+02  0.37856254370E+02  0.00000000000E+00 0.  1.
<mgrwt>
<rscale>  0 0.87806188E+02</rscale>
<asrwt>0</asrwt>
<pdfrwt beam="1">  1        2 0.74226709E-02 0.87806188E+02</pdfrwt>
<pdfrwt beam="2">  1       -2 0.61461525E-02 0.87806188E+02</pdfrwt>
<totfact> 0.11147191E+05</totfact>
</mgrwt>
</event>
<event>
 7    1  0.5204352E-009  0.9073767E+02  0.7818608E-02  0.1301075E+00
          2   -1    0    0  501    0  0.00000000000E+00  0.00000000000E+00  0.74764478617E+03  0.74764478617E+03  0.25500000000E-02 0. -1.
         -2   -1    0    0    0  501 -0.00000000000E+00 -0.00000000000E+00 -0.27530862199E+01  0.27530874009E+01  0.25500000000E-02 0.  1.
         23    2    1    2    0    0  0.00000000000E+00  0.00000000000E+00  0.74489169995E+03  0.75039787358E+03  0.90737665893E+02 0.  0.
    9000005    2    3    3    0    0 -0.93208694813E+01  0.36930568158E+02  0.56986254236E+03  0.57127235480E+03  0.12571423669E+02 0.  0.
         22    1    3    3    0    0  0.93208694813E+01 -0.36930568158E+02  0.17502915759E+03  0.17912551878E+03  0.00000000000E+00 0.  1.
         22    1    4    4    0    0 -0.92568750327E+01  0.36998634758E+02  0.51520457715E+03  0.51661430974E+03  0.00000000000E+00 0.  1.
         22    1    4    4    0    0 -0.63994448621E-01 -0.68066599934E-01  0.54657965217E+02  0.54658045062E+02  0.00000000000E+00 0.  1.
<mgrwt>
<rscale>  0 0.90737666E+02</rscale>
<asrwt>0</asrwt>
<pdfrwt beam="1">  1        2 0.11502225E+00 0.90737666E+02</pdfrwt>
<pdfrwt beam="2">  1       -2 0.42355191E-03 0.90737666E+02</pdfrwt>
<totfact> 0.24368417E+05</totfact>
</mgrwt>
</event>
<event>
 7    1  0.3960685E-009  0.1003844E+03  0.7818608E-02  0.1279490E+00
          2   -1    0    0  501    0  0.00000000000E+00  0.00000000000E+00  0.27423392302E+03  0.27423392303E+03  0.25500000000E-02 0. -1.
         -2   -1    0    0    0  501 -0.00000000000E+00 -0.00000000000E+00 -0.91865340183E+01  0.91865343723E+01  0.25500000000E-02 0.  1.
         23    2    1    2    0    0  0.35527136788E-14  0.71054273576E-14  0.26504738900E+03  0.28342045741E+03  0.10038444729E+03 0.  0.
    9000005    2    3    3    0    0  0.28270357312E+02  0.39366446385E+02  0.16277167016E+03  0.17024248751E+03  0.11788033992E+02 0.  0.
         22    1    3    3    0    0 -0.28270357312E+02 -0.39366446385E+02  0.10227571885E+03  0.11317796989E+03  0.00000000000E+00 0.  1.
         22    1    4    4    0    0  0.21546401811E+02  0.35130411189E+02  0.14561802308E+03  0.15133737763E+03  0.00000000000E+00 0. -1.
         22    1    4    4    0    0  0.67239555010E+01  0.42360351961E+01  0.17153647078E+02  0.18905109887E+02  0.00000000000E+00 0. -1.
<mgrwt>
<rscale>  0 0.10038445E+03</rscale>
<asrwt>0</asrwt>
<pdfrwt beam="1">  1        2 0.42189833E-01 0.10038445E+03</pdfrwt>
<pdfrwt beam="2">  1       -2 0.14133130E-02 0.10038445E+03</pdfrwt>
<totfact> 0.13414269E+05</totfact>
</mgrwt>
</event>
<event>
 7    1  0.3960685E-009  0.9279075E+02  0.7818608E-02  0.1296231E+00
         -2   -1    0    0    0  501 -0.00000000000E+00  0.00000000000E+00  0.10565162546E+03  0.10565162549E+03  0.25500000000E-02 0.  1.
          2   -1    0    0  501    0  0.00000000000E+00 -0.00000000000E+00 -0.20373853588E+02  0.20373853747E+02  0.25500000000E-02 0. -1.
         23    2    1    2    0    0  0.11102230246E-15  0.35527136788E-14  0.85277771872E+02  0.12602547924E+03  0.92790748686E+02 0.  0.
    9000005    2    3    3    0    0  0.97547091687E+00  0.27953626646E+02 -0.62401567549E+01  0.30328624293E+02  0.99261830024E+01 0.  0.
         22    1    3    3    0    0 -0.97547091687E+00 -0.27953626646E+02  0.91517928627E+02  0.95696854945E+02  0.00000000000E+00 0.  1.
         22    1    4    4    0    0  0.30631334962E+01  0.24357340142E+02 -0.79905941934E+01  0.25816901463E+02  0.00000000000E+00 0. -1.
         22    1    4    4    0    0 -0.20876625793E+01  0.35962865044E+01  0.17504374385E+01  0.45117228298E+01  0.00000000000E+00 0. -1.
<mgrwt>
<rscale>  0 0.92790749E+02</rscale>
<asrwt>0</asrwt>
<pdfrwt beam="2">  1        2 0.31344390E-02 0.92790749E+02</pdfrwt>
<pdfrwt beam="1">  1       -2 0.16254097E-01 0.92790749E+02</pdfrwt>
<totfact> 0.75128242E+04</totfact>
</mgrwt>
</event>
<event>
 7    1  0.3960685E-009  0.9064903E+02  0.7818608E-02  0.1301288E+00
          2   -1    0    0  501    0  0.00000000000E+00  0.00000000000E+00  0.28612105722E+02  0.28612105835E+02  0.25500000000E-02 0. -1.
         -2   -1    0    0    0  501 -0.00000000000E+00 -0.00000000000E+00 -0.71798684483E+02  0.71798684529E+02  0.25500000000E-02 0.  1.
         23    2    1    2    0    0  0.00000000000E+00  0.00000000000E+00 -0.43186578762E+02  0.10041079036E+03  0.90649027774E+02 0.  0.
    9000005    2    3    3    0    0 -0.36611690904E+02 -0.11301179665E+02 -0.46435246166E+02  0.61957098571E+02  0.14639583469E+02 0.  0.
         22    1    3    3    0    0  0.36611690904E+02  0.11301179665E+02  0.32486674044E+01  0.38453691793E+02  0.00000000000E+00 0. -1.
         22    1    4    4    0    0 -0.30406336809E+02 -0.53845765804E+01 -0.42473089266E+02  0.52511925263E+02  0.00000000000E+00 0. -1.
         22    1    4    4    0    0 -0.62053540948E+01 -0.59166030847E+01 -0.39621569003E+01  0.94451733074E+01  0.00000000000E+00 0. -1.
<mgrwt>
<rscale>  0 0.90649028E+02</rscale>
<asrwt>0</asrwt>
<pdfrwt beam="1">  1        2 0.44018624E-02 0.90649028E+02</pdfrwt>
<pdfrwt beam="2">  1       -2 0.11045951E-01 0.90649028E+02</pdfrwt>
<totfact> 0.88872019E+04</totfact>
</mgrwt>
</event>
<event>
 6    1  0.3960685E-009  0.1549156E+03  0.7818608E-02  0.1194560E+00
         -2   -1    0    0    0  501 -0.00000000000E+00  0.00000000000E+00  0.23905812394E+03  0.23905812396E+03  0.25500000000E-02 0.  1.
          2   -1    0    0  501    0  0.00000000000E+00 -0.00000000000E+00 -0.25097302232E+02  0.25097302361E+02  0.25500000000E-02 0. -1.
    9000005    2    1    2    0    0 -0.44303860652E+02 -0.28589794416E+02  0.20311788731E+03  0.21032441630E+03  0.14116498526E+02 0.  0.
         22    1    1    2    0    0  0.44303860652E+02  0.28589794416E+02  0.10842934398E+02  0.53831010020E+02  0.00000000000E+00 0. -1.
         22    1    3    3    0    0 -0.98522843964E+01 -0.13976480564E+02  0.68438287140E+02  0.70542247366E+02  0.00000000000E+00 0. -1.
         22    1    3    3    0    0 -0.34451576256E+02 -0.14613313852E+02  0.13467960017E+03  0.13978216893E+03  0.00000000000E+00 0. -1.
<mgrwt>
<rscale>  0 0.15491564E+03</rscale>
<asrwt>0</asrwt>
<pdfrwt beam="2">  1        2 0.38611234E-02 0.15491564E+03</pdfrwt>
<pdfrwt beam="1">  1       -2 0.36778173E-01 0.15491564E+03</pdfrwt>
<totfact> 0.14667668E+04</totfact>
</mgrwt>
</event>
<event>
 7    1  0.3960685E-009  0.9098630E+02  0.7818608E-02  0.1300481E+00
          2   -1    0    0  501    0  0.00000000000E+00  0.00000000000E+00  0.29354888341E+02  0.29354888452E+02  0.25500000000E-02 0. -1.
         -2   -1    0    0    0  501 -0.00000000000E+00 -0.00000000000E+00 -0.70503643569E+02  0.70503643615E+02  0.25500000000E-02 0.  1.
         23    2    1    2    0    0  0.35527136788E-14  0.00000000000E+00 -0.41148755228E+02  0.99858532067E+02  0.90986297704E+02 0.  0.
    9000005    2    3    3    0    0  0.16783322046E+02  0.95418023156E+01  0.23966088173E+02  0.31941901398E+02  0.85548695047E+01 0.  0.
         22    1    3    3    0    0 -0.16783322046E+02 -0.95418023156E+01 -0.65114843401E+02  0.67916630670E+02  0.00000000000E+00 0.  1.
         22    1    4    4    0    0  0.16784333606E+02  0.87941643343E+01  0.18697175318E+02  0.26620209350E+02  0.00000000000E+00 0. -1.
         22    1    4    4    0    0 -0.10115607341E-02  0.74763798137E+00  0.52689128557E+01  0.53216920482E+01  0.00000000000E+00 0. -1.
<mgrwt>
<rscale>  0 0.90986298E+02</rscale>
<asrwt>0</asrwt>
<pdfrwt beam="1">  1        2 0.45161367E-02 0.90986298E+02</pdfrwt>
<pdfrwt beam="2">  1       -2 0.10846714E-01 0.90986298E+02</pdfrwt>
<totfact> 0.88501952E+04</totfact>
</mgrwt>
</event>
<event>
 7    1  0.3960685E-009  0.8885946E+02  0.7818608E-02  0.1305637E+00
          2   -1    0    0  501    0  0.00000000000E+00  0.00000000000E+00  0.21555497610E+03  0.21555497611E+03  0.25500000000E-02 0. -1.
         -2   -1    0    0    0  501 -0.00000000000E+00 -0.00000000000E+00 -0.91577598184E+01  0.91577601734E+01  0.25500000000E-02 0.  1.
         23    2    1    2    0    0  0.00000000000E+00  0.00000000000E+00  0.20639721628E+03  0.22471273629E+03  0.88859456229E+02 0.  0.
    9000005    2    3    3    0    0 -0.90299524346E+01 -0.33812204598E+02  0.43386715036E+02  0.57987726955E+02  0.15980119370E+02 0.  0.
         22    1    3    3    0    0  0.90299524346E+01  0.33812204598E+02  0.16301050124E+03  0.16672500933E+03  0.00000000000E+00 0. -1.
         22    1    4    4    0    0 -0.39782633929E+01 -0.18570083934E+02  0.11278062020E+02  0.22087763125E+02  0.00000000000E+00 0.  1.
         22    1    4    4    0    0 -0.50516890418E+01 -0.15242120664E+02  0.32108653016E+02  0.35899963830E+02  0.00000000000E+00 0.  1.
<mgrwt>
<rscale>  0 0.88859456E+02</rscale>
<asrwt>0</asrwt>
<pdfrwt beam="1">  1        2 0.33162302E-01 0.88859456E+02</pdfrwt>
<pdfrwt beam="2">  1       -2 0.14088863E-02 0.88859456E+02</pdfrwt>
<totfact> 0.17031037E+05</totfact>
</mgrwt>
</event>
<event>
 7    1  0.3960685E-009  0.9820834E+02  0.7818608E-02  0.1284109E+00
         -2   -1    0    0    0  501 -0.00000000000E+00  0.00000000000E+00  0.13557243402E+02  0.13557243642E+02  0.25500000000E-02 0.  1.
          2   -1    0    0  501    0  0.00000000000E+00 -0.00000000000E+00 -0.17785469447E+03  0.17785469448E+03  0.25500000000E-02 0. -1.
         23    2    1    2    0    0  0.00000000000E+00  0.00000000000E+00 -0.16429745106E+03  0.19141193813E+03  0.98208337890E+02 0.  0.
    9000005    2    3    3    0    0 -0.20954246189E+02 -0.34881044159E+02 -0.32014732167E+02  0.53012207658E+02  0.11383470912E+02 0.  0.
         22    1    3    3    0    0  0.20954246189E+02  0.34881044159E+02 -0.13228271890E+03  0.13839973047E+03  0.00000000000E+00 0. -1.
         22    1    4    4    0    0 -0.90704291420E+01 -0.25568624785E+02 -0.21448923074E+02  0.34584441000E+02  0.00000000000E+00 0.  1.
         22    1    4    4    0    0 -0.11883817047E+02 -0.93124193739E+01 -0.10565809093E+02  0.18427766658E+02  0.00000000000E+00 0.  1.
<mgrwt>
<rscale>  0 0.98208338E+02</rscale>
<asrwt>0</asrwt>
<pdfrwt beam="2">  1        2 0.27362259E-01 0.98208338E+02</pdfrwt>
<pdfrwt beam="1">  1       -2 0.20857299E-02 0.98208338E+02</pdfrwt>
<totfact> 0.12122461E+05</totfact>
</mgrwt>
</event>
<event>
 7    1  0.3960685E-009  0.9143506E+02  0.7818608E-02  0.1299413E+00
          2   -1    0    0  501    0  0.00000000000E+00  0.00000000000E+00  0.11034513187E+03  0.11034513190E+03  0.25500000000E-02 0. -1.
         -2   -1    0    0    0  501 -0.00000000000E+00 -0.00000000000E+00 -0.18941413067E+02  0.18941413239E+02  0.25500000000E-02 0.  1.
         23    2    1    2    0    0  0.00000000000E+00  0.00000000000E+00  0.91403718799E+02  0.12928654513E+03  0.91435064076E+02 0.  0.
    9000005    2    3    3    0    0 -0.17802777948E+02  0.11669064670E+02 -0.94292607344E+01  0.26231240882E+02  0.12085572692E+02 0.  0.
         22    1    3    3    0    0  0.17802777948E+02 -0.11669064670E+02  0.10083297953E+03  0.10305530425E+03  0.00000000000E+00 0. -1.
         22    1    4    4    0    0 -0.93501117635E+01  0.70048200579E+01  0.13500279921E+01  0.11760725726E+02  0.00000000000E+00 0.  1.
         22    1    4    4    0    0 -0.84526661847E+01  0.46642446117E+01 -0.10779288726E+02  0.14470515156E+02  0.00000000000E+00 0.  1.
<mgrwt>
<rscale>  0 0.91435064E+02</rscale>
<asrwt>0</asrwt>
<pdfrwt beam="1">  1        2 0.16976174E-01 0.91435064E+02</pdfrwt>
<pdfrwt beam="2">  1       -2 0.29140636E-02 0.91435064E+02</pdfrwt>
<totfact> 0.12548377E+05</totfact>
</mgrwt>
</event>
<event>
 7    1  0.3960685E-009  0.9313960E+02  0.7818608E-02  0.1295422E+00
          2   -1    0    0  501    0  0.00000000000E+00  0.00000000000E+00  0.47653456230E+03  0.47653456230E+03  0.25500000000E-02 0. -1.
         -2   -1    0    0    0  501 -0.00000000000E+00 -0.00000000000E+00 -0.45510781856E+01  0.45510789000E+01  0.25500000000E-02 0.  1.
         23    2    1    2    0    0 -0.71054273576E-14  0.00000000000E+00  0.47198348411E+03  0.48108564120E+03  0.93139598982E+02 0.  0.
    9000005    2    3    3    0    0 -0.36410007094E+02 -0.18690271430E+02  0.34704967296E+03  0.34961902175E+03  0.10722406568E+02 0.  0.
         22    1    3    3    0    0  0.36410007094E+02  0.18690271430E+02  0.12493381115E+03  0.13146661945E+03  0.00000000000E+00 0.  1.
         22    1    4    4    0    0 -0.26915903941E+02 -0.16369832821E+02  0.29339513069E+03  0.29508158198E+03  0.00000000000E+00 0.  1.
         22    1    4    4    0    0 -0.94941031526E+01 -0.23204386086E+01  0.53654542269E+02  0.54537439765E+02  0.00000000000E+00 0.  1.
<mgrwt>
<rscale>  0 0.93139599E+02</rscale>
<asrwt>0</asrwt>
<pdfrwt beam="1">  1        2 0.73312984E-01 0.93139599E+02</pdfrwt>
<pdfrwt beam="2">  1       -2 0.70016617E-03 0.93139599E+02</pdfrwt>
<totfact> 0.20046119E+05</totfact>
</mgrwt>
</event>
<event>
 7    1  0.3960685E-009  0.1001446E+03  0.7818608E-02  0.1279992E+00
          2   -1    0    0  501    0  0.00000000000E+00  0.00000000000E+00  0.77749807397E+02  0.77749807439E+02  0.25500000000E-02 0. -1.
         -2   -1    0    0    0  501 -0.00000000000E+00 -0.00000000000E+00 -0.32247471712E+02  0.32247471813E+02  0.25500000000E-02 0.  1.
         23    2    1    2    0    0  0.00000000000E+00  0.00000000000E+00  0.45502335685E+02  0.10999727925E+03  0.10014458992E+03 0.  0.
    9000005    2    3    3    0    0  0.38759162988E+02  0.86096358443E+01 -0.10368493591E+02  0.41455699835E+02  0.58881953543E+01 0.  0.
         22    1    3    3    0    0 -0.38759162988E+02 -0.86096358443E+01  0.55870829276E+02  0.68541579417E+02  0.00000000000E+00 0. -1.
         22    1    4    4    0    0  0.29400775625E+01 -0.13601119473E+00  0.56610012132E+00  0.29971694089E+01  0.00000000000E+00 0. -1.
         22    1    4    4    0    0  0.35819085426E+02  0.87456470390E+01 -0.10934593712E+02  0.38458530426E+02  0.00000000000E+00 0. -1.
<mgrwt>
<rscale>  0 0.10014459E+03</rscale>
<asrwt>0</asrwt>
<pdfrwt beam="1">  1        2 0.11961509E-01 0.10014459E+03</pdfrwt>
<pdfrwt beam="2">  1       -2 0.49611495E-02 0.10014459E+03</pdfrwt>
<totfact> 0.87550877E+04</totfact>
</mgrwt>
</event>
<event>
 7    1  0.3960685E-009  0.9137905E+02  0.7818608E-02  0.1299546E+00
         -2   -1    0    0    0  501 -0.00000000000E+00  0.00000000000E+00  0.29078834864E+01  0.29078846045E+01  0.25500000000E-02 0.  1.
          2   -1    0    0  501    0  0.00000000000E+00 -0.00000000000E+00 -0.71788715598E+03  0.71788715599E+03  0.25500000000E-02 0. -1.
         23    2    1    2    0    0  0.00000000000E+00  0.00000000000E+00 -0.71497927250E+03  0.72079504059E+03  0.91379048158E+02 0.  0.
    9000005    2    3    3    0    0  0.39155280938E+02  0.93652424092E+01 -0.51708781334E+03  0.51884981684E+03  0.14299718013E+02 0.  0.
         22    1    3    3    0    0 -0.39155280938E+02 -0.93652424092E+01 -0.19789145915E+03  0.20194522375E+03  0.00000000000E+00 0.  1.
         22    1    4    4    0    0  0.38080715609E+02  0.58154662979E+01 -0.44401338140E+03  0.44568132495E+03  0.00000000000E+00 0. -1.
         22    1    4    4    0    0  0.10745653295E+01  0.35497761113E+01 -0.73074431941E+02  0.73168491884E+02  0.00000000000E+00 0. -1.
<mgrwt>
<rscale>  0 0.91379048E+02</rscale>
<asrwt>0</asrwt>
<pdfrwt beam="2">  1        2 0.11044404E+00 0.91379048E+02</pdfrwt>
<pdfrwt beam="1">  1       -2 0.44736735E-03 0.91379048E+02</pdfrwt>
<totfact> 0.23712187E+05</totfact>
</mgrwt>
</event>
<event>
 7    1  0.4315593E-009  0.9133035E+02  0.7818608E-02  0.1299662E+00
         -2   -1    0    0    0  501 -0.00000000000E+00  0.00000000000E+00  0.44314158770E+02  0.44314158843E+02  0.25500000000E-02 0.  1.
          2   -1    0    0  501    0  0.00000000000E+00 -0.00000000000E+00 -0.47057379467E+02  0.47057379536E+02  0.25500000000E-02 0. -1.
         23    2    1    2    0    0  0.00000000000E+00  0.00000000000E+00 -0.27432206975E+01  0.91371538379E+02  0.91330349643E+02 0.  0.
    9000005    2    3    3    0    0 -0.26372377816E+02  0.18793812294E+02 -0.31838971540E+02  0.47836811904E+02  0.15030993721E+02 0.  0.
         22    1    3    3    0    0  0.26372377816E+02 -0.18793812294E+02  0.29095750843E+02  0.43534726475E+02  0.00000000000E+00 0.  1.
         22    1    4    4    0    0 -0.21895603772E+02  0.69823638291E+01 -0.18910195981E+02  0.29761827585E+02  0.00000000000E+00 0.  1.
         22    1    4    4    0    0 -0.44767740442E+01  0.11811448464E+02 -0.12928775559E+02  0.18074984319E+02  0.00000000000E+00 0.  1.
<mgrwt>
<rscale>  0 0.91330350E+02</rscale>
<asrwt>0</asrwt>
<pdfrwt beam="2">  1        2 0.72395969E-02 0.91330350E+02</pdfrwt>
<pdfrwt beam="1">  1       -2 0.68175629E-02 0.91330350E+02</pdfrwt>
<totfact> 0.99012373E+04</totfact>
</mgrwt>
</event>
<event>
 6    1  0.5000219E-009  0.1487879E+03  0.7818608E-02  0.1201970E+00
          2   -1    0    0  501    0  0.00000000000E+00  0.00000000000E+00  0.12300964979E+04  0.12300964979E+04  0.25500000000E-02 0. -1.
         -2   -1    0    0    0  501 -0.00000000000E+00 -0.00000000000E+00 -0.44992063255E+01  0.44992070481E+01  0.25500000000E-02 0.  1.
    9000005    2    1    2    0    0  0.15039932936E+02  0.53760017694E+02  0.10183665171E+04  0.10199775953E+04  0.12945761886E+02 0.  0.
         22    1    1    2    0    0 -0.15039932936E+02 -0.53760017694E+02  0.20723077445E+03  0.21461810959E+03  0.00000000000E+00 0.  1.
         22    1    3    3    0    0  0.10329301193E+02  0.46639684354E+02  0.78262201945E+03  0.78407855470E+03  0.00000000000E+00 0. -1.
         22    1    3    3    0    0  0.47106317429E+01  0.71203333403E+01  0.23574449765E+03  0.23589904063E+03  0.00000000000E+00 0. -1.
<mgrwt>
<rscale>  0 0.14878788E+03</rscale>
<asrwt>0</asrwt>
<pdfrwt beam="1">  1        2 0.18924564E+00 0.14878788E+03</pdfrwt>
<pdfrwt beam="2">  1       -2 0.69218555E-03 0.14878788E+03</pdfrwt>
<totfact> 0.66239160E+04</totfact>
</mgrwt>
</event>
<event>
 7    1  0.3960685E-009  0.9162090E+02  0.7818608E-02  0.1298973E+00
          2   -1    0    0  501    0  0.00000000000E+00  0.00000000000E+00  0.13599135063E+03  0.13599135066E+03  0.25500000000E-02 0. -1.
         -2   -1    0    0    0  501 -0.00000000000E+00 -0.00000000000E+00 -0.15431845536E+02  0.15431845747E+02  0.25500000000E-02 0.  1.
         23    2    1    2    0    0  0.00000000000E+00  0.17763568394E-14  0.12055950510E+03  0.15142319641E+03  0.91620904492E+02 0.  0.
    9000005    2    3    3    0    0 -0.19936288108E+02  0.66160876180E+01  0.12708831169E+03  0.12942652588E+03  0.12591998798E+02 0.  0.
         22    1    3    3    0    0  0.19936288108E+02 -0.66160876180E+01 -0.65288065891E+01  0.21996670529E+02  0.00000000000E+00 0.  1.
         22    1    4    4    0    0 -0.18264540628E+02  0.83851313231E+01  0.12327606649E+03  0.12490353254E+03  0.00000000000E+00 0.  1.
         22    1    4    4    0    0 -0.16717474796E+01 -0.17690437052E+01  0.38122451953E+01  0.45229933336E+01  0.00000000000E+00 0.  1.
<mgrwt>
<rscale>  0 0.91620904E+02</rscale>
<asrwt>0</asrwt>
<pdfrwt beam="1">  1        2 0.20921747E-01 0.91620904E+02</pdfrwt>
<pdfrwt beam="2">  1       -2 0.23741301E-02 0.91620904E+02</pdfrwt>
<totfact> 0.13349775E+05</totfact>
</mgrwt>
</event>
<event>
 7    1  0.3960685E-009  0.9109386E+02  0.7818608E-02  0.1300224E+00
          2   -1    0    0  501    0  0.00000000000E+00  0.00000000000E+00  0.81684765401E+03  0.81684765401E+03  0.25500000000E-02 0. -1.
         -2   -1    0    0    0  501 -0.00000000000E+00 -0.00000000000E+00 -0.25396685151E+01  0.25396697952E+01  0.25500000000E-02 0.  1.
         23    2    1    2    0    0  0.17763568394E-14  0.00000000000E+00  0.81430798549E+03  0.81938732381E+03  0.91093859170E+02 0.  0.
    9000005    2    3    3    0    0 -0.86786918174E+01 -0.35035604594E+02  0.65030765531E+03  0.65146197855E+03  0.14136819150E+02 0.  0.
         22    1    3    3    0    0  0.86786918174E+01  0.35035604594E+02  0.16400033018E+03  0.16792534526E+03  0.00000000000E+00 0.  1.
         22    1    4    4    0    0  0.31043391939E+01 -0.16407160018E+02  0.29164420832E+03  0.29212185140E+03  0.00000000000E+00 0.  1.
         22    1    4    4    0    0 -0.11783031011E+02 -0.18628444576E+02  0.35866344699E+03  0.35934012714E+03  0.00000000000E+00 0.  1.
<mgrwt>
<rscale>  0 0.91093859E+02</rscale>
<asrwt>0</asrwt>
<pdfrwt beam="1">  1        2 0.12566903E+00 0.91093859E+02</pdfrwt>
<pdfrwt beam="2">  1       -2 0.39071785E-03 0.91093859E+02</pdfrwt>
<totfact> 0.24519513E+05</totfact>
</mgrwt>
</event>
<event>
 7    1  0.3960685E-009  0.9212210E+02  0.7818608E-02  0.1297793E+00
          2   -1    0    0  501    0  0.00000000000E+00  0.00000000000E+00  0.98389758586E+01  0.98389761891E+01  0.25500000000E-02 0.  1.
         -2   -1    0    0    0  501 -0.00000000000E+00 -0.00000000000E+00 -0.21563425923E+03  0.21563425924E+03  0.25500000000E-02 0. -1.
         23    2    1    2    0    0 -0.17763568394E-14  0.00000000000E+00 -0.20579528337E+03  0.22547323543E+03  0.92122099624E+02 0.  0.
    9000005    2    3    3    0    0  0.12604790076E+02  0.41452768587E+02 -0.13363272133E+03  0.14130288366E+03  0.15218014516E+02 0.  0.
         22    1    3    3    0    0 -0.12604790076E+02 -0.41452768587E+02 -0.72162562041E+02  0.84170351767E+02  0.00000000000E+00 0. -1.
         22    1    4    4    0    0 -0.16045925450E+01  0.20142804477E+02 -0.63644871713E+02  0.66775571767E+02  0.00000000000E+00 0.  1.
         22    1    4    4    0    0  0.14209382621E+02  0.21309964110E+02 -0.69987849614E+02  0.74527311896E+02  0.00000000000E+00 0.  1.
<mgrwt>
<rscale>  0 0.92122100E+02</rscale>
<asrwt>0</asrwt>
<pdfrwt beam="1">  1        2 0.15136888E-02 0.92122100E+02</pdfrwt>
<pdfrwt beam="2">  1       -2 0.33174498E-01 0.92122100E+02</pdfrwt>
<totfact> 0.58702806E+04</totfact>
</mgrwt>
</event>
<event>
 7    1  0.3960685E-009  0.9260188E+02  0.7818608E-02  0.1296670E+00
          2   -1    0    0  501    0  0.00000000000E+00  0.00000000000E+00  0.48543832093E+02  0.48543832160E+02  0.25500000000E-02 0.  1.
         -2   -1    0    0    0  501 -0.00000000000E+00 -0.00000000000E+00 -0.44161676802E+02  0.44161676875E+02  0.25500000000E-02 0. -1.
         23    2    1    2    0    0  0.00000000000E+00  0.00000000000E+00  0.43821552915E+01  0.92705509035E+02  0.92601879681E+02 0.  0.
    9000005    2    3    3    0    0  0.25059045536E+02 -0.56909596173E+01 -0.35248754426E+02  0.45472556666E+02  0.12842738673E+02 0.  0.
         22    1    3    3    0    0 -0.25059045536E+02  0.56909596173E+01  0.39630909717E+02  0.47232952370E+02  0.00000000000E+00 0.  1.
         22    1    4    4    0    0  0.19132392729E+00 -0.56580252806E+00 -0.87597024370E+01  0.87800412374E+01  0.00000000000E+00 0. -1.
         22    1    4    4    0    0  0.24867721608E+02 -0.51251570892E+01 -0.26489051989E+02  0.36692515428E+02  0.00000000000E+00 0. -1.
<mgrwt>
<rscale>  0 0.92601880E+02</rscale>
<asrwt>0</asrwt>
<pdfrwt beam="1">  1        2 0.74682819E-02 0.92601880E+02</pdfrwt>
<pdfrwt beam="2">  1       -2 0.67941041E-02 0.92601880E+02</pdfrwt>
<totfact> 0.95941321E+04</totfact>
</mgrwt>
</event>
<event>
 7    1  0.3960685E-009  0.9284150E+02  0.7818608E-02  0.1296113E+00
          2   -1    0    0  501    0  0.00000000000E+00  0.00000000000E+00  0.49169515428E+03  0.49169515429E+03  0.25500000000E-02 0. -1.
         -2   -1    0    0    0  501 -0.00000000000E+00 -0.00000000000E+00 -0.43825643929E+01  0.43825651348E+01  0.25500000000E-02 0.  1.
         23    2    1    2    0    0 -0.22204460493E-15  0.00000000000E+00  0.48731258989E+03  0.49607771942E+03  0.92841496347E+02 0.  0.
    9000005    2    3    3    0    0  0.11850493223E+01 -0.36497117894E+02  0.39377151440E+03  0.39566170098E+03  0.12598893310E+02 0.  0.
         22    1    3    3    0    0 -0.11850493223E+01  0.36497117894E+02  0.93541075488E+02  0.10041601844E+03  0.00000000000E+00 0.  1.
         22    1    4    4    0    0 -0.25341147609E+01 -0.34110745272E+02  0.35071082179E+03  0.35237486460E+03  0.00000000000E+00 0.  1.
         22    1    4    4    0    0  0.37191640831E+01 -0.23863726222E+01  0.43060692610E+02  0.43286836380E+02  0.00000000000E+00 0.  1.
<mgrwt>
<rscale>  0 0.92841496E+02</rscale>
<asrwt>0</asrwt>
<pdfrwt beam="1">  1        2 0.75645424E-01 0.92841496E+02</pdfrwt>
<pdfrwt beam="2">  1       -2 0.67424059E-03 0.92841496E+02</pdfrwt>
<totfact> 0.20428501E+05</totfact>
</mgrwt>
</event>
<event>
 7    1  0.3960685E-009  0.9161503E+02  0.7818608E-02  0.1298987E+00
         -2   -1    0    0    0  501 -0.00000000000E+00  0.00000000000E+00  0.25098094004E+01  0.25098106958E+01  0.25500000000E-02 0. -1.
          2   -1    0    0  501    0  0.00000000000E+00 -0.00000000000E+00 -0.83605065335E+03  0.83605065335E+03  0.25500000000E-02 0.  1.
         23    2    1    2    0    0  0.00000000000E+00  0.00000000000E+00 -0.83354084395E+03  0.83856046405E+03  0.91615027889E+02 0.  0.
    9000005    2    3    3    0    0 -0.23933885077E+02 -0.17587035898E+02 -0.73486039717E+03  0.73550724836E+03  0.83050816111E+01 0.  0.
         22    1    3    3    0    0  0.23933885077E+02  0.17587035898E+02 -0.98680446785E+02  0.10305321569E+03  0.00000000000E+00 0. -1.
         22    1    4    4    0    0 -0.22048936382E+02 -0.16543101428E+02 -0.71483229778E+03  0.71536357452E+03  0.00000000000E+00 0. -1.
         22    1    4    4    0    0 -0.18849486951E+01 -0.10439344697E+01 -0.20028099382E+02  0.20143673836E+02  0.00000000000E+00 0. -1.
<mgrwt>
<rscale>  0 0.91615028E+02</rscale>
<asrwt>0</asrwt>
<pdfrwt beam="2">  1        2 0.12862296E+00 0.91615028E+02</pdfrwt>
<pdfrwt beam="1">  1       -2 0.38612529E-03 0.91615028E+02</pdfrwt>
<totfact> 0.24243262E+05</totfact>
</mgrwt>
</event>
<event>
 7    1  0.3960685E-009  0.8757898E+02  0.7818608E-02  0.1308823E+00
          2   -1    0    0  501    0  0.00000000000E+00  0.00000000000E+00  0.15969295187E+02  0.15969295390E+02  0.25500000000E-02 0.  1.
         -2   -1    0    0    0  501 -0.00000000000E+00 -0.00000000000E+00 -0.12007538147E+03  0.12007538149E+03  0.25500000000E-02 0. -1.
         23    2    1    2    0    0  0.00000000000E+00  0.00000000000E+00 -0.10410608628E+03  0.13604467688E+03  0.87578975261E+02 0.  0.
    9000005    2    3    3    0    0  0.29653181552E+02 -0.12890899261E+02 -0.77565895460E+01  0.34414405897E+02  0.88713128639E+01 0.  0.
         22    1    3    3    0    0 -0.29653181552E+02  0.12890899261E+02 -0.96349496733E+02  0.10163027099E+03  0.00000000000E+00 0. -1.
         22    1    4    4    0    0  0.28305805464E+02 -0.13834058073E+02 -0.61205169669E+01  0.32094555826E+02  0.00000000000E+00 0. -1.
         22    1    4    4    0    0  0.13473760880E+01  0.94315881176E+00 -0.16360725791E+01  0.23198500708E+01  0.00000000000E+00 0. -1.
<mgrwt>
<rscale>  0 0.87578975E+02</rscale>
<asrwt>0</asrwt>
<pdfrwt beam="1">  1        2 0.24568147E-02 0.87578975E+02</pdfrwt>
<pdfrwt beam="2">  1       -2 0.18473135E-01 0.87578975E+02</pdfrwt>
<totfact> 0.83411267E+04</totfact>
</mgrwt>
</event>
<event>
 7    1  0.3960685E-009  0.9387730E+02  0.7818608E-02  0.1293725E+00
          2   -1    0    0  501    0  0.00000000000E+00  0.00000000000E+00  0.10027584381E+03  0.10027584384E+03  0.25500000000E-02 0.  1.
         -2   -1    0    0    0  501 -0.00000000000E+00 -0.00000000000E+00 -0.21971762457E+02  0.21971762605E+02  0.25500000000E-02 0. -1.
         23    2    1    2    0    0  0.00000000000E+00  0.00000000000E+00  0.78304081354E+02  0.12224760645E+03  0.93877303570E+02 0.  0.
    9000005    2    3    3    0    0  0.31110885621E+02  0.10552963900E+02 -0.11399176968E+01  0.36279000339E+02  0.15349729706E+02 0.  0.
         22    1    3    3    0    0 -0.31110885621E+02 -0.10552963900E+02  0.79443999051E+02  0.85968606109E+02  0.00000000000E+00 0.  1.
         22    1    4    4    0    0  0.23418830517E+02  0.11325349319E+02  0.48969112267E+01  0.26470453331E+02  0.00000000000E+00 0. -1.
         22    1    4    4    0    0  0.76920551038E+01 -0.77238541911E+00 -0.60368289234E+01  0.98085470079E+01  0.00000000000E+00 0. -1.
<mgrwt>
<rscale>  0 0.93877304E+02</rscale>
<asrwt>0</asrwt>
<pdfrwt beam="1">  1        2 0.15427053E-01 0.93877304E+02</pdfrwt>
<pdfrwt beam="2">  1       -2 0.33802711E-02 0.93877304E+02</pdfrwt>
<totfact> 0.11327292E+05</totfact>
</mgrwt>
</event>
<event>
 7    1  0.3960685E-009  0.8748296E+02  0.7818608E-02  0.1309064E+00
          2   -1    0    0  501    0  0.00000000000E+00  0.00000000000E+00  0.31547761808E+02  0.31547761911E+02  0.25500000000E-02 0. -1.
         -2   -1    0    0    0  501 -0.00000000000E+00 -0.00000000000E+00 -0.60648260272E+02  0.60648260325E+02  0.25500000000E-02 0.  1.
         23    2    1    2    0    0  0.00000000000E+00  0.00000000000E+00 -0.29100498463E+02  0.92196022236E+02  0.87482955514E+02 0.  0.
    9000005    2    3    3    0    0  0.17806267948E+02  0.19042612744E+02 -0.51143463266E+02  0.58055480711E+02  0.86660675867E+01 0.  0.
         22    1    3    3    0    0 -0.17806267948E+02 -0.19042612744E+02  0.22042964802E+02  0.34140541525E+02  0.00000000000E+00 0. -1.
         22    1    4    4    0    0  0.84129030325E+01  0.92763798469E+01 -0.33805305435E+02  0.36050337531E+02  0.00000000000E+00 0.  1.
         22    1    4    4    0    0  0.93933649153E+01  0.97662328973E+01 -0.17338157831E+02  0.22005143181E+02  0.00000000000E+00 0.  1.
<mgrwt>
<rscale>  0 0.87482956E+02</rscale>
<asrwt>0</asrwt>
<pdfrwt beam="1">  1        2 0.48535018E-02 0.87482956E+02</pdfrwt>
<pdfrwt beam="2">  1       -2 0.93305016E-02 0.87482956E+02</pdfrwt>
<totfact> 0.10123729E+05</totfact>
</mgrwt>
</event>
<event>
 7    1  0.3960685E-009  0.9678913E+02  0.7818608E-02  0.1287197E+00
          2   -1    0    0  501    0  0.00000000000E+00  0.00000000000E+00  0.95806624652E+03  0.95806624653E+03  0.25500000000E-02 0. -1.
         -2   -1    0    0    0  501 -0.00000000000E+00 -0.00000000000E+00 -0.24445419343E+01  0.24445432643E+01  0.25500000000E-02 0.  1.
         23    2    1    2    0    0  0.00000000000E+00  0.17763568394E-14  0.95562170459E+03  0.96051078979E+03  0.96789126576E+02 0.  0.
    9000005    2    3    3    0    0 -0.36274327175E+02 -0.86887305380E+01  0.77830049018E+03  0.77930887499E+03  0.13392115715E+02 0.  0.
         22    1    3    3    0    0  0.36274327175E+02  0.86887305380E+01  0.17732121440E+03  0.18120191480E+03  0.00000000000E+00 0.  1.
         22    1    4    4    0    0 -0.30972140565E+02 -0.56242837741E+01  0.53077099959E+03  0.53170363932E+03  0.00000000000E+00 0. -1.
         22    1    4    4    0    0 -0.53021866100E+01 -0.30644467639E+01  0.24752949060E+03  0.24760523567E+03  0.00000000000E+00 0. -1.
<mgrwt>
<rscale>  0 0.96789127E+02</rscale>
<asrwt>0</asrwt>
<pdfrwt beam="1">  1        2 0.14739489E+00 0.96789127E+02</pdfrwt>
<pdfrwt beam="2">  1       -2 0.37608326E-03 0.96789127E+02</pdfrwt>
<totfact> 0.21298935E+05</totfact>
</mgrwt>
</event>
<event>
 7    1  0.3960685E-009  0.9054349E+02  0.7818608E-02  0.1301541E+00
         -2   -1    0    0    0  501 -0.00000000000E+00  0.00000000000E+00  0.44234266499E+02  0.44234266573E+02  0.25500000000E-02 0.  1.
          2   -1    0    0  501    0  0.00000000000E+00 -0.00000000000E+00 -0.46333553265E+02  0.46333553336E+02  0.25500000000E-02 0. -1.
         23    2    1    2    0    0  0.00000000000E+00 -0.35527136788E-14 -0.20992867660E+01  0.90567819909E+02  0.90543486779E+02 0.  0.
    9000005    2    3    3    0    0  0.36022984999E+02  0.22950124592E+02 -0.15776803856E+02  0.45718760378E+02  0.41150751605E+01 0.  0.
         22    1    3    3    0    0 -0.36022984999E+02 -0.22950124592E+02  0.13677517090E+02  0.44849059530E+02  0.00000000000E+00 0.  1.
         22    1    4    4    0    0  0.10445303227E+02  0.74842863132E+01 -0.66367640283E+01  0.14462556409E+02  0.00000000000E+00 0.  1.
         22    1    4    4    0    0  0.25577681772E+02  0.15465838279E+02 -0.91400398279E+01  0.31256203969E+02  0.00000000000E+00 0.  1.
<mgrwt>
<rscale>  0 0.90543487E+02</rscale>
<asrwt>0</asrwt>
<pdfrwt beam="2">  1        2 0.71282390E-02 0.90543487E+02</pdfrwt>
<pdfrwt beam="1">  1       -2 0.68052717E-02 0.90543487E+02</pdfrwt>
<totfact> 0.10108838E+05</totfact>
</mgrwt>
</event>
<event>
 7    1  0.3960685E-009  0.8884974E+02  0.7818608E-02  0.1305661E+00
         -2   -1    0    0    0  501 -0.00000000000E+00  0.00000000000E+00  0.23438612530E+03  0.23438612532E+03  0.25500000000E-02 0. -1.
          2   -1    0    0  501    0  0.00000000000E+00 -0.00000000000E+00 -0.84201606004E+01  0.84201609865E+01  0.25500000000E-02 0.  1.
         23    2    1    2    0    0  0.00000000000E+00  0.00000000000E+00  0.22596596470E+03  0.24280628630E+03  0.88849735309E+02 0.  0.
    9000005    2    3    3    0    0  0.12582941332E+02  0.38260998789E+02  0.71483546475E+02  0.83159639041E+02  0.13542293300E+02 0.  0.
         22    1    3    3    0    0 -0.12582941332E+02 -0.38260998789E+02  0.15448241823E+03  0.15964664726E+03  0.00000000000E+00 0. -1.
         22    1    4    4    0    0 -0.20116735977E+01  0.44555263036E+01  0.14617926978E+02  0.15413706058E+02  0.00000000000E+00 0. -1.
         22    1    4    4    0    0  0.14594614929E+02  0.33805472485E+02  0.56865619497E+02  0.67745932982E+02  0.00000000000E+00 0. -1.
<mgrwt>
<rscale>  0 0.88849735E+02</rscale>
<asrwt>0</asrwt>
<pdfrwt beam="2">  1        2 0.12954095E-02 0.88849735E+02</pdfrwt>
<pdfrwt beam="1">  1       -2 0.36059400E-01 0.88849735E+02</pdfrwt>
<totfact> 0.61943297E+04</totfact>
</mgrwt>
</event>
<event>
 7    1  0.3960685E-009  0.9178322E+02  0.7818608E-02  0.1298590E+00
          2   -1    0    0  501    0  0.00000000000E+00  0.00000000000E+00  0.10327316303E+03  0.10327316306E+03  0.25500000000E-02 0. -1.
         -2   -1    0    0    0  501 -0.00000000000E+00 -0.00000000000E+00 -0.20392905476E+02  0.20392905636E+02  0.25500000000E-02 0.  1.
         23    2    1    2    0    0  0.00000000000E+00  0.00000000000E+00  0.82880257556E+02  0.12366606870E+03  0.91783219899E+02 0.  0.
    9000005    2    3    3    0    0  0.16601007559E+02 -0.35734817335E+02  0.10298917514E+02  0.41079014361E+02  0.53709493618E+01 0.  0.
         22    1    3    3    0    0 -0.16601007559E+02  0.35734817335E+02  0.72581340042E+02  0.82587054338E+02  0.00000000000E+00 0. -1.
         22    1    4    4    0    0  0.53481159121E+00 -0.32887475919E+01  0.21560663032E+01  0.39686907242E+01  0.00000000000E+00 0. -1.
         22    1    4    4    0    0  0.16066195968E+02 -0.32446069743E+02  0.81428512107E+01  0.37110323637E+02  0.00000000000E+00 0. -1.
<mgrwt>
<rscale>  0 0.91783220E+02</rscale>
<asrwt>0</asrwt>
<pdfrwt beam="1">  1        2 0.15888179E-01 0.91783220E+02</pdfrwt>
<pdfrwt beam="2">  1       -2 0.31373700E-02 0.91783220E+02</pdfrwt>
<totfact> 0.12165010E+05</totfact>
</mgrwt>
</event>
<event>
 7    1  0.3960685E-009  0.9268521E+02  0.7818608E-02  0.1296476E+00
         -2   -1    0    0    0  501 -0.00000000000E+00  0.00000000000E+00  0.53800992053E+01  0.53800998096E+01  0.25500000000E-02 0.  1.
          2   -1    0    0  501    0  0.00000000000E+00 -0.00000000000E+00 -0.39918163936E+03  0.39918163937E+03  0.25500000000E-02 0. -1.
         23    2    1    2    0    0 -0.71054273576E-14  0.00000000000E+00 -0.39380154015E+03  0.40456173918E+03  0.92685207980E+02 0.  0.
    9000005    2    3    3    0    0 -0.43508435413E+02 -0.12239619400E+02 -0.21139608367E+03  0.21664009915E+03  0.14206904441E+02 0.  0.
         22    1    3    3    0    0  0.43508435413E+02  0.12239619400E+02 -0.18240545648E+03  0.18792164002E+03  0.00000000000E+00 0.  1.
         22    1    4    4    0    0 -0.52757154665E+01 -0.42596113710E+01 -0.15977698689E+02  0.17356967422E+02  0.00000000000E+00 0. -1.
         22    1    4    4    0    0 -0.38232719946E+02 -0.79800080291E+01 -0.19541838499E+03  0.19928313173E+03  0.00000000000E+00 0. -1.
<mgrwt>
<rscale>  0 0.92685208E+02</rscale>
<asrwt>0</asrwt>
<pdfrwt beam="2">  1        2 0.61412537E-01 0.92685208E+02</pdfrwt>
<pdfrwt beam="1">  1       -2 0.82770793E-03 0.92685208E+02</pdfrwt>
<totfact> 0.19096399E+05</totfact>
</mgrwt>
</event>
<event>
 7    1  0.3960685E-009  0.9184648E+02  0.7818608E-02  0.1298441E+00
          2   -1    0    0  501    0  0.00000000000E+00  0.00000000000E+00  0.36154849550E+03  0.36154849551E+03  0.25500000000E-02 0.  1.
         -2   -1    0    0    0  501 -0.00000000000E+00 -0.00000000000E+00 -0.58330866625E+01  0.58330872199E+01  0.25500000000E-02 0. -1.
         23    2    1    2    0    0  0.00000000000E+00  0.00000000000E+00  0.35571540884E+03  0.36738158273E+03  0.91846476493E+02 0.  0.
    9000005    2    3    3    0    0 -0.20861362734E+02 -0.38113770322E+02  0.12903319608E+03  0.13657282743E+03  0.10710534889E+02 0.  0.
         22    1    3    3    0    0  0.20861362734E+02  0.38113770322E+02  0.22668221276E+03  0.23080875530E+03  0.00000000000E+00 0.  1.
         22    1    4    4    0    0 -0.18931180128E+02 -0.34991947166E+02  0.10544558221E+03  0.11270136092E+03  0.00000000000E+00 0.  1.
         22    1    4    4    0    0 -0.19301826059E+01 -0.31218231558E+01  0.23587613878E+02  0.23871466506E+02  0.00000000000E+00 0.  1.
<mgrwt>
<rscale>  0 0.91846476E+02</rscale>
<asrwt>0</asrwt>
<pdfrwt beam="1">  1        2 0.55622848E-01 0.91846476E+02</pdfrwt>
<pdfrwt beam="2">  1       -2 0.89739796E-03 0.91846476E+02</pdfrwt>
<totfact> 0.18875134E+05</totfact>
</mgrwt>
</event>
<event>
 7    1  0.3960685E-009  0.9168734E+02  0.7818608E-02  0.1298816E+00
         -2   -1    0    0    0  501 -0.00000000000E+00  0.00000000000E+00  0.19585543995E+03  0.19585543996E+03  0.25500000000E-02 0.  1.
          2   -1    0    0  501    0  0.00000000000E+00 -0.00000000000E+00 -0.10730576851E+02  0.10730577154E+02  0.25500000000E-02 0. -1.
         23    2    1    2    0    0  0.00000000000E+00  0.00000000000E+00  0.18512486310E+03  0.20658601712E+03  0.91687335724E+02 0.  0.
    9000005    2    3    3    0    0 -0.13385088621E+02  0.16152074135E+02  0.18407744127E+03  0.18558251291E+03  0.10784925618E+02 0.  0.
         22    1    3    3    0    0  0.13385088621E+02 -0.16152074135E+02  0.10474218294E+01  0.21003504202E+02  0.00000000000E+00 0. -1.
         22    1    4    4    0    0 -0.97846847315E+01  0.16452110572E+02  0.13210117569E+03  0.13348083239E+03  0.00000000000E+00 0. -1.
         22    1    4    4    0    0 -0.36004038898E+01 -0.30003643659E+00  0.51976265580E+02  0.52101680527E+02  0.00000000000E+00 0. -1.
<mgrwt>
<rscale>  0 0.91687336E+02</rscale>
<asrwt>0</asrwt>
<pdfrwt beam="2">  1        2 0.16508580E-02 0.91687336E+02</pdfrwt>
<pdfrwt beam="1">  1       -2 0.30131606E-01 0.91687336E+02</pdfrwt>
<totfact> 0.61992571E+04</totfact>
</mgrwt>
</event>
<event>
 7    1  0.3960685E-009  0.9165774E+02  0.7818608E-02  0.1298886E+00
          2   -1    0    0  501    0  0.00000000000E+00  0.00000000000E+00  0.18794010991E+03  0.18794010992E+03  0.25500000000E-02 0.  1.
         -2   -1    0    0    0  501 -0.00000000000E+00 -0.00000000000E+00 -0.11175289579E+02  0.11175289870E+02  0.25500000000E-02 0. -1.
         23    2    1    2    0    0  0.00000000000E+00  0.00000000000E+00  0.17676482033E+03  0.19911539979E+03  0.91657736876E+02 0.  0.
    9000005    2    3    3    0    0 -0.42557255507E+02  0.15012636058E+02  0.10231286825E+03  0.11205454518E+03  0.71971416700E+01 0.  0.
         22    1    3    3    0    0  0.42557255507E+02 -0.15012636058E+02  0.74451952074E+02  0.87060854609E+02  0.00000000000E+00 0.  1.
         22    1    4    4    0    0 -0.42148751467E+02  0.15331899156E+02  0.98799307013E+02  0.10850293751E+03  0.00000000000E+00 0.  1.
         22    1    4    4    0    0 -0.40850404054E+00 -0.31926309766E+00  0.35135612414E+01  0.35516076746E+01  0.00000000000E+00 0.  1.
<mgrwt>
<rscale>  0 0.91657737E+02</rscale>
<asrwt>0</asrwt>
<pdfrwt beam="1">  1        2 0.28913861E-01 0.91657737E+02</pdfrwt>
<pdfrwt beam="2">  1       -2 0.17192755E-02 0.91657737E+02</pdfrwt>
<totfact> 0.14912366E+05</totfact>
</mgrwt>
</event>
<event>
 7    1  0.3960685E-009  0.9092136E+02  0.7818608E-02  0.1300636E+00
         -2   -1    0    0    0  501 -0.00000000000E+00  0.00000000000E+00  0.20899557476E+01  0.20899573032E+01  0.25500000000E-02 0.  1.
          2   -1    0    0  501    0  0.00000000000E+00 -0.00000000000E+00 -0.98885953131E+03  0.98885953132E+03  0.25500000000E-02 0. -1.
         23    2    1    2    0    0  0.72164496601E-15  0.00000000000E+00 -0.98676957556E+03  0.99094948862E+03  0.90921360162E+02 0.  0.
    9000005    2    3    3    0    0  0.28212446917E+00  0.35142221757E+02 -0.80365701856E+03  0.80449503338E+03  0.10611310672E+02 0.  0.
         22    1    3    3    0    0 -0.28212446917E+00 -0.35142221757E+02 -0.18311255701E+03  0.18645445524E+03  0.00000000000E+00 0.  1.
         22    1    4    4    0    0 -0.43505837277E+01  0.10641092142E+02 -0.20977636119E+03  0.21009112817E+03  0.00000000000E+00 0. -1.
         22    1    4    4    0    0  0.46327081969E+01  0.24501129615E+02 -0.59388065737E+03  0.59440390521E+03  0.00000000000E+00 0. -1.
<mgrwt>
<rscale>  0 0.90921360E+02</rscale>
<asrwt>0</asrwt>
<pdfrwt beam="2">  1        2 0.15213186E+00 0.90921360E+02</pdfrwt>
<pdfrwt beam="1">  1       -2 0.32153256E-03 0.90921360E+02</pdfrwt>
<totfact> 0.25173376E+05</totfact>
</mgrwt>
</event>
<event>
 7    1  0.3960685E-009  0.9266440E+02  0.7818608E-02  0.1296525E+00
          2   -1    0    0  501    0  0.00000000000E+00  0.00000000000E+00  0.81020841050E+01  0.81020845063E+01  0.25500000000E-02 0. -1.
         -2   -1    0    0    0  501 -0.00000000000E+00 -0.00000000000E+00 -0.26495313674E+03  0.26495313676E+03  0.25500000000E-02 0.  1.
         23    2    1    2    0    0  0.00000000000E+00  0.00000000000E+00 -0.25685105264E+03  0.27305522126E+03  0.92664397786E+02 0.  0.
    9000005    2    3    3    0    0 -0.16073523894E+02  0.25537591193E+02 -0.23151974407E+03  0.23365722730E+03  0.91532093665E+01 0.  0.
         22    1    3    3    0    0  0.16073523894E+02 -0.25537591193E+02 -0.25331308569E+02  0.39397993961E+02  0.00000000000E+00 0. -1.
         22    1    4    4    0    0 -0.33531175600E+01  0.13842108907E+02 -0.10759273711E+03  0.10853130634E+03  0.00000000000E+00 0. -1.
         22    1    4    4    0    0 -0.12720406334E+02  0.11695482287E+02 -0.12392700696E+03  0.12512592096E+03  0.00000000000E+00 0. -1.
<mgrwt>
<rscale>  0 0.92664398E+02</rscale>
<asrwt>0</asrwt>
<pdfrwt beam="1">  1        2 0.12464747E-02 0.92664398E+02</pdfrwt>
<pdfrwt beam="2">  1       -2 0.40762014E-01 0.92664398E+02</pdfrwt>
<totfact> 0.52317121E+04</totfact>
</mgrwt>
</event>
<event>
 7    1  0.3960685E-009  0.9155512E+02  0.7818608E-02  0.1299129E+00
         -2   -1    0    0    0  501 -0.00000000000E+00  0.00000000000E+00  0.11663216214E+02  0.11663216493E+02  0.25500000000E-02 0.  1.
          2   -1    0    0  501    0  0.00000000000E+00 -0.00000000000E+00 -0.17967470941E+03  0.17967470943E+03  0.25500000000E-02 0. -1.
         23    2    1    2    0    0  0.35527136788E-14  0.00000000000E+00 -0.16801149320E+03  0.19133792592E+03  0.91555120284E+02 0.  0.
    9000005    2    3    3    0    0 -0.24268963605E+02  0.21693847905E+02 -0.15081312610E+03  0.15452231155E+03  0.85404993169E+01 0.  0.
         22    1    3    3    0    0  0.24268963605E+02 -0.21693847905E+02 -0.17198367094E+02  0.36815614379E+02  0.00000000000E+00 0.  1.
         22    1    4    4    0    0 -0.93596925389E+01  0.13138039113E+02 -0.83885664073E+02  0.85422576367E+02  0.00000000000E+00 0. -1.
         22    1    4    4    0    0 -0.14909271066E+02  0.85558087919E+01 -0.66927462031E+02  0.69099735179E+02  0.00000000000E+00 0. -1.
<mgrwt>
<rscale>  0 0.91555120E+02</rscale>
<asrwt>0</asrwt>
<pdfrwt beam="2">  1        2 0.27642261E-01 0.91555120E+02</pdfrwt>
<pdfrwt beam="1">  1       -2 0.17943411E-02 0.91555120E+02</pdfrwt>
<totfact> 0.14719452E+05</totfact>
</mgrwt>
</event>
<event>
 7    1  0.3960685E-009  0.9171602E+02  0.7818608E-02  0.1298749E+00
         -2   -1    0    0    0  501 -0.00000000000E+00  0.00000000000E+00  0.78175691796E+01  0.78175695955E+01  0.25500000000E-02 0. -1.
          2   -1    0    0  501    0  0.00000000000E+00 -0.00000000000E+00 -0.26900393444E+03  0.26900393445E+03  0.25500000000E-02 0.  1.
         23    2    1    2    0    0  0.00000000000E+00  0.00000000000E+00 -0.26118636526E+03  0.27682150404E+03  0.91716016622E+02 0.  0.
    9000005    2    3    3    0    0 -0.36257588261E+02 -0.23157633948E+02 -0.86037540959E+02  0.96466300710E+02  0.72387845599E+01 0.  0.
         22    1    3    3    0    0  0.36257588261E+02  0.23157633948E+02 -0.17514882430E+03  0.18035520333E+03  0.00000000000E+00 0.  1.
         22    1    4    4    0    0 -0.30334603550E+02 -0.21551897152E+02 -0.69643632213E+02  0.78961433315E+02  0.00000000000E+00 0. -1.
         22    1    4    4    0    0 -0.59229847114E+01 -0.16057367953E+01 -0.16393908746E+02  0.17504867395E+02  0.00000000000E+00 0. -1.
<mgrwt>
<rscale>  0 0.91716017E+02</rscale>
<asrwt>0</asrwt>
<pdfrwt beam="2">  1        2 0.41385214E-01 0.91716017E+02</pdfrwt>
<pdfrwt beam="1">  1       -2 0.12027032E-02 0.91716017E+02</pdfrwt>
<totfact> 0.16979746E+05</totfact>
</mgrwt>
</event>
<event>
 7    1  0.3960685E-009  0.9214448E+02  0.7818608E-02  0.1297740E+00
          2   -1    0    0  501    0  0.00000000000E+00  0.00000000000E+00  0.59470118068E+02  0.59470118123E+02  0.25500000000E-02 0. -1.
         -2   -1    0    0    0  501 -0.00000000000E+00 -0.00000000000E+00 -0.35692737788E+02  0.35692737879E+02  0.25500000000E-02 0.  1.
         23    2    1    2    0    0  0.00000000000E+00 -0.35527136788E-14  0.23777380280E+02  0.95162856002E+02  0.92144480841E+02 0.  0.
    9000005    2    3    3    0    0  0.19378790104E+02 -0.29911560562E+02 -0.17589412832E+02  0.40560195503E+02  0.80933957237E+01 0.  0.
         22    1    3    3    0    0 -0.19378790104E+02  0.29911560562E+02  0.41366793112E+02  0.54602660499E+02  0.00000000000E+00 0. -1.
         22    1    4    4    0    0  0.78595063514E+00 -0.42552180942E+00  0.75446083800E+00  0.11696146234E+01  0.00000000000E+00 0. -1.
         22    1    4    4    0    0  0.18592839469E+02 -0.29486038752E+02 -0.18343873670E+02  0.39390580880E+02  0.00000000000E+00 0. -1.
<mgrwt>
<rscale>  0 0.92144481E+02</rscale>
<asrwt>0</asrwt>
<pdfrwt beam="1">  1        2 0.91492489E-02 0.92144481E+02</pdfrwt>
<pdfrwt beam="2">  1       -2 0.54911904E-02 0.92144481E+02</pdfrwt>
<totfact> 0.10270548E+05</totfact>
</mgrwt>
</event>
<event>
 7    1  0.3960685E-009  0.8895873E+02  0.7818608E-02  0.1305393E+00
         -2   -1    0    0    0  501 -0.00000000000E+00  0.00000000000E+00  0.40839608283E+02  0.40839608363E+02  0.25500000000E-02 0.  1.
          2   -1    0    0  501    0  0.00000000000E+00 -0.00000000000E+00 -0.48443507508E+02  0.48443507575E+02  0.25500000000E-02 0. -1.
         23    2    1    2    0    0 -0.47184478547E-15  0.35527136788E-14 -0.76038992252E+01  0.89283115938E+02  0.88958729241E+02 0.  0.
    9000005    2    3    3    0    0 -0.14846621008E+00  0.23366712285E+02 -0.40241367186E+02  0.49142991372E+02  0.15800021607E+02 0.  0.
         22    1    3    3    0    0  0.14846621008E+00 -0.23366712285E+02  0.32637467961E+02  0.40140124565E+02  0.00000000000E+00 0.  1.
         22    1    4    4    0    0  0.52523846049E+01  0.85184064428E+01 -0.26047078488E+02  0.27903424344E+02  0.00000000000E+00 0. -1.
         22    1    4    4    0    0 -0.54008508150E+01  0.14848305842E+02 -0.14194288699E+02  0.21239567029E+02  0.00000000000E+00 0. -1.
<mgrwt>
<rscale>  0 0.88958729E+02</rscale>
<asrwt>0</asrwt>
<pdfrwt beam="2">  1        2 0.74528473E-02 0.88958729E+02</pdfrwt>
<pdfrwt beam="1">  1       -2 0.62830167E-02 0.88958729E+02</pdfrwt>
<totfact> 0.10753210E+05</totfact>
</mgrwt>
</event>
<event>
 7    1  0.3960685E-009  0.8310020E+02  0.7818608E-02  0.1320477E+00
         -2   -1    0    0    0  501 -0.00000000000E+00  0.00000000000E+00  0.11717018411E+03  0.11717018414E+03  0.25500000000E-02 0. -1.
          2   -1    0    0  501    0  0.00000000000E+00 -0.00000000000E+00 -0.14734216192E+02  0.14734216412E+02  0.25500000000E-02 0.  1.
         23    2    1    2    0    0 -0.44408920985E-15  0.00000000000E+00  0.10243596792E+03  0.13190440055E+03  0.83100200730E+02 0.  0.
    9000005    2    3    3    0    0 -0.36906016921E+01 -0.34782568696E+02  0.85911389024E+02  0.93219657648E+02  0.92568991611E+01 0.  0.
         22    1    3    3    0    0  0.36906016921E+01  0.34782568696E+02  0.16524578898E+02  0.38684742906E+02  0.00000000000E+00 0.  1.
         22    1    4    4    0    0 -0.59234080227E+01 -0.20299708859E+02  0.43938682263E+02  0.48762411152E+02  0.00000000000E+00 0.  1.
         22    1    4    4    0    0  0.22328063306E+01 -0.14482859837E+02  0.41972706760E+02  0.44457246495E+02  0.00000000000E+00 0.  1.
<mgrwt>
<rscale>  0 0.83100201E+02</rscale>
<asrwt>0</asrwt>
<pdfrwt beam="2">  1        2 0.22668024E-02 0.83100201E+02</pdfrwt>
<pdfrwt beam="1">  1       -2 0.18026183E-01 0.83100201E+02</pdfrwt>
<totfact> 0.95879402E+04</totfact>
</mgrwt>
</event>
<event>
 7    1  0.3960685E-009  0.9218763E+02  0.7818608E-02  0.1297639E+00
          2   -1    0    0  501    0  0.00000000000E+00  0.00000000000E+00  0.49952843780E+02  0.49952843845E+02  0.25500000000E-02 0. -1.
         -2   -1    0    0    0  501 -0.00000000000E+00 -0.00000000000E+00 -0.42532912141E+02  0.42532912218E+02  0.25500000000E-02 0.  1.
         23    2    1    2    0    0  0.17763568394E-14  0.00000000000E+00  0.74199316384E+01  0.92485756063E+02  0.92187633059E+02 0.  0.
    9000005    2    3    3    0    0 -0.88661047356E+01 -0.34348842404E+02 -0.25072356693E+02  0.44379627672E+02  0.90817120878E+01 0.  0.
         22    1    3    3    0    0  0.88661047356E+01  0.34348842404E+02  0.32492288332E+02  0.48106128391E+02  0.00000000000E+00 0. -1.
         22    1    4    4    0    0  0.70521206006E+00 -0.18846304137E+01 -0.40883401756E+01  0.45567182530E+01  0.00000000000E+00 0. -1.
         22    1    4    4    0    0 -0.95713167957E+01 -0.32464211991E+02 -0.20984016518E+02  0.39822909419E+02  0.00000000000E+00 0. -1.
<mgrwt>
<rscale>  0 0.92187633E+02</rscale>
<asrwt>0</asrwt>
<pdfrwt beam="1">  1        2 0.76850529E-02 0.92187633E+02</pdfrwt>
<pdfrwt beam="2">  1       -2 0.65435249E-02 0.92187633E+02</pdfrwt>
<totfact> 0.97917412E+04</totfact>
</mgrwt>
</event>
<event>
 7    1  0.3960685E-009  0.9378265E+02  0.7818608E-02  0.1293942E+00
         -2   -1    0    0    0  501 -0.00000000000E+00  0.00000000000E+00  0.54462930656E+02  0.54462930716E+02  0.25500000000E-02 0.  1.
          2   -1    0    0  501    0  0.00000000000E+00 -0.00000000000E+00 -0.40372345281E+02  0.40372345362E+02  0.25500000000E-02 0. -1.
         23    2    1    2    0    0  0.00000000000E+00  0.35527136788E-14  0.14090585375E+02  0.94835276078E+02  0.93782647609E+02 0.  0.
    9000005    2    3    3    0    0  0.12518740253E+02 -0.17271261007E+02  0.49132148149E+02  0.53811789684E+02  0.51696627489E+01 0.  0.
         22    1    3    3    0    0 -0.12518740253E+02  0.17271261007E+02 -0.35041562774E+02  0.41023486394E+02  0.00000000000E+00 0. -1.
         22    1    4    4    0    0 -0.86153076653E-01 -0.51289681621E-01  0.27936382346E+01  0.27954369193E+01  0.00000000000E+00 0. -1.
         22    1    4    4    0    0  0.12604893329E+02 -0.17219971325E+02  0.46338509915E+02  0.51016352764E+02  0.00000000000E+00 0. -1.
<mgrwt>
<rscale>  0 0.93782648E+02</rscale>
<asrwt>0</asrwt>
<pdfrwt beam="2">  1        2 0.62111300E-02 0.93782648E+02</pdfrwt>
<pdfrwt beam="1">  1       -2 0.83789124E-02 0.93782648E+02</pdfrwt>
<totfact> 0.88099185E+04</totfact>
</mgrwt>
</event>
<event>
 7    1  0.3960685E-009  0.9150696E+02  0.7818608E-02  0.1299243E+00
          2   -1    0    0  501    0  0.00000000000E+00  0.00000000000E+00  0.86871588184E+02  0.86871588222E+02  0.25500000000E-02 0. -1.
         -2   -1    0    0    0  501 -0.00000000000E+00 -0.00000000000E+00 -0.24097417601E+02  0.24097417736E+02  0.25500000000E-02 0.  1.
         23    2    1    2    0    0 -0.88817841970E-15  0.00000000000E+00  0.62774170584E+02  0.11096900596E+03  0.91506960340E+02 0.  0.
    9000005    2    3    3    0    0  0.65541684207E+01 -0.40998580689E+02  0.52072647154E+02  0.68092866370E+02  0.14185807227E+02 0.  0.
         22    1    3    3    0    0 -0.65541684207E+01  0.40998580689E+02  0.10701523430E+02  0.42876139587E+02  0.00000000000E+00 0.  1.
         22    1    4    4    0    0 -0.29008460738E+01 -0.83997129696E+01  0.54538695802E+01  0.10426637968E+02  0.00000000000E+00 0. -1.
         22    1    4    4    0    0  0.94550144946E+01 -0.32598867719E+02  0.46618777574E+02  0.57666228402E+02  0.00000000000E+00 0. -1.
<mgrwt>
<rscale>  0 0.91506960E+02</rscale>
<asrwt>0</asrwt>
<pdfrwt beam="1">  1        2 0.13364859E-01 0.91506960E+02</pdfrwt>
<pdfrwt beam="2">  1       -2 0.37072951E-02 0.91506960E+02</pdfrwt>
<totfact> 0.11645462E+05</totfact>
</mgrwt>
</event>
<event>
 7    1  0.3960685E-009  0.9049566E+02  0.7818608E-02  0.1301656E+00
         -2   -1    0    0    0  501 -0.00000000000E+00  0.00000000000E+00  0.31097551333E+02  0.31097551438E+02  0.25500000000E-02 0.  1.
          2   -1    0    0  501    0  0.00000000000E+00 -0.00000000000E+00 -0.65836893177E+02  0.65836893226E+02  0.25500000000E-02 0. -1.
         23    2    1    2    0    0  0.00000000000E+00  0.00000000000E+00 -0.34739341843E+02  0.96934444664E+02  0.90495661170E+02 0.  0.
    9000005    2    3    3    0    0  0.16387315300E+02  0.39084133517E+02 -0.32678610079E+02  0.54503792879E+02  0.10327549853E+02 0.  0.
         22    1    3    3    0    0 -0.16387315300E+02 -0.39084133517E+02 -0.20607317648E+01  0.42430651785E+02  0.00000000000E+00 0.  1.
         22    1    4    4    0    0  0.13308068443E+02  0.19425023355E+02 -0.15266568063E+02  0.28062507344E+02  0.00000000000E+00 0. -1.
         22    1    4    4    0    0  0.30792468578E+01  0.19659110162E+02 -0.17412042015E+02  0.26441285534E+02  0.00000000000E+00 0. -1.
<mgrwt>
<rscale>  0 0.90495661E+02</rscale>
<asrwt>0</asrwt>
<pdfrwt beam="2">  1        2 0.10128753E-01 0.90495661E+02</pdfrwt>
<pdfrwt beam="1">  1       -2 0.47842387E-02 0.90495661E+02</pdfrwt>
<totfact> 0.11107955E+05</totfact>
</mgrwt>
</event>
<event>
 7    1  0.3960685E-009  0.9161853E+02  0.7818608E-02  0.1298979E+00
         -2   -1    0    0    0  501 -0.00000000000E+00  0.00000000000E+00  0.23587161596E+01  0.23587175380E+01  0.25500000000E-02 0.  1.
          2   -1    0    0  501    0  0.00000000000E+00 -0.00000000000E+00 -0.88967377717E+03  0.88967377717E+03  0.25500000000E-02 0. -1.
         23    2    1    2    0    0  0.00000000000E+00  0.00000000000E+00 -0.88731506101E+03  0.89203249471E+03  0.91618525013E+02 0.  0.
    9000005    2    3    3    0    0  0.29322358635E+02  0.40995969409E+01 -0.78155052087E+03  0.78220196452E+03  0.11920118124E+02 0.  0.
         22    1    3    3    0    0 -0.29322358635E+02 -0.40995969409E+01 -0.10576454014E+03  0.10983053019E+03  0.00000000000E+00 0.  1.
         22    1    4    4    0    0  0.10765572450E+02  0.27586898657E+01 -0.44402264729E+03  0.44416170392E+03  0.00000000000E+00 0. -1.
         22    1    4    4    0    0  0.18556786185E+02  0.13409070752E+01 -0.33752787358E+03  0.33804026060E+03  0.00000000000E+00 0. -1.
<mgrwt>
<rscale>  0 0.91618525E+02</rscale>
<asrwt>0</asrwt>
<pdfrwt beam="2">  1        2 0.13687262E+00 0.91618525E+02</pdfrwt>
<pdfrwt beam="1">  1       -2 0.36288023E-03 0.91618525E+02</pdfrwt>
<totfact> 0.24447755E+05</totfact>
</mgrwt>
</event>
<event>
 7    1  0.3960685E-009  0.9249796E+02  0.7818608E-02  0.1296913E+00
          2   -1    0    0  501    0  0.00000000000E+00  0.00000000000E+00  0.47584926971E+02  0.47584927040E+02  0.25500000000E-02 0. -1.
         -2   -1    0    0    0  501 -0.00000000000E+00 -0.00000000000E+00 -0.44950542743E+02  0.44950542816E+02  0.25500000000E-02 0.  1.
         23    2    1    2    0    0  0.00000000000E+00  0.00000000000E+00  0.26343842278E+01  0.92535469855E+02  0.92497963227E+02 0.  0.
    9000005    2    3    3    0    0  0.12869661631E+02  0.15919281199E+02 -0.40160846792E+02  0.45096208664E+02  0.13125229319E+01 0.  0.
         22    1    3    3    0    0 -0.12869661631E+02 -0.15919281199E+02  0.42795231020E+02  0.47439261192E+02  0.00000000000E+00 0. -1.
         22    1    4    4    0    0  0.78653140035E+01  0.87370495076E+01 -0.22622807023E+02  0.25494913141E+02  0.00000000000E+00 0.  1.
         22    1    4    4    0    0  0.50043476272E+01  0.71822316910E+01 -0.17538039769E+02  0.19601295523E+02  0.00000000000E+00 0.  1.
<mgrwt>
<rscale>  0 0.92497963E+02</rscale>
<asrwt>0</asrwt>
<pdfrwt beam="1">  1        2 0.73207580E-02 0.92497963E+02</pdfrwt>
<pdfrwt beam="2">  1       -2 0.69154681E-02 0.92497963E+02</pdfrwt>
<totfact> 0.95746626E+04</totfact>
</mgrwt>
</event>
<event>
 7    1  0.3960685E-009  0.9159051E+02  0.7818608E-02  0.1299045E+00
          2   -1    0    0  501    0  0.00000000000E+00  0.00000000000E+00  0.19139841264E+02  0.19139841434E+02  0.25500000000E-02 0. -1.
         -2   -1    0    0    0  501 -0.00000000000E+00 -0.00000000000E+00 -0.10957275675E+03  0.10957275678E+03  0.25500000000E-02 0.  1.
         23    2    1    2    0    0  0.00000000000E+00  0.17763568394E-14 -0.90432915484E+02  0.12871259821E+03  0.91590505705E+02 0.  0.
    9000005    2    3    3    0    0 -0.29872137721E+02 -0.86751617547E+01  0.14300795958E+01  0.31725934651E+02  0.60734469916E+01 0.  0.
         22    1    3    3    0    0  0.29872137721E+02  0.86751617547E+01 -0.91862995080E+02  0.96986663560E+02  0.00000000000E+00 0.  1.
         22    1    4    4    0    0 -0.92265096638E+01 -0.31661755213E+01  0.32469408660E+01  0.10280844955E+02  0.00000000000E+00 0. -1.
         22    1    4    4    0    0 -0.20645628057E+02 -0.55089862334E+01 -0.18168612702E+01  0.21445089696E+02  0.00000000000E+00 0. -1.
<mgrwt>
<rscale>  0 0.91590506E+02</rscale>
<asrwt>0</asrwt>
<pdfrwt beam="1">  1        2 0.29445911E-02 0.91590506E+02</pdfrwt>
<pdfrwt beam="2">  1       -2 0.16857347E-01 0.91590506E+02</pdfrwt>
<totfact> 0.76744525E+04</totfact>
</mgrwt>
</event>
<event>
 7    1  0.3960685E-009  0.8715321E+02  0.7818608E-02  0.1309896E+00
          2   -1    0    0  501    0  0.00000000000E+00  0.00000000000E+00  0.24744417793E+03  0.24744417794E+03  0.25500000000E-02 0. -1.
         -2   -1    0    0    0  501 -0.00000000000E+00 -0.00000000000E+00 -0.76741363625E+01  0.76741367862E+01  0.25500000000E-02 0.  1.
         23    2    1    2    0    0  0.00000000000E+00  0.00000000000E+00  0.23977004156E+03  0.25511831472E+03  0.87153208070E+02 0.  0.
    9000005    2    3    3    0    0 -0.64921670132E+01 -0.40585321780E+02  0.88541775822E+02  0.98404228135E+02  0.12426965545E+02 0.  0.
         22    1    3    3    0    0  0.64921670132E+01  0.40585321780E+02  0.15122826574E+03  0.15671408659E+03  0.00000000000E+00 0. -1.
         22    1    4    4    0    0 -0.13862904548E+01 -0.35748228723E+02  0.76661504805E+02  0.84598132231E+02  0.00000000000E+00 0. -1.
         22    1    4    4    0    0 -0.51058765584E+01 -0.48370930569E+01  0.11880271017E+02  0.13806095904E+02  0.00000000000E+00 0. -1.
<mgrwt>
<rscale>  0 0.87153208E+02</rscale>
<asrwt>0</asrwt>
<pdfrwt beam="1">  1        2 0.38068339E-01 0.87153208E+02</pdfrwt>
<pdfrwt beam="2">  1       -2 0.11806363E-02 0.87153208E+02</pdfrwt>
<totfact> 0.18864085E+05</totfact>
</mgrwt>
</event>
<event>
 7    1  0.3960685E-009  0.9075708E+02  0.7818608E-02  0.1301029E+00
          2   -1    0    0  501    0  0.00000000000E+00  0.00000000000E+00  0.19335443479E+02  0.19335443647E+02  0.25500000000E-02 0. -1.
         -2   -1    0    0    0  501 -0.00000000000E+00 -0.00000000000E+00 -0.10649934642E+03  0.10649934645E+03  0.25500000000E-02 0.  1.
         23    2    1    2    0    0  0.00000000000E+00  0.00000000000E+00 -0.87163902941E+02  0.12583479010E+03  0.90757084699E+02 0.  0.
    9000005    2    3    3    0    0  0.20259783153E+01 -0.41326967830E+02 -0.67357544147E+02  0.79961979993E+02  0.12035640105E+02 0.  0.
         22    1    3    3    0    0 -0.20259783153E+01  0.41326967830E+02 -0.19806358794E+02  0.45872810104E+02  0.00000000000E+00 0. -1.
         22    1    4    4    0    0 -0.59259026668E-02  0.72918693065E+00 -0.31550606037E+00  0.79453934470E+00  0.00000000000E+00 0.  1.
         22    1    4    4    0    0  0.20319042180E+01 -0.42056154761E+02 -0.67042038086E+02  0.79167440648E+02  0.00000000000E+00 0.  1.
<mgrwt>
<rscale>  0 0.90757085E+02</rscale>
<asrwt>0</asrwt>
<pdfrwt beam="1">  1        2 0.29746837E-02 0.90757085E+02</pdfrwt>
<pdfrwt beam="2">  1       -2 0.16384515E-01 0.90757085E+02</pdfrwt>
<totfact> 0.79208772E+04</totfact>
</mgrwt>
</event>
<event>
 7    1  0.4276785E-009  0.9244005E+02  0.7818608E-02  0.1297048E+00
          2   -1    0    0  501    0  0.00000000000E+00  0.00000000000E+00  0.16827445485E+03  0.16827445487E+03  0.25500000000E-02 0. -1.
         -2   -1    0    0    0  501 -0.00000000000E+00 -0.00000000000E+00 -0.12695276293E+02  0.12695276549E+02  0.25500000000E-02 0.  1.
         23    2    1    2    0    0  0.35527136788E-14  0.35527136788E-14  0.15557917856E+03  0.18096973142E+03  0.92440050246E+02 0.  0.
    9000005    2    3    3    0    0  0.31409688137E+02 -0.27431526309E+02  0.47671736019E+02  0.65284497704E+02  0.15824477272E+02 0.  0.
         22    1    3    3    0    0 -0.31409688137E+02  0.27431526309E+02  0.10790744254E+03  0.11568523372E+03  0.00000000000E+00 0.  1.
         22    1    4    4    0    0 -0.86134983419E+00 -0.42052702527E+01  0.82167012035E+01  0.92704045275E+01  0.00000000000E+00 0.  1.
         22    1    4    4    0    0  0.32271037971E+02 -0.23226256056E+02  0.39455034815E+02  0.56014093177E+02  0.00000000000E+00 0.  1.
<mgrwt>
<rscale>  0 0.92440050E+02</rscale>
<asrwt>0</asrwt>
<pdfrwt beam="1">  1        2 0.25888375E-01 0.92440050E+02</pdfrwt>
<pdfrwt beam="2">  1       -2 0.19531196E-02 0.92440050E+02</pdfrwt>
<totfact> 0.14013669E+05</totfact>
</mgrwt>
</event>
<event>
 7    1  0.3960685E-009  0.9054761E+02  0.7818608E-02  0.1301531E+00
         -2   -1    0    0    0  501 -0.00000000000E+00  0.00000000000E+00  0.99633529792E+01  0.99633533055E+01  0.25500000000E-02 0.  1.
          2   -1    0    0  501    0  0.00000000000E+00 -0.00000000000E+00 -0.20572566783E+03  0.20572566785E+03  0.25500000000E-02 0. -1.
         23    2    1    2    0    0  0.00000000000E+00  0.00000000000E+00 -0.19576231485E+03  0.21568902115E+03  0.90547611396E+02 0.  0.
    9000005    2    3    3    0    0 -0.31745937317E+02 -0.26324330600E+02 -0.13862604379E+03  0.14522393485E+03  0.13116261539E+02 0.  0.
         22    1    3    3    0    0  0.31745937317E+02  0.26324330600E+02 -0.57136271059E+02  0.70465086307E+02  0.00000000000E+00 0. -1.
         22    1    4    4    0    0 -0.31967920291E+02 -0.27443938349E+02 -0.13471482668E+03  0.14114957388E+03  0.00000000000E+00 0.  1.
         22    1    4    4    0    0  0.22198297444E+00  0.11196077491E+01 -0.39112171128E+01  0.40743609629E+01  0.00000000000E+00 0.  1.
<mgrwt>
<rscale>  0 0.90547611E+02</rscale>
<asrwt>0</asrwt>
<pdfrwt beam="2">  1        2 0.31650100E-01 0.90547611E+02</pdfrwt>
<pdfrwt beam="1">  1       -2 0.15328237E-02 0.90547611E+02</pdfrwt>
<totfact> 0.15920624E+05</totfact>
</mgrwt>
</event>
<event>
 7    1  0.3960685E-009  0.8796134E+02  0.7818608E-02  0.1307865E+00
          2   -1    0    0  501    0  0.00000000000E+00  0.00000000000E+00  0.13861166142E+03  0.13861166144E+03  0.25500000000E-02 0. -1.
         -2   -1    0    0    0  501 -0.00000000000E+00 -0.00000000000E+00 -0.13954809504E+02  0.13954809737E+02  0.25500000000E-02 0.  1.
         23    2    1    2    0    0  0.35527136788E-14  0.00000000000E+00  0.12465685191E+03  0.15256647118E+03  0.87961340363E+02 0.  0.
    9000005    2    3    3    0    0  0.28158826859E+02  0.29995272574E+02  0.86597194557E+02  0.96520298917E+02  0.11156078660E+02 0.  0.
         22    1    3    3    0    0 -0.28158826859E+02 -0.29995272574E+02  0.38059657355E+02  0.56046172259E+02  0.00000000000E+00 0.  1.
         22    1    4    4    0    0  0.17654677170E+02  0.14703535821E+02  0.58508855076E+02  0.62858314596E+02  0.00000000000E+00 0.  1.
         22    1    4    4    0    0  0.10504149689E+02  0.15291736753E+02  0.28088339481E+02  0.33661984321E+02  0.00000000000E+00 0.  1.
<mgrwt>
<rscale>  0 0.87961340E+02</rscale>
<asrwt>0</asrwt>
<pdfrwt beam="1">  1        2 0.21324871E-01 0.87961340E+02</pdfrwt>
<pdfrwt beam="2">  1       -2 0.21468938E-02 0.87961340E+02</pdfrwt>
<totfact> 0.15006450E+05</totfact>
</mgrwt>
</event>
<event>
 7    1  0.3960685E-009  0.9223111E+02  0.7818608E-02  0.1297537E+00
          2   -1    0    0  501    0  0.00000000000E+00  0.00000000000E+00  0.13489691160E+02  0.13489691401E+02  0.25500000000E-02 0. -1.
         -2   -1    0    0    0  501 -0.00000000000E+00 -0.00000000000E+00 -0.15764959198E+03  0.15764959200E+03  0.25500000000E-02 0.  1.
         23    2    1    2    0    0  0.00000000000E+00  0.00000000000E+00 -0.14415990082E+03  0.17113928340E+03  0.92231108193E+02 0.  0.
    9000005    2    3    3    0    0  0.17587429489E+02  0.32239888782E+02 -0.23857133694E+02  0.45355803234E+02  0.11800760745E+02 0.  0.
         22    1    3    3    0    0 -0.17587429489E+02 -0.32239888782E+02 -0.12030276713E+03  0.12578348017E+03  0.00000000000E+00 0.  1.
         22    1    4    4    0    0  0.77310602524E+00  0.46430234035E+00  0.12246199529E+01  0.15208430618E+01  0.00000000000E+00 0.  1.
         22    1    4    4    0    0  0.16814323464E+02  0.31775586442E+02 -0.25081753647E+02  0.43834960172E+02  0.00000000000E+00 0.  1.
<mgrwt>
<rscale>  0 0.92231108E+02</rscale>
<asrwt>0</asrwt>
<pdfrwt beam="1">  1        2 0.20753372E-02 0.92231108E+02</pdfrwt>
<pdfrwt beam="2">  1       -2 0.24253782E-01 0.92231108E+02</pdfrwt>
<totfact> 0.66612836E+04</totfact>
</mgrwt>
</event>
<event>
 7    1  0.3960685E-009  0.9192042E+02  0.7818608E-02  0.1298267E+00
         -2   -1    0    0    0  501 -0.00000000000E+00  0.00000000000E+00  0.24961481523E+03  0.24961481524E+03  0.25500000000E-02 0. -1.
          2   -1    0    0  501    0  0.00000000000E+00 -0.00000000000E+00 -0.84624025845E+01  0.84624029687E+01  0.25500000000E-02 0.  1.
         23    2    1    2    0    0 -0.44408920985E-15  0.71054273576E-14  0.24115241264E+03  0.25807721821E+03  0.91920424472E+02 0.  0.
    9000005    2    3    3    0    0 -0.24032119275E+01  0.44158047182E+02  0.15491199923E+03  0.16115912153E+03  0.43389385953E+01 0.  0.
         22    1    3    3    0    0  0.24032119275E+01 -0.44158047182E+02  0.86240413416E+02  0.96918096683E+02  0.00000000000E+00 0.  1.
         22    1    4    4    0    0 -0.33466457442E+01  0.40205094329E+02  0.14229696406E+03  0.14790563082E+03  0.00000000000E+00 0.  1.
         22    1    4    4    0    0  0.94343381666E+00  0.39529528524E+01  0.12615035173E+02  0.13253490711E+02  0.00000000000E+00 0.  1.
<mgrwt>
<rscale>  0 0.91920424E+02</rscale>
<asrwt>0</asrwt>
<pdfrwt beam="2">  1        2 0.13019079E-02 0.91920424E+02</pdfrwt>
<pdfrwt beam="1">  1       -2 0.38402285E-01 0.91920424E+02</pdfrwt>
<totfact> 0.55059300E+04</totfact>
</mgrwt>
</event>
<event>
 7    1  0.3960685E-009  0.9156165E+02  0.7818608E-02  0.1299113E+00
         -2   -1    0    0    0  501 -0.00000000000E+00  0.00000000000E+00  0.30766958526E+02  0.30766958632E+02  0.25500000000E-02 0.  1.
          2   -1    0    0  501    0  0.00000000000E+00 -0.00000000000E+00 -0.68121258778E+02  0.68121258826E+02  0.25500000000E-02 0. -1.
         23    2    1    2    0    0 -0.71054273576E-14 -0.44408920985E-15 -0.37354300252E+02  0.98888217458E+02  0.91561650294E+02 0.  0.
    9000005    2    3    3    0    0 -0.45211526236E+02  0.26721074776E+01 -0.16905297588E+02  0.49195320853E+02  0.91196625123E+01 0.  0.
         22    1    3    3    0    0  0.45211526236E+02 -0.26721074776E+01 -0.20449002664E+02  0.49692896604E+02  0.00000000000E+00 0. -1.
         22    1    4    4    0    0 -0.55095598381E+01 -0.24351992935E+01 -0.92535586153E+00  0.60944014209E+01  0.00000000000E+00 0.  1.
         22    1    4    4    0    0 -0.39701966398E+02  0.51073067711E+01 -0.15979941727E+02  0.43100919432E+02  0.00000000000E+00 0.  1.
<mgrwt>
<rscale>  0 0.91561650E+02</rscale>
<asrwt>0</asrwt>
<pdfrwt beam="2">  1        2 0.10480194E-01 0.91561650E+02</pdfrwt>
<pdfrwt beam="1">  1       -2 0.47333783E-02 0.91561650E+02</pdfrwt>
<totfact> 0.10850193E+05</totfact>
</mgrwt>
</event>
<event>
 7    1  0.3960685E-009  0.9562275E+02  0.7818608E-02  0.1289780E+00
         -2   -1    0    0    0  501 -0.00000000000E+00  0.00000000000E+00  0.96957463454E+02  0.96957463488E+02  0.25500000000E-02 0.  1.
          2   -1    0    0  501    0  0.00000000000E+00 -0.00000000000E+00 -0.23576600004E+02  0.23576600142E+02  0.25500000000E-02 0. -1.
         23    2    1    2    0    0  0.00000000000E+00  0.00000000000E+00  0.73380863450E+02  0.12053406363E+03  0.95622745068E+02 0.  0.
    9000005    2    3    3    0    0  0.21680375511E+02  0.14079691547E+02  0.86549914311E+02  0.91521992057E+02  0.14734685828E+02 0.  0.
         22    1    3    3    0    0 -0.21680375511E+02 -0.14079691547E+02 -0.13169050861E+02  0.29012071573E+02  0.00000000000E+00 0.  1.
         22    1    4    4    0    0  0.82157120260E+01  0.14065006789E+02  0.46844543898E+02  0.49595701760E+02  0.00000000000E+00 0. -1.
         22    1    4    4    0    0  0.13464663485E+02  0.14684758190E-01  0.39705370413E+02  0.41926290297E+02  0.00000000000E+00 0. -1.
<mgrwt>
<rscale>  0 0.95622745E+02</rscale>
<asrwt>0</asrwt>
<pdfrwt beam="2">  1        2 0.36271693E-02 0.95622745E+02</pdfrwt>
<pdfrwt beam="1">  1       -2 0.14916533E-01 0.95622745E+02</pdfrwt>
<totfact> 0.71554614E+04</totfact>
</mgrwt>
</event>
<event>
 7    1  0.3960685E-009  0.9112967E+02  0.7818608E-02  0.1300139E+00
          2   -1    0    0  501    0  0.00000000000E+00  0.00000000000E+00  0.34256291227E+03  0.34256291228E+03  0.25500000000E-02 0.  1.
         -2   -1    0    0    0  501 -0.00000000000E+00 -0.00000000000E+00 -0.60606503434E+01  0.60606508798E+01  0.25500000000E-02 0. -1.
         23    2    1    2    0    0  0.00000000000E+00  0.88817841970E-15  0.33650226193E+03  0.34862356316E+03  0.91129668650E+02 0.  0.
    9000005    2    3    3    0    0  0.16372619690E+02  0.51713245400E+01  0.32940615548E+03  0.33004508099E+03  0.11248775340E+02 0.  0.
         22    1    3    3    0    0 -0.16372619690E+02 -0.51713245400E+01  0.70961064521E+01  0.18578482172E+02  0.00000000000E+00 0. -1.
         22    1    4    4    0    0  0.12891022799E+02  0.37096201276E+01  0.30909354823E+03  0.30938448783E+03  0.00000000000E+00 0.  1.
         22    1    4    4    0    0  0.34815968909E+01  0.14617044125E+01  0.20312607246E+02  0.20660593163E+02  0.00000000000E+00 0.  1.
<mgrwt>
<rscale>  0 0.91129669E+02</rscale>
<asrwt>0</asrwt>
<pdfrwt beam="1">  1        2 0.52702007E-01 0.91129669E+02</pdfrwt>
<pdfrwt beam="2">  1       -2 0.93240742E-03 0.91129669E+02</pdfrwt>
<totfact> 0.18896535E+05</totfact>
</mgrwt>
</event>
<event>
 7    1  0.3960685E-009  0.9321200E+02  0.7818608E-02  0.1295255E+00
         -2   -1    0    0    0  501 -0.00000000000E+00  0.00000000000E+00  0.14102917535E+02  0.14102917766E+02  0.25500000000E-02 0.  1.
          2   -1    0    0  501    0  0.00000000000E+00 -0.00000000000E+00 -0.15401914640E+03  0.15401914642E+03  0.25500000000E-02 0. -1.
         23    2    1    2    0    0  0.00000000000E+00  0.00000000000E+00 -0.13991622887E+03  0.16812206419E+03  0.93212002267E+02 0.  0.
    9000005    2    3    3    0    0  0.15696563185E+02  0.34266755437E+02 -0.11881857367E+03  0.12492827206E+03  0.82841466550E+01 0.  0.
         22    1    3    3    0    0 -0.15696563185E+02 -0.34266755437E+02 -0.21097655197E+02  0.43193792133E+02  0.00000000000E+00 0.  1.
         22    1    4    4    0    0  0.13379740272E+02  0.28597097566E+02 -0.87633079947E+02  0.93147024321E+02  0.00000000000E+00 0.  1.
         22    1    4    4    0    0  0.23168229134E+01  0.56696578709E+01 -0.31185493724E+02  0.31781247735E+02  0.00000000000E+00 0.  1.
<mgrwt>
<rscale>  0 0.93212002E+02</rscale>
<asrwt>0</asrwt>
<pdfrwt beam="2">  1        2 0.23695252E-01 0.93212002E+02</pdfrwt>
<pdfrwt beam="1">  1       -2 0.21696797E-02 0.93212002E+02</pdfrwt>
<totfact> 0.13286070E+05</totfact>
</mgrwt>
</event>
<event>
 7    1  0.3960685E-009  0.9238073E+02  0.7818608E-02  0.1297187E+00
         -2   -1    0    0    0  501 -0.00000000000E+00  0.00000000000E+00  0.10027798309E+02  0.10027798634E+02  0.25500000000E-02 0.  1.
          2   -1    0    0  501    0  0.00000000000E+00 -0.00000000000E+00 -0.21276352468E+03  0.21276352469E+03  0.25500000000E-02 0. -1.
         23    2    1    2    0    0  0.00000000000E+00  0.00000000000E+00 -0.20273572637E+03  0.22279132333E+03  0.92380728529E+02 0.  0.
    9000005    2    3    3    0    0  0.28190843899E+02 -0.21138259792E+02 -0.17188677040E+03  0.17595962689E+03  0.13235510967E+02 0.  0.
         22    1    3    3    0    0 -0.28190843899E+02  0.21138259792E+02 -0.30848955972E+02  0.46831696438E+02  0.00000000000E+00 0.  1.
         22    1    4    4    0    0  0.43707223421E+01  0.92155356505E+00 -0.11871815303E+02  0.12684339689E+02  0.00000000000E+00 0.  1.
         22    1    4    4    0    0  0.23820121557E+02 -0.22059813357E+02 -0.16001495509E+03  0.16327528720E+03  0.00000000000E+00 0.  1.
<mgrwt>
<rscale>  0 0.92380729E+02</rscale>
<asrwt>0</asrwt>
<pdfrwt beam="2">  1        2 0.32732847E-01 0.92380729E+02</pdfrwt>
<pdfrwt beam="1">  1       -2 0.15427384E-02 0.92380729E+02</pdfrwt>
<totfact> 0.15270517E+05</totfact>
</mgrwt>
</event>
<event>
 7    1  0.3960685E-009  0.9398652E+02  0.7818608E-02  0.1293475E+00
          2   -1    0    0  501    0  0.00000000000E+00  0.00000000000E+00  0.45839783651E+02  0.45839783722E+02  0.25500000000E-02 0.  1.
         -2   -1    0    0    0  501 -0.00000000000E+00 -0.00000000000E+00 -0.48175764216E+02  0.48175764283E+02  0.25500000000E-02 0. -1.
         23    2    1    2    0    0  0.00000000000E+00  0.00000000000E+00 -0.23359805651E+01  0.94015548005E+02  0.93986522765E+02 0.  0.
    9000005    2    3    3    0    0  0.42781739195E+02  0.15472616141E+02 -0.96554457014E+01  0.47936771669E+02  0.11620128552E+02 0.  0.
         22    1    3    3    0    0 -0.42781739195E+02 -0.15472616141E+02  0.73194651364E+01  0.46078776336E+02  0.00000000000E+00 0.  1.
         22    1    4    4    0    0  0.47356574932E+01  0.35888225721E+01 -0.50775923478E+01  0.78158840445E+01  0.00000000000E+00 0. -1.
         22    1    4    4    0    0  0.38046081702E+02  0.11883793569E+02 -0.45778533536E+01  0.40120887624E+02  0.00000000000E+00 0. -1.
<mgrwt>
<rscale>  0 0.93986523E+02</rscale>
<asrwt>0</asrwt>
<pdfrwt beam="1">  1        2 0.70522744E-02 0.93986523E+02</pdfrwt>
<pdfrwt beam="2">  1       -2 0.74116560E-02 0.93986523E+02</pdfrwt>
<totfact> 0.90544391E+04</totfact>
</mgrwt>
</event>
<event>
 7    1  0.3960685E-009  0.1002784E+03  0.7818608E-02  0.1279712E+00
         -2   -1    0    0    0  501 -0.00000000000E+00  0.00000000000E+00  0.13249520106E+02  0.13249520351E+02  0.25500000000E-02 0.  1.
          2   -1    0    0  501    0  0.00000000000E+00 -0.00000000000E+00 -0.18973824882E+03  0.18973824884E+03  0.25500000000E-02 0. -1.
         23    2    1    2    0    0  0.35527136788E-14 -0.71054273576E-14 -0.17648872872E+03  0.20298776919E+03  0.10027842778E+03 0.  0.
    9000005    2    3    3    0    0  0.19995367557E+02 -0.43952867337E+02 -0.70437072126E+02  0.86460419884E+02  0.13503844120E+02 0.  0.
         22    1    3    3    0    0 -0.19995367557E+02  0.43952867337E+02 -0.10605165659E+03  0.11652734931E+03  0.00000000000E+00 0.  1.
         22    1    4    4    0    0  0.33321654733E+01 -0.68586314055E+00 -0.25516966411E+01  0.42526333886E+01  0.00000000000E+00 0.  1.
         22    1    4    4    0    0  0.16663202083E+02 -0.43267004196E+02 -0.67885375484E+02  0.82207786495E+02  0.00000000000E+00 0.  1.
<mgrwt>
<rscale>  0 0.10027843E+03</rscale>
<asrwt>0</asrwt>
<pdfrwt beam="2">  1        2 0.29190498E-01 0.10027843E+03</pdfrwt>
<pdfrwt beam="1">  1       -2 0.20383879E-02 0.10027843E+03</pdfrwt>
<totfact> 0.11723985E+05</totfact>
</mgrwt>
</event>
<event>
 7    1  0.3960685E-009  0.8931862E+02  0.7818608E-02  0.1304510E+00
          2   -1    0    0  501    0  0.00000000000E+00  0.00000000000E+00  0.46630084817E+03  0.46630084817E+03  0.25500000000E-02 0. -1.
         -2   -1    0    0    0  501 -0.00000000000E+00 -0.00000000000E+00 -0.42771828462E+01  0.42771836063E+01  0.25500000000E-02 0.  1.
         23    2    1    2    0    0  0.00000000000E+00  0.00000000000E+00  0.46202366532E+03  0.47057803178E+03  0.89318624473E+02 0.  0.
    9000005    2    3    3    0    0 -0.33773316498E+02 -0.26337523279E+02  0.28974665503E+03  0.29305713071E+03  0.97496524519E+01 0.  0.
         22    1    3    3    0    0  0.33773316498E+02  0.26337523279E+02  0.17227701029E+03  0.17752090107E+03  0.00000000000E+00 0. -1.
         22    1    4    4    0    0 -0.14798720508E+02 -0.16684686661E+02  0.16621065621E+03  0.16770021806E+03  0.00000000000E+00 0. -1.
         22    1    4    4    0    0 -0.18974595990E+02 -0.96528366176E+01  0.12353599881E+03  0.12535691266E+03  0.00000000000E+00 0. -1.
<mgrwt>
<rscale>  0 0.89318624E+02</rscale>
<asrwt>0</asrwt>
<pdfrwt beam="1">  1        2 0.71738590E-01 0.89318624E+02</pdfrwt>
<pdfrwt beam="2">  1       -2 0.65802821E-03 0.89318624E+02</pdfrwt>
<totfact> 0.22236015E+05</totfact>
</mgrwt>
</event>
<event>
 7    1  0.3960685E-009  0.9076118E+02  0.7818608E-02  0.1301019E+00
         -2   -1    0    0    0  501 -0.00000000000E+00  0.00000000000E+00  0.62497376837E+02  0.62497376889E+02  0.25500000000E-02 0.  1.
          2   -1    0    0  501    0  0.00000000000E+00 -0.00000000000E+00 -0.32951753392E+02  0.32951753491E+02  0.25500000000E-02 0. -1.
         23    2    1    2    0    0 -0.71054273576E-14  0.88817841970E-15  0.29545623445E+02  0.95449130380E+02  0.90761184575E+02 0.  0.
    9000005    2    3    3    0    0 -0.38530171511E+02  0.74253338235E+01  0.38451790265E+02  0.55211964644E+02  0.54873642328E+01 0.  0.
         22    1    3    3    0    0  0.38530171511E+02 -0.74253338235E+01 -0.89061668204E+01  0.40237165736E+02  0.00000000000E+00 0.  1.
         22    1    4    4    0    0 -0.30816286346E+02  0.36486571437E+01  0.30245218655E+02  0.43332775754E+02  0.00000000000E+00 0. -1.
         22    1    4    4    0    0 -0.77138851648E+01  0.37766766798E+01  0.82065716100E+01  0.11879188889E+02  0.00000000000E+00 0. -1.
<mgrwt>
<rscale>  0 0.90761185E+02</rscale>
<asrwt>0</asrwt>
<pdfrwt beam="2">  1        2 0.50695006E-02 0.90761185E+02</pdfrwt>
<pdfrwt beam="1">  1       -2 0.96149810E-02 0.90761185E+02</pdfrwt>
<totfact> 0.91919722E+04</totfact>
</mgrwt>
</event>
<event>
 7    1  0.3960685E-009  0.8844193E+02  0.7818608E-02  0.1306669E+00
          2   -1    0    0  501    0  0.00000000000E+00  0.00000000000E+00  0.15115006738E+02  0.15115006954E+02  0.25500000000E-02 0. -1.
         -2   -1    0    0    0  501 -0.00000000000E+00 -0.00000000000E+00 -0.12937433406E+03  0.12937433409E+03  0.25500000000E-02 0.  1.
         23    2    1    2    0    0  0.00000000000E+00  0.35527136788E-14 -0.11425932732E+03  0.14448934104E+03  0.88441934590E+02 0.  0.
    9000005    2    3    3    0    0 -0.34756870977E+02 -0.24870261115E+02 -0.75595815630E+02  0.86857430570E+02  0.17076113438E+01 0.  0.
         22    1    3    3    0    0  0.34756870977E+02  0.24870261115E+02 -0.38663511695E+02  0.57631910472E+02  0.00000000000E+00 0. -1.
         22    1    4    4    0    0 -0.22006780678E+02 -0.15279420709E+02 -0.45879064621E+02  0.53128595535E+02  0.00000000000E+00 0. -1.
         22    1    4    4    0    0 -0.12750090298E+02 -0.95908404057E+01 -0.29716751009E+02  0.33728835035E+02  0.00000000000E+00 0. -1.
<mgrwt>
<rscale>  0 0.88441935E+02</rscale>
<asrwt>0</asrwt>
<pdfrwt beam="1">  1        2 0.23253858E-02 0.88441935E+02</pdfrwt>
<pdfrwt beam="2">  1       -2 0.19903743E-01 0.88441935E+02</pdfrwt>
<totfact> 0.79424289E+04</totfact>
</mgrwt>
</event>
<event>
 7    1  0.3960685E-009  0.9136669E+02  0.7818608E-02  0.1299575E+00
          2   -1    0    0  501    0  0.00000000000E+00  0.00000000000E+00  0.10717982123E+03  0.10717982126E+03  0.25500000000E-02 0. -1.
         -2   -1    0    0    0  501 -0.00000000000E+00 -0.00000000000E+00 -0.19471650660E+02  0.19471650827E+02  0.25500000000E-02 0.  1.
         23    2    1    2    0    0  0.00000000000E+00 -0.44408920985E-15  0.87708170566E+02  0.12665147208E+03  0.91366690849E+02 0.  0.
    9000005    2    3    3    0    0  0.20073564449E+02 -0.35967587685E+01 -0.10619992416E+02  0.26230795433E+02  0.12624806010E+02 0.  0.
         22    1    3    3    0    0 -0.20073564449E+02  0.35967587685E+01  0.98328162982E+02  0.10042067665E+03  0.00000000000E+00 0. -1.
         22    1    4    4    0    0  0.21367886073E+02 -0.33016756124E+01 -0.75767109971E+01  0.22910568885E+02  0.00000000000E+00 0. -1.
         22    1    4    4    0    0 -0.12943216238E+01 -0.29508315611E+00 -0.30432814191E+01  0.33202265481E+01  0.00000000000E+00 0. -1.
<mgrwt>
<rscale>  0 0.91366691E+02</rscale>
<asrwt>0</asrwt>
<pdfrwt beam="1">  1        2 0.16489204E-01 0.91366691E+02</pdfrwt>
<pdfrwt beam="2">  1       -2 0.29956385E-02 0.91366691E+02</pdfrwt>
<totfact> 0.12460530E+05</totfact>
</mgrwt>
</event>
<event>
 7    1  0.3960685E-009  0.9289025E+02  0.7818608E-02  0.1296000E+00
         -2   -1    0    0    0  501 -0.00000000000E+00  0.00000000000E+00  0.18778307294E+01  0.18778324608E+01  0.25500000000E-02 0.  1.
          2   -1    0    0  501    0  0.00000000000E+00 -0.00000000000E+00 -0.11487449081E+04  0.11487449081E+04  0.25500000000E-02 0. -1.
         23    2    1    2    0    0 -0.17763568394E-14  0.00000000000E+00 -0.11468670774E+04  0.11506227406E+04  0.92890246772E+02 0.  0.
    9000005    2    3    3    0    0 -0.12309656956E+02 -0.78438042492E+01 -0.11191077995E+04  0.11192598576E+04  0.11283130325E+02 0.  0.
         22    1    3    3    0    0  0.12309656956E+02  0.78438042492E+01 -0.27759277877E+02  0.31362882963E+02  0.00000000000E+00 0.  1.
         22    1    4    4    0    0  0.17569485687E+01 -0.23047582401E+01 -0.10732758357E+03  0.10736670328E+03  0.00000000000E+00 0. -1.
         22    1    4    4    0    0 -0.14066605525E+02 -0.55390460091E+01 -0.10117802159E+04  0.10118931543E+04  0.00000000000E+00 0. -1.
<mgrwt>
<rscale>  0 0.92890247E+02</rscale>
<asrwt>0</asrwt>
<pdfrwt beam="2">  1        2 0.17672942E+00 0.92890247E+02</pdfrwt>
<pdfrwt beam="1">  1       -2 0.28889809E-03 0.92890247E+02</pdfrwt>
<totfact> 0.23770227E+05</totfact>
</mgrwt>
</event>
<event>
 7    1  0.3960685E-009  0.9456602E+02  0.7818608E-02  0.1292157E+00
         -2   -1    0    0    0  501 -0.00000000000E+00  0.00000000000E+00  0.16996326104E+03  0.16996326106E+03  0.25500000000E-02 0.  1.
          2   -1    0    0  501    0  0.00000000000E+00 -0.00000000000E+00 -0.13153920293E+02  0.13153920541E+02  0.25500000000E-02 0. -1.
         23    2    1    2    0    0  0.00000000000E+00  0.11102230246E-15  0.15680934074E+03  0.18311718160E+03  0.94566023769E+02 0.  0.
    9000005    2    3    3    0    0  0.39171182033E+02  0.55676585436E+00  0.12899251827E+03  0.13507067181E+03  0.83860076448E+01 0.  0.
         22    1    3    3    0    0 -0.39171182033E+02 -0.55676585436E+00  0.27816822479E+02  0.48046509789E+02  0.00000000000E+00 0. -1.
         22    1    4    4    0    0  0.17554815345E+02  0.25239317171E+01  0.69996262821E+02  0.72208161464E+02  0.00000000000E+00 0. -1.
         22    1    4    4    0    0  0.21616366688E+02 -0.19671658628E+01  0.58996255444E+02  0.62862510344E+02  0.00000000000E+00 0. -1.
<mgrwt>
<rscale>  0 0.94566024E+02</rscale>
<asrwt>0</asrwt>
<pdfrwt beam="2">  1        2 0.20236802E-02 0.94566024E+02</pdfrwt>
<pdfrwt beam="1">  1       -2 0.26148193E-01 0.94566024E+02</pdfrwt>
<totfact> 0.60728940E+04</totfact>
</mgrwt>
</event>
<event>
 7    1  0.3960685E-009  0.9476709E+02  0.7818608E-02  0.1291702E+00
         -2   -1    0    0    0  501 -0.00000000000E+00  0.00000000000E+00  0.35566870443E+01  0.35566879584E+01  0.25500000000E-02 0.  1.
          2   -1    0    0  501    0  0.00000000000E+00 -0.00000000000E+00 -0.63126168480E+03  0.63126168481E+03  0.25500000000E-02 0. -1.
         23    2    1    2    0    0  0.00000000000E+00  0.00000000000E+00 -0.62770499776E+03  0.63481837276E+03  0.94767094451E+02 0.  0.
    9000005    2    3    3    0    0 -0.28441934273E+02  0.16291613533E+02 -0.54187335211E+03  0.54294110849E+03  0.91628195258E+01 0.  0.
         22    1    3    3    0    0  0.28441934273E+02 -0.16291613533E+02 -0.85831645647E+02  0.91877264278E+02  0.00000000000E+00 0.  1.
         22    1    4    4    0    0 -0.28862859248E+02  0.16764397449E+02 -0.53414570199E+03  0.53518757517E+03  0.00000000000E+00 0. -1.
         22    1    4    4    0    0  0.42092497583E+00 -0.47278391644E+00 -0.77276501198E+01  0.77535333134E+01  0.00000000000E+00 0. -1.
<mgrwt>
<rscale>  0 0.94767094E+02</rscale>
<asrwt>0</asrwt>
<pdfrwt beam="2">  1        2 0.97117093E-01 0.94767094E+02</pdfrwt>
<pdfrwt beam="1">  1       -2 0.54718319E-03 0.94767094E+02</pdfrwt>
<totfact> 0.20861969E+05</totfact>
</mgrwt>
</event>
<event>
 7    1  0.3960685E-009  0.8935906E+02  0.7818608E-02  0.1304411E+00
          2   -1    0    0  501    0  0.00000000000E+00  0.00000000000E+00  0.30429950125E+03  0.30429950126E+03  0.25500000000E-02 0. -1.
         -2   -1    0    0    0  501 -0.00000000000E+00 -0.00000000000E+00 -0.65601827757E+01  0.65601832713E+01  0.25500000000E-02 0.  1.
         23    2    1    2    0    0  0.17763568394E-14  0.00000000000E+00  0.29773931848E+03  0.31085968454E+03  0.89359060547E+02 0.  0.
    9000005    2    3    3    0    0  0.12012913249E+02  0.10921174730E+02  0.29329147280E+03  0.29402622163E+03  0.12959507960E+02 0.  0.
         22    1    3    3    0    0 -0.12012913249E+02 -0.10921174730E+02  0.44478456776E+01  0.16833462905E+02  0.00000000000E+00 0.  1.
         22    1    4    4    0    0  0.10950091877E+02  0.11527589014E+02  0.29095168019E+03  0.29138577527E+03  0.00000000000E+00 0.  1.
         22    1    4    4    0    0  0.10628213723E+01 -0.60641428398E+00  0.23397926059E+01  0.26404463622E+01  0.00000000000E+00 0.  1.
<mgrwt>
<rscale>  0 0.89359061E+02</rscale>
<asrwt>0</asrwt>
<pdfrwt beam="1">  1        2 0.46815300E-01 0.89359061E+02</pdfrwt>
<pdfrwt beam="2">  1       -2 0.10092591E-02 0.89359061E+02</pdfrwt>
<totfact> 0.19056498E+05</totfact>
</mgrwt>
</event>
<event>
 7    1  0.3960685E-009  0.9377564E+02  0.7818608E-02  0.1293958E+00
         -2   -1    0    0    0  501 -0.00000000000E+00  0.00000000000E+00  0.21786167016E+01  0.21786181939E+01  0.25500000000E-02 0. -1.
          2   -1    0    0  501    0  0.00000000000E+00 -0.00000000000E+00 -0.10091113999E+04  0.10091113999E+04  0.25500000000E-02 0.  1.
         23    2    1    2    0    0  0.00000000000E+00  0.88817841970E-15 -0.10069327832E+04  0.10112900181E+04  0.93775640886E+02 0.  0.
    9000005    2    3    3    0    0 -0.18101722741E+02  0.76883279126E+01 -0.96176165444E+03  0.96202325826E+03  0.10792901390E+02 0.  0.
         22    1    3    3    0    0  0.18101722741E+02 -0.76883279126E+01 -0.45171128790E+02  0.49266759874E+02  0.00000000000E+00 0. -1.
         22    1    4    4    0    0 -0.41036590179E+01  0.55270034763E+01 -0.49190349237E+03  0.49195165778E+03  0.00000000000E+00 0.  1.
         22    1    4    4    0    0 -0.13998063723E+02  0.21613244363E+01 -0.46985816207E+03  0.47007160048E+03  0.00000000000E+00 0.  1.
<mgrwt>
<rscale>  0 0.93775641E+02</rscale>
<asrwt>0</asrwt>
<pdfrwt beam="2">  1        2 0.15524753E+00 0.93775641E+02</pdfrwt>
<pdfrwt beam="1">  1       -2 0.33517272E-03 0.93775641E+02</pdfrwt>
<totfact> 0.23224177E+05</totfact>
</mgrwt>
</event>
<event>
 7    1  0.3960685E-009  0.9017596E+02  0.7818608E-02  0.1302426E+00
          2   -1    0    0  501    0  0.00000000000E+00  0.00000000000E+00  0.47586674901E+03  0.47586674901E+03  0.25500000000E-02 0. -1.
         -2   -1    0    0    0  501 -0.00000000000E+00 -0.00000000000E+00 -0.42720485804E+01  0.42720493414E+01  0.25500000000E-02 0.  1.
         23    2    1    2    0    0  0.00000000000E+00 -0.35527136788E-14  0.47159470043E+03  0.48013879835E+03  0.90175962515E+02 0.  0.
    9000005    2    3    3    0    0 -0.38933379215E+02 -0.21907736255E+02  0.26506751555E+03  0.26883514241E+03  0.39735459092E+01 0.  0.
         22    1    3    3    0    0  0.38933379215E+02  0.21907736255E+02  0.20652718488E+03  0.21130365595E+03  0.00000000000E+00 0. -1.
         22    1    4    4    0    0 -0.21192390261E+02 -0.97009807989E+01  0.13519515434E+03  0.13718949008E+03  0.00000000000E+00 0.  1.
         22    1    4    4    0    0 -0.17740988955E+02 -0.12206755456E+02  0.12987236121E+03  0.13164565232E+03  0.00000000000E+00 0.  1.
<mgrwt>
<rscale>  0 0.90175963E+02</rscale>
<asrwt>0</asrwt>
<pdfrwt beam="1">  1        2 0.73210264E-01 0.90175963E+02</pdfrwt>
<pdfrwt beam="2">  1       -2 0.65723835E-03 0.90175963E+02</pdfrwt>
<totfact> 0.21829604E+05</totfact>
</mgrwt>
</event>
<event>
 7    1  0.3960685E-009  0.9504198E+02  0.7818608E-02  0.1291082E+00
          2   -1    0    0  501    0  0.00000000000E+00  0.00000000000E+00  0.27769205925E+02  0.27769206042E+02  0.25500000000E-02 0. -1.
         -2   -1    0    0    0  501 -0.00000000000E+00 -0.00000000000E+00 -0.81321891996E+02  0.81321892036E+02  0.25500000000E-02 0.  1.
         23    2    1    2    0    0  0.00000000000E+00  0.00000000000E+00 -0.53552686072E+02  0.10909109808E+03  0.95041977538E+02 0.  0.
    9000005    2    3    3    0    0 -0.32151235283E+02  0.57674024174E+01  0.10745264027E+02  0.36971813225E+02  0.13582687998E+02 0.  0.
         22    1    3    3    0    0  0.32151235283E+02 -0.57674024174E+01 -0.64297950098E+02  0.72119284853E+02  0.00000000000E+00 0.  1.
         22    1    4    4    0    0 -0.12182592353E+02 -0.37805513260E+01  0.69131699778E+01  0.14508619641E+02  0.00000000000E+00 0. -1.
         22    1    4    4    0    0 -0.19968642930E+02  0.95479537434E+01  0.38320940491E+01  0.22463193583E+02  0.00000000000E+00 0. -1.
<mgrwt>
<rscale>  0 0.95041978E+02</rscale>
<asrwt>0</asrwt>
<pdfrwt beam="1">  1        2 0.42721856E-02 0.95041978E+02</pdfrwt>
<pdfrwt beam="2">  1       -2 0.12511060E-01 0.95041978E+02</pdfrwt>
<totfact> 0.76472365E+04</totfact>
</mgrwt>
</event>
<event>
 7    1  0.3960685E-009  0.9278595E+02  0.7818608E-02  0.1296242E+00
         -2   -1    0    0    0  501 -0.00000000000E+00  0.00000000000E+00  0.49265940863E+01  0.49265947462E+01  0.25500000000E-02 0.  1.
          2   -1    0    0  501    0  0.00000000000E+00 -0.00000000000E+00 -0.43687544084E+03  0.43687544084E+03  0.25500000000E-02 0. -1.
         23    2    1    2    0    0  0.17763568394E-14  0.71054273576E-14 -0.43194884675E+03  0.44180203559E+03  0.92785949598E+02 0.  0.
    9000005    2    3    3    0    0 -0.15106632040E+02 -0.42806419843E+02 -0.23067393123E+03  0.23547173842E+03  0.13261867725E+02 0.  0.
         22    1    3    3    0    0  0.15106632040E+02  0.42806419843E+02 -0.20127491552E+03  0.20633029717E+03  0.00000000000E+00 0. -1.
         22    1    4    4    0    0 -0.71368022424E+00 -0.28970368861E+01 -0.48281222634E+01  0.56756432915E+01  0.00000000000E+00 0. -1.
         22    1    4    4    0    0 -0.14392951816E+02 -0.39909382957E+02 -0.22584580897E+03  0.22979609513E+03  0.00000000000E+00 0. -1.
<mgrwt>
<rscale>  0 0.92785950E+02</rscale>
<asrwt>0</asrwt>
<pdfrwt beam="2">  1        2 0.67211576E-01 0.92785950E+02</pdfrwt>
<pdfrwt beam="1">  1       -2 0.75793795E-03 0.92785950E+02</pdfrwt>
<totfact> 0.19658047E+05</totfact>
</mgrwt>
</event>
<event>
 7    1  0.3960685E-009  0.9278246E+02  0.7818608E-02  0.1296250E+00
          2   -1    0    0  501    0  0.00000000000E+00  0.00000000000E+00  0.66645878222E+02  0.66645878271E+02  0.25500000000E-02 0. -1.
         -2   -1    0    0    0  501 -0.00000000000E+00 -0.00000000000E+00 -0.32292264799E+02  0.32292264900E+02  0.25500000000E-02 0.  1.
         23    2    1    2    0    0  0.00000000000E+00 -0.17763568394E-14  0.34353613423E+02  0.98938143170E+02  0.92782462884E+02 0.  0.
    9000005    2    3    3    0    0  0.11688863730E+02 -0.14164984663E+02  0.62199245023E+02  0.65581651673E+02  0.97432350310E+01 0.  0.
         22    1    3    3    0    0 -0.11688863730E+02  0.14164984663E+02 -0.27845631600E+02  0.33356491497E+02  0.00000000000E+00 0.  1.
         22    1    4    4    0    0  0.93953313304E+01 -0.77012048308E+01  0.51181914975E+02  0.52603889848E+02  0.00000000000E+00 0. -1.
         22    1    4    4    0    0  0.22935323998E+01 -0.64637798320E+01  0.11017330049E+02  0.12977761825E+02  0.00000000000E+00 0. -1.
<mgrwt>
<rscale>  0 0.92782463E+02</rscale>
<asrwt>0</asrwt>
<pdfrwt beam="1">  1        2 0.10253212E-01 0.92782463E+02</pdfrwt>
<pdfrwt beam="2">  1       -2 0.49680408E-02 0.92782463E+02</pdfrwt>
<totfact> 0.10390612E+05</totfact>
</mgrwt>
</event>
<event>
 7    1  0.3960685E-009  0.9156201E+02  0.7818608E-02  0.1299113E+00
          2   -1    0    0  501    0  0.00000000000E+00  0.00000000000E+00  0.13885997777E+03  0.13885997779E+03  0.25500000000E-02 0. -1.
         -2   -1    0    0    0  501 -0.00000000000E+00 -0.00000000000E+00 -0.15093626393E+02  0.15093626608E+02  0.25500000000E-02 0.  1.
         23    2    1    2    0    0  0.00000000000E+00  0.88817841970E-15  0.12376635138E+03  0.15395360440E+03  0.91562014912E+02 0.  0.
    9000005    2    3    3    0    0  0.33490432429E+02 -0.50933441508E+01  0.11250672417E+03  0.11825583943E+03  0.13383921597E+02 0.  0.
         22    1    3    3    0    0 -0.33490432429E+02  0.50933441508E+01  0.11259627206E+02  0.35697764968E+02  0.00000000000E+00 0.  1.
         22    1    4    4    0    0  0.41365618829E+01 -0.14935083622E+00  0.34755811919E+02  0.35001427285E+02  0.00000000000E+00 0. -1.
         22    1    4    4    0    0  0.29353870546E+02 -0.49439933146E+01  0.77750912251E+02  0.83254412146E+02  0.00000000000E+00 0. -1.
<mgrwt>
<rscale>  0 0.91562015E+02</rscale>
<asrwt>0</asrwt>
<pdfrwt beam="1">  1        2 0.21363075E-01 0.91562015E+02</pdfrwt>
<pdfrwt beam="2">  1       -2 0.23220962E-02 0.91562015E+02</pdfrwt>
<totfact> 0.13466556E+05</totfact>
</mgrwt>
</event>
<event>
 7    1  0.3960685E-009  0.9316265E+02  0.7818608E-02  0.1295369E+00
         -2   -1    0    0    0  501 -0.00000000000E+00  0.00000000000E+00  0.23485946614E+02  0.23485946753E+02  0.25500000000E-02 0.  1.
          2   -1    0    0  501    0  0.00000000000E+00 -0.00000000000E+00 -0.92388005066E+02  0.92388005101E+02  0.25500000000E-02 0. -1.
         23    2    1    2    0    0  0.00000000000E+00  0.00000000000E+00 -0.68902058451E+02  0.11587395185E+03  0.93162648413E+02 0.  0.
    9000005    2    3    3    0    0 -0.40290911503E+02  0.21147520574E+02 -0.39623240700E+02  0.61764577942E+02  0.13201769150E+02 0.  0.
         22    1    3    3    0    0  0.40290911503E+02 -0.21147520574E+02 -0.29278817751E+02  0.54109373911E+02  0.00000000000E+00 0.  1.
         22    1    4    4    0    0 -0.71823206226E+01  0.10243097539E+02 -0.98659073596E+01  0.15932448172E+02  0.00000000000E+00 0.  1.
         22    1    4    4    0    0 -0.33108590880E+02  0.10904423035E+02 -0.29757333340E+02  0.45832129771E+02  0.00000000000E+00 0.  1.
<mgrwt>
<rscale>  0 0.93162648E+02</rscale>
<asrwt>0</asrwt>
<pdfrwt beam="2">  1        2 0.14213539E-01 0.93162648E+02</pdfrwt>
<pdfrwt beam="1">  1       -2 0.36132226E-02 0.93162648E+02</pdfrwt>
<totfact> 0.11284864E+05</totfact>
</mgrwt>
</event>
<event>
 7    1  0.3960685E-009  0.9414375E+02  0.7818608E-02  0.1293116E+00
          2   -1    0    0  501    0  0.00000000000E+00  0.00000000000E+00  0.21712932670E+02  0.21712932820E+02  0.25500000000E-02 0. -1.
         -2   -1    0    0    0  501 -0.00000000000E+00 -0.00000000000E+00 -0.10204799469E+03  0.10204799472E+03  0.25500000000E-02 0.  1.
         23    2    1    2    0    0  0.00000000000E+00  0.00000000000E+00 -0.80335062015E+02  0.12376092754E+03  0.94143746451E+02 0.  0.
    9000005    2    3    3    0    0  0.39378831697E+02 -0.19885369034E+02 -0.21621716096E+02  0.50321311004E+02  0.10891071887E+02 0.  0.
         22    1    3    3    0    0 -0.39378831697E+02  0.19885369034E+02 -0.58713345920E+02  0.73439616533E+02  0.00000000000E+00 0.  1.
         22    1    4    4    0    0  0.17113886006E+02 -0.14732296019E+02 -0.11093931746E+02  0.25159510365E+02  0.00000000000E+00 0.  1.
         22    1    4    4    0    0  0.22264945690E+02 -0.51530730149E+01 -0.10527784350E+02  0.25161800639E+02  0.00000000000E+00 0.  1.
<mgrwt>
<rscale>  0 0.94143746E+02</rscale>
<asrwt>0</asrwt>
<pdfrwt beam="1">  1        2 0.33404513E-02 0.94143746E+02</pdfrwt>
<pdfrwt beam="2">  1       -2 0.15699691E-01 0.94143746E+02</pdfrwt>
<totfact> 0.73238165E+04</totfact>
</mgrwt>
</event>
<event>
 7    1  0.3960685E-009  0.9062127E+02  0.7818608E-02  0.1301354E+00
         -2   -1    0    0    0  501 -0.00000000000E+00  0.00000000000E+00  0.14128597685E+02  0.14128597915E+02  0.25500000000E-02 0.  1.
          2   -1    0    0  501    0  0.00000000000E+00 -0.00000000000E+00 -0.14531192220E+03  0.14531192223E+03  0.25500000000E-02 0. -1.
         23    2    1    2    0    0  0.17763568394E-14  0.00000000000E+00 -0.13118332452E+03  0.15944052014E+03  0.90621271406E+02 0.  0.
    9000005    2    3    3    0    0 -0.13562216843E+02  0.12643562914E+02 -0.13790517279E+03  0.13971802909E+03  0.12629234439E+02 0.  0.
         22    1    3    3    0    0  0.13562216843E+02 -0.12643562914E+02  0.67218482736E+01  0.19722491046E+02  0.00000000000E+00 0.  1.
         22    1    4    4    0    0 -0.76182631000E+01  0.55722959254E+01 -0.10816984446E+03  0.10858086233E+03  0.00000000000E+00 0.  1.
         22    1    4    4    0    0 -0.59439537433E+01  0.70712669883E+01 -0.29735328330E+02  0.31137166760E+02  0.00000000000E+00 0.  1.
<mgrwt>
<rscale>  0 0.90621271E+02</rscale>
<asrwt>0</asrwt>
<pdfrwt beam="2">  1        2 0.22355679E-01 0.90621271E+02</pdfrwt>
<pdfrwt beam="1">  1       -2 0.21736305E-02 0.90621271E+02</pdfrwt>
<totfact> 0.14062736E+05</totfact>
</mgrwt>
</event>
<event>
 7    1  0.3960685E-009  0.9918377E+02  0.7818608E-02  0.1282022E+00
         -2   -1    0    0    0  501 -0.00000000000E+00  0.00000000000E+00  0.12159596142E+03  0.12159596145E+03  0.25500000000E-02 0.  1.
          2   -1    0    0  501    0  0.00000000000E+00 -0.00000000000E+00 -0.20225629675E+02  0.20225629836E+02  0.25500000000E-02 0. -1.
         23    2    1    2    0    0  0.44408920985E-15  0.00000000000E+00  0.10137033175E+03  0.14182159128E+03  0.99183766796E+02 0.  0.
    9000005    2    3    3    0    0  0.23678633088E+01  0.47639448061E+02  0.66314033162E+02  0.82626423756E+02  0.12427836510E+02 0.  0.
         22    1    3    3    0    0 -0.23678633088E+01 -0.47639448061E+02  0.35056298583E+02  0.59195167527E+02  0.00000000000E+00 0. -1.
         22    1    4    4    0    0 -0.53134020206E+00  0.43854592139E+02  0.54976697122E+02  0.70327411445E+02  0.00000000000E+00 0.  1.
         22    1    4    4    0    0  0.28992035108E+01  0.37848559215E+01  0.11337336040E+02  0.12299012311E+02  0.00000000000E+00 0.  1.
<mgrwt>
<rscale>  0 0.99183767E+02</rscale>
<asrwt>0</asrwt>
<pdfrwt beam="2">  1        2 0.31116353E-02 0.99183767E+02</pdfrwt>
<pdfrwt beam="1">  1       -2 0.18707071E-01 0.99183767E+02</pdfrwt>
<totfact> 0.60783231E+04</totfact>
</mgrwt>
</event>
<event>
 7    1  0.3960685E-009  0.1033309E+03  0.7818608E-02  0.1273443E+00
         -2   -1    0    0    0  501 -0.00000000000E+00  0.00000000000E+00  0.45770613374E+02  0.45770613446E+02  0.25500000000E-02 0.  1.
          2   -1    0    0  501    0  0.00000000000E+00 -0.00000000000E+00 -0.58319487968E+02  0.58319488024E+02  0.25500000000E-02 0. -1.
         23    2    1    2    0    0  0.00000000000E+00  0.00000000000E+00 -0.12548874594E+02  0.10409010147E+03  0.10333090037E+03 0.  0.
    9000005    2    3    3    0    0 -0.34747935629E+02 -0.13855058434E+02  0.28757920032E+02  0.48361895353E+02  0.10605342189E+02 0.  0.
         22    1    3    3    0    0  0.34747935629E+02  0.13855058434E+02 -0.41306794626E+02  0.55728206116E+02  0.00000000000E+00 0. -1.
         22    1    4    4    0    0 -0.20421786768E+02 -0.97863542883E+01  0.10970113548E+02  0.25162779980E+02  0.00000000000E+00 0. -1.
         22    1    4    4    0    0 -0.14326148861E+02 -0.40687041455E+01  0.17787806484E+02  0.23199115374E+02  0.00000000000E+00 0. -1.
<mgrwt>
<rscale>  0 0.10333090E+03</rscale>
<asrwt>0</asrwt>
<pdfrwt beam="2">  1        2 0.89722290E-02 0.10333090E+03</pdfrwt>
<pdfrwt beam="1">  1       -2 0.70416328E-02 0.10333090E+03</pdfrwt>
<totfact> 0.73590038E+04</totfact>
</mgrwt>
</event>
<event>
 7    1  0.3960685E-009  0.9053095E+02  0.7818608E-02  0.1301571E+00
         -2   -1    0    0    0  501 -0.00000000000E+00  0.00000000000E+00  0.42182655895E+01  0.42182663602E+01  0.25500000000E-02 0.  1.
          2   -1    0    0  501    0  0.00000000000E+00 -0.00000000000E+00 -0.48573586893E+03  0.48573586893E+03  0.25500000000E-02 0. -1.
         23    2    1    2    0    0  0.88817841970E-15  0.00000000000E+00 -0.48151760334E+03  0.48995413529E+03  0.90530947017E+02 0.  0.
    9000005    2    3    3    0    0 -0.61008408671E+01 -0.18920253592E+02 -0.46035232499E+03  0.46091682718E+03  0.11174175286E+02 0.  0.
         22    1    3    3    0    0  0.61008408671E+01  0.18920253592E+02 -0.21165278344E+02  0.29037308116E+02  0.00000000000E+00 0.  1.
         22    1    4    4    0    0 -0.62045871365E+01 -0.15605564121E+02 -0.26246926078E+03  0.26300597595E+03  0.00000000000E+00 0.  1.
         22    1    4    4    0    0  0.10374626944E+00 -0.33146894705E+01 -0.19788306421E+03  0.19791085122E+03  0.00000000000E+00 0.  1.
<mgrwt>
<rscale>  0 0.90530947E+02</rscale>
<asrwt>0</asrwt>
<pdfrwt beam="2">  1        2 0.74728551E-01 0.90530947E+02</pdfrwt>
<pdfrwt beam="1">  1       -2 0.64896438E-03 0.90530947E+02</pdfrwt>
<totfact> 0.21751621E+05</totfact>
</mgrwt>
</event>
<event>
 6    1  0.3960685E-009  0.1380375E+03  0.7818608E-02  0.1215994E+00
          2   -1    0    0  501    0  0.00000000000E+00  0.00000000000E+00  0.29260777444E+02  0.29260777555E+02  0.25500000000E-02 0. -1.
         -2   -1    0    0    0  501 -0.00000000000E+00 -0.00000000000E+00 -0.16279773206E+03  0.16279773208E+03  0.25500000000E-02 0.  1.
    9000005    2    1    2    0    0  0.28744110389E+02 -0.61520456172E+02 -0.77303118831E+02  0.10389255988E+03  0.14384067826E+02 0.  0.
         22    1    1    2    0    0 -0.28744110389E+02  0.61520456172E+02 -0.56233835788E+02  0.88165949760E+02  0.00000000000E+00 0. -1.
         22    1    3    3    0    0  0.64592540911E+01 -0.92201339690E+01 -0.61853265012E+01  0.12844886054E+02  0.00000000000E+00 0. -1.
         22    1    3    3    0    0  0.22284856298E+02 -0.52300322203E+02 -0.71117792330E+02  0.91047673824E+02  0.00000000000E+00 0. -1.
<mgrwt>
<rscale>  0 0.13803751E+03</rscale>
<asrwt>0</asrwt>
<pdfrwt beam="1">  1        2 0.45016582E-02 0.13803751E+03</pdfrwt>
<pdfrwt beam="2">  1       -2 0.25045804E-01 0.13803751E+03</pdfrwt>
<totfact> 0.23666126E+04</totfact>
</mgrwt>
</event>
<event>
 7    1  0.3960685E-009  0.9170154E+02  0.7818608E-02  0.1298783E+00
          2   -1    0    0  501    0  0.00000000000E+00  0.00000000000E+00  0.13202745841E+02  0.13202746088E+02  0.25500000000E-02 0. -1.
         -2   -1    0    0    0  501 -0.00000000000E+00 -0.00000000000E+00 -0.15923149126E+03  0.15923149128E+03  0.25500000000E-02 0.  1.
         23    2    1    2    0    0  0.71054273576E-14  0.00000000000E+00 -0.14602874542E+03  0.17243423737E+03  0.91701536129E+02 0.  0.
    9000005    2    3    3    0    0 -0.35317465373E+02  0.15594232859E+02 -0.30472769875E+02  0.50599566840E+02  0.11883728443E+02 0.  0.
         22    1    3    3    0    0  0.35317465373E+02 -0.15594232859E+02 -0.11555597555E+03  0.12183467053E+03  0.00000000000E+00 0.  1.
         22    1    4    4    0    0 -0.12801805518E+02  0.96027628134E+01 -0.18306436787E+02  0.24315116821E+02  0.00000000000E+00 0. -1.
         22    1    4    4    0    0 -0.22515659855E+02  0.59914700461E+01 -0.12166333088E+02  0.26284450020E+02  0.00000000000E+00 0. -1.
<mgrwt>
<rscale>  0 0.91701536E+02</rscale>
<asrwt>0</asrwt>
<pdfrwt beam="1">  1        2 0.20311918E-02 0.91701536E+02</pdfrwt>
<pdfrwt beam="2">  1       -2 0.24497151E-01 0.91701536E+02</pdfrwt>
<totfact> 0.67340508E+04</totfact>
</mgrwt>
</event>
<event>
 7    1  0.3960685E-009  0.9585749E+02  0.7818608E-02  0.1289256E+00
         -2   -1    0    0    0  501 -0.00000000000E+00  0.00000000000E+00  0.75457740088E+01  0.75457744397E+01  0.25500000000E-02 0.  1.
          2   -1    0    0  501    0  0.00000000000E+00 -0.00000000000E+00 -0.30443063288E+03  0.30443063289E+03  0.25500000000E-02 0. -1.
         23    2    1    2    0    0  0.00000000000E+00  0.00000000000E+00 -0.29688485887E+03  0.31197640733E+03  0.95857494771E+02 0.  0.
    9000005    2    3    3    0    0 -0.10867230965E+02  0.46199614614E+02 -0.14155223728E+03  0.14955496654E+03  0.87835663240E+01 0.  0.
         22    1    3    3    0    0  0.10867230965E+02 -0.46199614614E+02 -0.15533262159E+03  0.16242144079E+03  0.00000000000E+00 0.  1.
         22    1    4    4    0    0 -0.43340791439E+01  0.32165415483E+02 -0.10367049927E+03  0.10863227243E+03  0.00000000000E+00 0. -1.
         22    1    4    4    0    0 -0.65331518209E+01  0.14034199131E+02 -0.37881738014E+02  0.40922694107E+02  0.00000000000E+00 0. -1.
<mgrwt>
<rscale>  0 0.95857495E+02</rscale>
<asrwt>0</asrwt>
<pdfrwt beam="2">  1        2 0.46835472E-01 0.95857495E+02</pdfrwt>
<pdfrwt beam="1">  1       -2 0.11608886E-02 0.95857495E+02</pdfrwt>
<totfact> 0.15799197E+05</totfact>
</mgrwt>
</event>
<event>
 7    1  0.3960685E-009  0.9208554E+02  0.7818608E-02  0.1297878E+00
         -2   -1    0    0    0  501 -0.00000000000E+00  0.00000000000E+00  0.18086375309E+03  0.18086375310E+03  0.25500000000E-02 0.  1.
          2   -1    0    0  501    0  0.00000000000E+00 -0.00000000000E+00 -0.11721181045E+02  0.11721181323E+02  0.25500000000E-02 0. -1.
         23    2    1    2    0    0  0.00000000000E+00  0.00000000000E+00  0.16914257204E+03  0.19258493443E+03  0.92085543337E+02 0.  0.
    9000005    2    3    3    0    0  0.35999633533E+02 -0.93254585407E+01  0.32205476776E+02  0.50688120329E+02  0.12212903694E+02 0.  0.
         22    1    3    3    0    0 -0.35999633533E+02  0.93254585407E+01  0.13693709527E+03  0.14189681410E+03  0.00000000000E+00 0.  1.
         22    1    4    4    0    0  0.30503447859E+02 -0.11028069845E+02  0.30877939422E+02  0.44783097244E+02  0.00000000000E+00 0. -1.
         22    1    4    4    0    0  0.54961856734E+01  0.17026113047E+01  0.13275373543E+01  0.59050230853E+01  0.00000000000E+00 0. -1.
<mgrwt>
<rscale>  0 0.92085543E+02</rscale>
<asrwt>0</asrwt>
<pdfrwt beam="2">  1        2 0.18032588E-02 0.92085543E+02</pdfrwt>
<pdfrwt beam="1">  1       -2 0.27825190E-01 0.92085543E+02</pdfrwt>
<totfact> 0.63384208E+04</totfact>
</mgrwt>
</event>
<event>
 7    1  0.3960685E-009  0.9105847E+02  0.7818608E-02  0.1300309E+00
         -2   -1    0    0    0  501 -0.00000000000E+00  0.00000000000E+00  0.21590787217E+02  0.21590787367E+02  0.25500000000E-02 0.  1.
          2   -1    0    0  501    0  0.00000000000E+00 -0.00000000000E+00 -0.96009059745E+02  0.96009059779E+02  0.25500000000E-02 0. -1.
         23    2    1    2    0    0  0.00000000000E+00  0.35527136788E-14 -0.74418272529E+02  0.11759984715E+03  0.91058468923E+02 0.  0.
    9000005    2    3    3    0    0  0.17609946196E+02 -0.30453299831E+02 -0.73975202236E+02  0.82418744450E+02  0.91107198036E+01 0.  0.
         22    1    3    3    0    0 -0.17609946196E+02  0.30453299831E+02 -0.44307029315E+00  0.35181102696E+02  0.00000000000E+00 0.  1.
         22    1    4    4    0    0  0.18519161056E+02 -0.28261030229E+02 -0.70851236452E+02  0.78495495811E+02  0.00000000000E+00 0.  1.
         22    1    4    4    0    0 -0.90921485983E+00 -0.21922696020E+01 -0.31239657832E+01  0.39232486391E+01  0.00000000000E+00 0.  1.
<mgrwt>
<rscale>  0 0.91058469E+02</rscale>
<asrwt>0</asrwt>
<pdfrwt beam="2">  1        2 0.14770624E-01 0.91058469E+02</pdfrwt>
<pdfrwt beam="1">  1       -2 0.33216596E-02 0.91058469E+02</pdfrwt>
<totfact> 0.12160792E+05</totfact>
</mgrwt>
</event>
<event>
 7    1  0.3960685E-009  0.8859638E+02  0.7818608E-02  0.1306287E+00
          2   -1    0    0  501    0  0.00000000000E+00  0.00000000000E+00  0.86704878954E+02  0.86704878992E+02  0.25500000000E-02 0. -1.
         -2   -1    0    0    0  501 -0.00000000000E+00 -0.00000000000E+00 -0.22632285828E+02  0.22632285972E+02  0.25500000000E-02 0.  1.
         23    2    1    2    0    0  0.00000000000E+00  0.00000000000E+00  0.64072593126E+02  0.10933716496E+03  0.88596379454E+02 0.  0.
    9000005    2    3    3    0    0  0.34125050436E+02 -0.19575987348E+02  0.10916170723E+02  0.43205904651E+02  0.14136798279E+02 0.  0.
         22    1    3    3    0    0 -0.34125050436E+02  0.19575987348E+02  0.53156422403E+02  0.66131260313E+02  0.00000000000E+00 0. -1.
         22    1    4    4    0    0  0.32787525011E+02 -0.13379744918E+02  0.84694383655E+01  0.36411135064E+02  0.00000000000E+00 0. -1.
         22    1    4    4    0    0  0.13375254249E+01 -0.61962424302E+01  0.24467323575E+01  0.67947695873E+01  0.00000000000E+00 0. -1.
<mgrwt>
<rscale>  0 0.88596379E+02</rscale>
<asrwt>0</asrwt>
<pdfrwt beam="1">  1        2 0.13339212E-01 0.88596379E+02</pdfrwt>
<pdfrwt beam="2">  1       -2 0.34818902E-02 0.88596379E+02</pdfrwt>
<totfact> 0.12725916E+05</totfact>
</mgrwt>
</event>
<event>
 7    1  0.3960685E-009  0.9123554E+02  0.7818608E-02  0.1299887E+00
         -2   -1    0    0    0  501 -0.00000000000E+00  0.00000000000E+00  0.15517695928E+01  0.15517716880E+01  0.25500000000E-02 0. -1.
          2   -1    0    0  501    0  0.00000000000E+00 -0.00000000000E+00 -0.13410362827E+04  0.13410362827E+04  0.25500000000E-02 0.  1.
         23    2    1    2    0    0 -0.17763568394E-14  0.00000000000E+00 -0.13394845131E+04  0.13425880544E+04  0.91235535500E+02 0.  0.
    9000005    2    3    3    0    0 -0.10193807259E+02 -0.11821261539E+02 -0.13002625075E+04  0.13003740561E+04  0.68147883025E+01 0.  0.
         22    1    3    3    0    0  0.10193807259E+02  0.11821261539E+02 -0.39222005582E+02  0.42213998303E+02  0.00000000000E+00 0. -1.
         22    1    4    4    0    0 -0.62454432885E+01 -0.92611068743E+01 -0.10979915964E+04  0.10980484140E+04  0.00000000000E+00 0.  1.
         22    1    4    4    0    0 -0.39483639708E+01 -0.25601546651E+01 -0.20227091114E+03  0.20232564213E+03  0.00000000000E+00 0.  1.
<mgrwt>
<rscale>  0 0.91235536E+02</rscale>
<asrwt>0</asrwt>
<pdfrwt beam="2">  1        2 0.20631235E+00 0.91235536E+02</pdfrwt>
<pdfrwt beam="1">  1       -2 0.23873502E-03 0.91235536E+02</pdfrwt>
<totfact> 0.24366648E+05</totfact>
</mgrwt>
</event>
<event>
 7    1  0.3960685E-009  0.8848792E+02  0.7818608E-02  0.1306555E+00
          2   -1    0    0  501    0  0.00000000000E+00  0.00000000000E+00  0.98544663445E+02  0.98544663478E+02  0.25500000000E-02 0. -1.
         -2   -1    0    0    0  501 -0.00000000000E+00 -0.00000000000E+00 -0.19864371340E+02  0.19864371503E+02  0.25500000000E-02 0.  1.
         23    2    1    2    0    0  0.00000000000E+00  0.00000000000E+00  0.78680292105E+02  0.11840903498E+03  0.88487915556E+02 0.  0.
    9000005    2    3    3    0    0  0.11965308235E+02 -0.13168711521E+02 -0.14188780429E+02  0.23850861365E+02  0.71385246041E+01 0.  0.
         22    1    3    3    0    0 -0.11965308235E+02  0.13168711521E+02  0.92869072534E+02  0.94558173616E+02  0.00000000000E+00 0. -1.
         22    1    4    4    0    0  0.12816093703E+02 -0.11426027427E+02 -0.12129333150E+02  0.21022061821E+02  0.00000000000E+00 0.  1.
         22    1    4    4    0    0 -0.85078546793E+00 -0.17426840944E+01 -0.20594472791E+01  0.28287995441E+01  0.00000000000E+00 0.  1.
<mgrwt>
<rscale>  0 0.88487916E+02</rscale>
<asrwt>0</asrwt>
<pdfrwt beam="1">  1        2 0.15160717E-01 0.88487916E+02</pdfrwt>
<pdfrwt beam="2">  1       -2 0.30560572E-02 0.88487916E+02</pdfrwt>
<totfact> 0.13259573E+05</totfact>
</mgrwt>
</event>
<event>
 7    1  0.3960685E-009  0.8815672E+02  0.7818608E-02  0.1307378E+00
         -2   -1    0    0    0  501 -0.00000000000E+00  0.00000000000E+00  0.57317265100E+01  0.57317270772E+01  0.25500000000E-02 0.  1.
          2   -1    0    0  501    0  0.00000000000E+00 -0.00000000000E+00 -0.33897322579E+03  0.33897322580E+03  0.25500000000E-02 0. -1.
         23    2    1    2    0    0  0.00000000000E+00  0.00000000000E+00 -0.33324149928E+03  0.34470495288E+03  0.88156722350E+02 0.  0.
    9000005    2    3    3    0    0  0.15529852110E+01  0.14469482766E+02 -0.32929466264E+03  0.32962665012E+03  0.26411990624E+01 0.  0.
         22    1    3    3    0    0 -0.15529852110E+01 -0.14469482766E+02 -0.39468366432E+01  0.15078302759E+02  0.00000000000E+00 0.  1.
         22    1    4    4    0    0 -0.40351808630E+00  0.82088743395E+01 -0.17641946942E+03  0.17661080838E+03  0.00000000000E+00 0. -1.
         22    1    4    4    0    0  0.19565032973E+01  0.62606084269E+01 -0.15287519322E+03  0.15301584175E+03  0.00000000000E+00 0. -1.
<mgrwt>
<rscale>  0 0.88156722E+02</rscale>
<asrwt>0</asrwt>
<pdfrwt beam="2">  1        2 0.52149712E-01 0.88156722E+02</pdfrwt>
<pdfrwt beam="1">  1       -2 0.88180439E-03 0.88156722E+02</pdfrwt>
<totfact> 0.20556727E+05</totfact>
</mgrwt>
</event>
<event>
 7    1  0.3960685E-009  0.9040357E+02  0.7818608E-02  0.1301877E+00
         -2   -1    0    0    0  501 -0.00000000000E+00  0.00000000000E+00  0.27540654448E+01  0.27540666254E+01  0.25500000000E-02 0.  1.
          2   -1    0    0  501    0  0.00000000000E+00 -0.00000000000E+00 -0.74188537547E+03  0.74188537548E+03  0.25500000000E-02 0. -1.
         23    2    1    2    0    0  0.44408920985E-15  0.35527136788E-14 -0.73913131003E+03  0.74463944210E+03  0.90403568907E+02 0.  0.
    9000005    2    3    3    0    0  0.37080042185E+01  0.18779806909E+02 -0.70615424658E+03  0.70650917648E+03  0.11617488718E+02 0.  0.
         22    1    3    3    0    0 -0.37080042185E+01 -0.18779806909E+02 -0.32977063449E+02  0.38130265624E+02  0.00000000000E+00 0.  1.
         22    1    4    4    0    0 -0.72553873480E+00 -0.69372496123E+00 -0.71987298854E+01  0.72683817140E+01  0.00000000000E+00 0. -1.
         22    1    4    4    0    0  0.44335429533E+01  0.19473531871E+02 -0.69895551669E+03  0.69924079476E+03  0.00000000000E+00 0. -1.
<mgrwt>
<rscale>  0 0.90403569E+02</rscale>
<asrwt>0</asrwt>
<pdfrwt beam="2">  1        2 0.11413605E+00 0.90403569E+02</pdfrwt>
<pdfrwt beam="1">  1       -2 0.42370306E-03 0.90403569E+02</pdfrwt>
<totfact> 0.24566794E+05</totfact>
</mgrwt>
</event>
<event>
 6    1  0.3960685E-009  0.1688359E+03  0.7818608E-02  0.1179067E+00
         -2   -1    0    0    0  501 -0.00000000000E+00  0.00000000000E+00  0.29358655600E+03  0.29358655601E+03  0.25500000000E-02 0. -1.
          2   -1    0    0  501    0  0.00000000000E+00 -0.00000000000E+00 -0.24273561129E+02  0.24273561263E+02  0.25500000000E-02 0.  1.
    9000005    2    1    2    0    0  0.13061211432E+02 -0.60846783612E+02  0.24167365992E+03  0.24976563030E+03  0.10187534513E+02 0.  0.
         22    1    1    2    0    0 -0.13061211432E+02  0.60846783612E+02  0.27639334952E+02  0.68094486977E+02  0.00000000000E+00 0.  1.
         22    1    3    3    0    0  0.77224515599E+01 -0.18225084979E+02  0.65122427145E+02  0.68064091104E+02  0.00000000000E+00 0.  1.
         22    1    3    3    0    0  0.53387598720E+01 -0.42621698633E+02  0.17655123277E+03  0.18170153919E+03  0.00000000000E+00 0.  1.
<mgrwt>
<rscale>  0 0.16883591E+03</rscale>
<asrwt>0</asrwt>
<pdfrwt beam="2">  1        2 0.37343941E-02 0.16883591E+03</pdfrwt>
<pdfrwt beam="1">  1       -2 0.45167162E-01 0.16883591E+03</pdfrwt>
<totfact> 0.10450322E+04</totfact>
</mgrwt>
</event>
<event>
 7    1  0.3960685E-009  0.9187322E+02  0.7818608E-02  0.1298378E+00
         -2   -1    0    0    0  501 -0.00000000000E+00  0.00000000000E+00  0.25996830476E+01  0.25996842983E+01  0.25500000000E-02 0.  1.
          2   -1    0    0  501    0  0.00000000000E+00 -0.00000000000E+00 -0.81170348973E+03  0.81170348974E+03  0.25500000000E-02 0. -1.
         23    2    1    2    0    0  0.00000000000E+00  0.00000000000E+00 -0.80910380669E+03  0.81430317404E+03  0.91873223799E+02 0.  0.
    9000005    2    3    3    0    0  0.14655903542E+02 -0.30902207092E+02 -0.67361975158E+03  0.67456888655E+03  0.10481940085E+02 0.  0.
         22    1    3    3    0    0 -0.14655903542E+02  0.30902207092E+02 -0.13548405511E+03  0.13973428749E+03  0.00000000000E+00 0.  1.
         22    1    4    4    0    0  0.48314208322E+01 -0.12298528570E+02 -0.36117360239E+03  0.36141522865E+03  0.00000000000E+00 0. -1.
         22    1    4    4    0    0  0.98244827099E+01 -0.18603678522E+02 -0.31244614919E+03  0.31315365790E+03  0.00000000000E+00 0. -1.
<mgrwt>
<rscale>  0 0.91873224E+02</rscale>
<asrwt>0</asrwt>
<pdfrwt beam="2">  1        2 0.12487726E+00 0.91873224E+02</pdfrwt>
<pdfrwt beam="1">  1       -2 0.39995198E-03 0.91873224E+02</pdfrwt>
<totfact> 0.23949654E+05</totfact>
</mgrwt>
</event>
<event>
 7    1  0.3960685E-009  0.9173692E+02  0.7818608E-02  0.1298699E+00
         -2   -1    0    0    0  501 -0.00000000000E+00  0.00000000000E+00  0.51960877648E+03  0.51960877649E+03  0.25500000000E-02 0. -1.
          2   -1    0    0  501    0  0.00000000000E+00 -0.00000000000E+00 -0.40490376057E+01  0.40490384087E+01  0.25500000000E-02 0.  1.
         23    2    1    2    0    0 -0.35527136788E-14  0.35527136788E-14  0.51555973888E+03  0.52365781490E+03  0.91736921425E+02 0.  0.
    9000005    2    3    3    0    0  0.20531600376E+02 -0.30894187621E+02  0.41008602588E+03  0.41185127852E+03  0.86561860176E+01 0.  0.
         22    1    3    3    0    0 -0.20531600376E+02  0.30894187621E+02  0.10547371300E+03  0.11180653638E+03  0.00000000000E+00 0.  1.
         22    1    4    4    0    0  0.35269709171E+01 -0.78763985661E+01  0.63150293106E+02  0.63737247333E+02  0.00000000000E+00 0. -1.
         22    1    4    4    0    0  0.17004629459E+02 -0.23017789055E+02  0.34693573277E+03  0.34811403119E+03  0.00000000000E+00 0. -1.
<mgrwt>
<rscale>  0 0.91736921E+02</rscale>
<asrwt>0</asrwt>
<pdfrwt beam="2">  1        2 0.62292919E-03 0.91736921E+02</pdfrwt>
<pdfrwt beam="1">  1       -2 0.79939778E-01 0.91736921E+02</pdfrwt>
<totfact> 0.34667287E+04</totfact>
</mgrwt>
</event>
<event>
 7    1  0.3960685E-009  0.9233195E+02  0.7818608E-02  0.1297301E+00
         -2   -1    0    0    0  501 -0.00000000000E+00  0.00000000000E+00  0.24364389326E+02  0.24364389459E+02  0.25500000000E-02 0.  1.
          2   -1    0    0  501    0  0.00000000000E+00 -0.00000000000E+00 -0.87475919258E+02  0.87475919295E+02  0.25500000000E-02 0. -1.
         23    2    1    2    0    0  0.35527136788E-14 -0.71054273576E-14 -0.63111529932E+02  0.11184030875E+03  0.92331952497E+02 0.  0.
    9000005    2    3    3    0    0 -0.24361171709E+02  0.35829501485E+02 -0.46741990643E+02  0.65524202698E+02  0.15211429464E+02 0.  0.
         22    1    3    3    0    0  0.24361171709E+02 -0.35829501485E+02 -0.16369539289E+02  0.46316106056E+02  0.00000000000E+00 0.  1.
         22    1    4    4    0    0 -0.23677119733E+02  0.33936543877E+02 -0.36786657867E+02  0.55367438140E+02  0.00000000000E+00 0. -1.
         22    1    4    4    0    0 -0.68405197553E+00  0.18929576071E+01 -0.99553327761E+01  0.10156764558E+02  0.00000000000E+00 0. -1.
<mgrwt>
<rscale>  0 0.92331952E+02</rscale>
<asrwt>0</asrwt>
<pdfrwt beam="2">  1        2 0.13457834E-01 0.92331952E+02</pdfrwt>
<pdfrwt beam="1">  1       -2 0.37483676E-02 0.92331952E+02</pdfrwt>
<totfact> 0.11382219E+05</totfact>
</mgrwt>
</event>
<event>
 7    1  0.3960685E-009  0.9093831E+02  0.7818608E-02  0.1300595E+00
         -2   -1    0    0    0  501 -0.00000000000E+00  0.00000000000E+00  0.12645242458E+02  0.12645242715E+02  0.25500000000E-02 0.  1.
          2   -1    0    0  501    0  0.00000000000E+00 -0.00000000000E+00 -0.16349578405E+03  0.16349578407E+03  0.25500000000E-02 0. -1.
         23    2    1    2    0    0  0.00000000000E+00 -0.71054273576E-14 -0.15085054159E+03  0.17614102679E+03  0.90938305562E+02 0.  0.
    9000005    2    3    3    0    0 -0.23749156160E+02 -0.37595674156E+02 -0.62311086410E+02  0.77061804658E+02  0.88539885925E+01 0.  0.
         22    1    3    3    0    0  0.23749156160E+02  0.37595674156E+02 -0.88539455184E+02  0.99079222130E+02  0.00000000000E+00 0. -1.
         22    1    4    4    0    0  0.68796510535E+00 -0.10443504081E+01 -0.28338896130E+01  0.30975626062E+01  0.00000000000E+00 0.  1.
         22    1    4    4    0    0 -0.24437121265E+02 -0.36551323747E+02 -0.59477196798E+02  0.73964242052E+02  0.00000000000E+00 0.  1.
<mgrwt>
<rscale>  0 0.90938306E+02</rscale>
<asrwt>0</asrwt>
<pdfrwt beam="2">  1        2 0.25153196E-01 0.90938306E+02</pdfrwt>
<pdfrwt beam="1">  1       -2 0.19454221E-02 0.90938306E+02</pdfrwt>
<totfact> 0.14503383E+05</totfact>
</mgrwt>
</event>
<event>
 7    1  0.3960685E-009  0.9125849E+02  0.7818608E-02  0.1299832E+00
         -2   -1    0    0    0  501 -0.00000000000E+00  0.00000000000E+00  0.18379763714E+02  0.18379763891E+02  0.25500000000E-02 0.  1.
          2   -1    0    0  501    0  0.00000000000E+00 -0.00000000000E+00 -0.11327827378E+03  0.11327827381E+03  0.25500000000E-02 0. -1.
         23    2    1    2    0    0  0.35527136788E-14  0.00000000000E+00 -0.94898510062E+02  0.13165803770E+03  0.91258488252E+02 0.  0.
    9000005    2    3    3    0    0  0.27078324677E+02  0.45343687525E+01 -0.99351458399E+02  0.10384392408E+03  0.12611586553E+02 0.  0.
         22    1    3    3    0    0 -0.27078324677E+02 -0.45343687525E+01  0.44529483365E+01  0.27814113615E+02  0.00000000000E+00 0.  1.
         22    1    4    4    0    0 -0.82082239231E+00  0.13649076987E+01 -0.21986620288E+01  0.27149285705E+01  0.00000000000E+00 0. -1.
         22    1    4    4    0    0  0.27899147069E+02  0.31694610537E+01 -0.97152796370E+02  0.10112899551E+03  0.00000000000E+00 0. -1.
<mgrwt>
<rscale>  0 0.91258488E+02</rscale>
<asrwt>0</asrwt>
<pdfrwt beam="2">  1        2 0.17427426E-01 0.91258488E+02</pdfrwt>
<pdfrwt beam="1">  1       -2 0.28276560E-02 0.91258488E+02</pdfrwt>
<totfact> 0.12719515E+05</totfact>
</mgrwt>
</event>
<event>
 7    1  0.3960685E-009  0.8994328E+02  0.7818608E-02  0.1302989E+00
          2   -1    0    0  501    0  0.00000000000E+00  0.00000000000E+00  0.14390420766E+03  0.14390420768E+03  0.25500000000E-02 0. -1.
         -2   -1    0    0    0  501 -0.00000000000E+00 -0.00000000000E+00 -0.14054130050E+02  0.14054130281E+02  0.25500000000E-02 0.  1.
         23    2    1    2    0    0 -0.88817841970E-15  0.00000000000E+00  0.12985007761E+03  0.15795833796E+03  0.89943281443E+02 0.  0.
    9000005    2    3    3    0    0 -0.38772622461E+01  0.42278414107E+02  0.46975957204E+02  0.64842188478E+02  0.13973953965E+02 0.  0.
         22    1    3    3    0    0  0.38772622461E+01 -0.42278414107E+02  0.82874120402E+02  0.93116149482E+02  0.00000000000E+00 0.  1.
         22    1    4    4    0    0 -0.85738646950E+01  0.17781854914E+02  0.21523489374E+02  0.29205583624E+02  0.00000000000E+00 0.  1.
         22    1    4    4    0    0  0.46966024488E+01  0.24496559193E+02  0.25452467831E+02  0.35636604854E+02  0.00000000000E+00 0.  1.
<mgrwt>
<rscale>  0 0.89943281E+02</rscale>
<asrwt>0</asrwt>
<pdfrwt beam="1">  1        2 0.22139110E-01 0.89943281E+02</pdfrwt>
<pdfrwt beam="2">  1       -2 0.21621737E-02 0.89943281E+02</pdfrwt>
<totfact> 0.14305100E+05</totfact>
</mgrwt>
</event>
<event>
 7    1  0.3960685E-009  0.8902476E+02  0.7818608E-02  0.1305231E+00
         -2   -1    0    0    0  501 -0.00000000000E+00  0.00000000000E+00  0.20920415400E+02  0.20920415556E+02  0.25500000000E-02 0.  1.
          2   -1    0    0  501    0  0.00000000000E+00 -0.00000000000E+00 -0.94709009713E+02  0.94709009747E+02  0.25500000000E-02 0. -1.
         23    2    1    2    0    0  0.00000000000E+00  0.00000000000E+00 -0.73788594312E+02  0.11562942530E+03  0.89024756923E+02 0.  0.
    9000005    2    3    3    0    0 -0.30149411956E+02 -0.31788184498E+02 -0.38368096880E+02  0.59290385967E+02  0.11124895280E+02 0.  0.
         22    1    3    3    0    0  0.30149411956E+02  0.31788184498E+02 -0.35420497433E+02  0.56339039336E+02  0.00000000000E+00 0. -1.
         22    1    4    4    0    0 -0.53783720520E+01 -0.78782149569E+01 -0.14654996180E+02  0.17486053582E+02  0.00000000000E+00 0. -1.
         22    1    4    4    0    0 -0.24771039904E+02 -0.23909969541E+02 -0.23713100700E+02  0.41804332385E+02  0.00000000000E+00 0. -1.
<mgrwt>
<rscale>  0 0.89024757E+02</rscale>
<asrwt>0</asrwt>
<pdfrwt beam="2">  1        2 0.14570617E-01 0.89024757E+02</pdfrwt>
<pdfrwt beam="1">  1       -2 0.32185255E-02 0.89024757E+02</pdfrwt>
<totfact> 0.12887637E+05</totfact>
</mgrwt>
</event>
<event>
 7    1  0.3960685E-009  0.9293039E+02  0.7818608E-02  0.1295907E+00
          2   -1    0    0  501    0  0.00000000000E+00  0.00000000000E+00  0.27287272878E+02  0.27287272998E+02  0.25500000000E-02 0. -1.
         -2   -1    0    0    0  501 -0.00000000000E+00 -0.00000000000E+00 -0.79121660552E+02  0.79121660593E+02  0.25500000000E-02 0.  1.
         23    2    1    2    0    0 -0.35527136788E-14  0.00000000000E+00 -0.51834387673E+02  0.10640893359E+03  0.92930390091E+02 0.  0.
    9000005    2    3    3    0    0  0.31506626446E+02  0.51790479835E+01 -0.63399445631E+02  0.72449537047E+02  0.14489846929E+02 0.  0.
         22    1    3    3    0    0 -0.31506626446E+02 -0.51790479835E+01  0.11565057958E+02  0.33959396543E+02  0.00000000000E+00 0. -1.
         22    1    4    4    0    0  0.14067044248E+02  0.58538041245E+01 -0.42909184135E+02  0.45534018489E+02  0.00000000000E+00 0.  1.
         22    1    4    4    0    0  0.17439582198E+02 -0.67475614103E+00 -0.20490261496E+02  0.26915518558E+02  0.00000000000E+00 0.  1.
<mgrwt>
<rscale>  0 0.92930390E+02</rscale>
<asrwt>0</asrwt>
<pdfrwt beam="1">  1        2 0.41980420E-02 0.92930390E+02</pdfrwt>
<pdfrwt beam="2">  1       -2 0.12172563E-01 0.92930390E+02</pdfrwt>
<totfact> 0.81436414E+04</totfact>
</mgrwt>
</event>
<event>
 7    1  0.3960685E-009  0.9039033E+02  0.7818608E-02  0.1301909E+00
         -2   -1    0    0    0  501 -0.00000000000E+00  0.00000000000E+00  0.76926474265E+02  0.76926474307E+02  0.25500000000E-02 0.  1.
          2   -1    0    0  501    0  0.00000000000E+00 -0.00000000000E+00 -0.26552662905E+02  0.26552663027E+02  0.25500000000E-02 0. -1.
         23    2    1    2    0    0  0.00000000000E+00  0.35527136788E-14  0.50373811360E+02  0.10347913733E+03  0.90390325768E+02 0.  0.
    9000005    2    3    3    0    0  0.85206923827E+01 -0.27703264528E+02 -0.12171368154E+02  0.34544584716E+02  0.14321768964E+02 0.  0.
         22    1    3    3    0    0 -0.85206923827E+01  0.27703264528E+02  0.62545179514E+02  0.68934552618E+02  0.00000000000E+00 0.  1.
         22    1    4    4    0    0  0.11353838103E+02 -0.23577689022E+02 -0.13386984673E+02  0.29394360308E+02  0.00000000000E+00 0.  1.
         22    1    4    4    0    0 -0.28331457206E+01 -0.41255755061E+01  0.12156165188E+01  0.51502244079E+01  0.00000000000E+00 0.  1.
<mgrwt>
<rscale>  0 0.90390326E+02</rscale>
<asrwt>0</asrwt>
<pdfrwt beam="2">  1        2 0.40850250E-02 0.90390326E+02</pdfrwt>
<pdfrwt beam="1">  1       -2 0.11834842E-01 0.90390326E+02</pdfrwt>
<totfact> 0.87843950E+04</totfact>
</mgrwt>
</event>
<event>
 7    1  0.3960685E-009  0.8991313E+02  0.7818608E-02  0.1303062E+00
          2   -1    0    0  501    0  0.00000000000E+00  0.00000000000E+00  0.15640142569E+03  0.15640142571E+03  0.25500000000E-02 0. -1.
         -2   -1    0    0    0  501 -0.00000000000E+00 -0.00000000000E+00 -0.12922471068E+02  0.12922471320E+02  0.25500000000E-02 0.  1.
         23    2    1    2    0    0  0.00000000000E+00  0.00000000000E+00  0.14347895462E+03  0.16932389703E+03  0.89913134113E+02 0.  0.
    9000005    2    3    3    0    0  0.16027024835E+02 -0.14948560177E+02  0.14532774080E+03  0.14732973901E+03  0.10274958646E+02 0.  0.
         22    1    3    3    0    0 -0.16027024835E+02  0.14948560177E+02 -0.18487861812E+01  0.21994158014E+02  0.00000000000E+00 0.  1.
         22    1    4    4    0    0  0.14349124033E+02 -0.10566813990E+02  0.86576170534E+02  0.88391109410E+02  0.00000000000E+00 0. -1.
         22    1    4    4    0    0  0.16779008018E+01 -0.43817461869E+01  0.58751570265E+02  0.58938629602E+02  0.00000000000E+00 0. -1.
<mgrwt>
<rscale>  0 0.89913134E+02</rscale>
<asrwt>0</asrwt>
<pdfrwt beam="1">  1        2 0.24061757E-01 0.89913134E+02</pdfrwt>
<pdfrwt beam="2">  1       -2 0.19880726E-02 0.89913134E+02</pdfrwt>
<totfact> 0.14728076E+05</totfact>
</mgrwt>
</event>
<event>
 7    1  0.3960685E-009  0.9239838E+02  0.7818608E-02  0.1297145E+00
         -2   -1    0    0    0  501 -0.00000000000E+00  0.00000000000E+00  0.15858803790E+02  0.15858803995E+02  0.25500000000E-02 0. -1.
          2   -1    0    0  501    0  0.00000000000E+00 -0.00000000000E+00 -0.13458551237E+03  0.13458551240E+03  0.25500000000E-02 0.  1.
         23    2    1    2    0    0 -0.17763568394E-14 -0.35527136788E-14 -0.11872670858E+03  0.15044431639E+03  0.92398382041E+02 0.  0.
    9000005    2    3    3    0    0  0.10878136773E+02  0.28083887727E+02 -0.30669588629E+01  0.30927722085E+02  0.63308093625E+01 0.  0.
         22    1    3    3    0    0 -0.10878136773E+02 -0.28083887727E+02 -0.11565974972E+03  0.11951659431E+03  0.00000000000E+00 0.  1.
         22    1    4    4    0    0  0.92009268146E+01  0.24147262871E+02 -0.48501004929E+01  0.26292029842E+02  0.00000000000E+00 0. -1.
         22    1    4    4    0    0  0.16772099583E+01  0.39366248559E+01  0.17831416299E+01  0.46356922431E+01  0.00000000000E+00 0. -1.
<mgrwt>
<rscale>  0 0.92398382E+02</rscale>
<asrwt>0</asrwt>
<pdfrwt beam="2">  1        2 0.20705463E-01 0.92398382E+02</pdfrwt>
<pdfrwt beam="1">  1       -2 0.24398161E-02 0.92398382E+02</pdfrwt>
<totfact> 0.13000521E+05</totfact>
</mgrwt>
</event>
<event>
 7    1  0.3960685E-009  0.9041090E+02  0.7818608E-02  0.1301860E+00
          2   -1    0    0  501    0  0.00000000000E+00  0.00000000000E+00  0.50060702471E+02  0.50060702536E+02  0.25500000000E-02 0. -1.
         -2   -1    0    0    0  501 -0.00000000000E+00 -0.00000000000E+00 -0.40821099018E+02  0.40821099097E+02  0.25500000000E-02 0.  1.
         23    2    1    2    0    0 -0.88817841970E-15 -0.35527136788E-14  0.92396034536E+01  0.90881801634E+02  0.90410904189E+02 0.  0.
    9000005    2    3    3    0    0  0.48008343923E+01 -0.31291717767E+02 -0.26950775571E+02  0.42798923749E+02  0.10157950509E+02 0.  0.
         22    1    3    3    0    0 -0.48008343923E+01  0.31291717767E+02  0.36190379025E+02  0.48082877884E+02  0.00000000000E+00 0. -1.
         22    1    4    4    0    0 -0.13955352439E+00 -0.19709077432E+02 -0.21228350622E+02  0.28967396820E+02  0.00000000000E+00 0.  1.
         22    1    4    4    0    0  0.49403879167E+01 -0.11582640335E+02 -0.57224249497E+01  0.13831526930E+02  0.00000000000E+00 0.  1.
<mgrwt>
<rscale>  0 0.90410904E+02</rscale>
<asrwt>0</asrwt>
<pdfrwt beam="1">  1        2 0.77016465E-02 0.90410904E+02</pdfrwt>
<pdfrwt beam="2">  1       -2 0.62801691E-02 0.90410904E+02</pdfrwt>
<totfact> 0.10356781E+05</totfact>
</mgrwt>
</event>
<event>
 7    1  0.3960685E-009  0.8838085E+02  0.7818608E-02  0.1306821E+00
         -2   -1    0    0    0  501 -0.00000000000E+00  0.00000000000E+00  0.38818915530E+02  0.38818915614E+02  0.25500000000E-02 0.  1.
          2   -1    0    0  501    0  0.00000000000E+00 -0.00000000000E+00 -0.50305212601E+02  0.50305212666E+02  0.25500000000E-02 0. -1.
         23    2    1    2    0    0  0.00000000000E+00  0.00000000000E+00 -0.11486297072E+02  0.89124128279E+02  0.88380853250E+02 0.  0.
    9000005    2    3    3    0    0 -0.11154035557E+01  0.11364496659E+02 -0.47863806610E+02  0.50996459722E+02  0.13390258084E+02 0.  0.
         22    1    3    3    0    0  0.11154035557E+01 -0.11364496659E+02  0.36377509538E+02  0.38127668557E+02  0.00000000000E+00 0.  1.
         22    1    4    4    0    0 -0.14621906648E+01  0.34916322373E+01 -0.16737077513E+01  0.41389364403E+01  0.00000000000E+00 0. -1.
         22    1    4    4    0    0  0.34678710904E+00  0.78728644219E+01 -0.46190098859E+02  0.46857523282E+02  0.00000000000E+00 0. -1.
<mgrwt>
<rscale>  0 0.88380853E+02</rscale>
<asrwt>0</asrwt>
<pdfrwt beam="2">  1        2 0.77392635E-02 0.88380853E+02</pdfrwt>
<pdfrwt beam="1">  1       -2 0.59721408E-02 0.88380853E+02</pdfrwt>
<totfact> 0.11060078E+05</totfact>
</mgrwt>
</event>
<event>
 7    1  0.3960685E-009  0.8968859E+02  0.7818608E-02  0.1303608E+00
          2   -1    0    0  501    0  0.00000000000E+00  0.00000000000E+00  0.43533293365E+02  0.43533293440E+02  0.25500000000E-02 0. -1.
         -2   -1    0    0    0  501 -0.00000000000E+00 -0.00000000000E+00 -0.46194779209E+02  0.46194779279E+02  0.25500000000E-02 0.  1.
         23    2    1    2    0    0  0.71054273576E-14  0.44408920985E-15 -0.26614858436E+01  0.89728072719E+02  0.89688591956E+02 0.  0.
    9000005    2    3    3    0    0  0.42433427010E+02  0.31156964808E+01 -0.14055761072E+02  0.45681134116E+02  0.88824716426E+01 0.  0.
         22    1    3    3    0    0 -0.42433427010E+02 -0.31156964808E+01  0.11394275228E+02  0.44046938603E+02  0.00000000000E+00 0. -1.
         22    1    4    4    0    0  0.77983117030E+01 -0.16818107366E+01  0.48767141956E-01  0.79777522527E+01  0.00000000000E+00 0. -1.
         22    1    4    4    0    0  0.34635115307E+02  0.47975072174E+01 -0.14104528214E+02  0.37703381863E+02  0.00000000000E+00 0. -1.
<mgrwt>
<rscale>  0 0.89688592E+02</rscale>
<asrwt>0</asrwt>
<pdfrwt beam="1">  1        2 0.66974297E-02 0.89688592E+02</pdfrwt>
<pdfrwt beam="2">  1       -2 0.71068891E-02 0.89688592E+02</pdfrwt>
<totfact> 0.10222024E+05</totfact>
</mgrwt>
</event>
<event>
 7    1  0.3960685E-009  0.9108555E+02  0.7818608E-02  0.1300244E+00
          2   -1    0    0  501    0  0.00000000000E+00  0.00000000000E+00  0.23109078943E+02  0.23109079084E+02  0.25500000000E-02 0. -1.
         -2   -1    0    0    0  501 -0.00000000000E+00 -0.00000000000E+00 -0.89754529881E+02  0.89754529917E+02  0.25500000000E-02 0.  1.
         23    2    1    2    0    0  0.00000000000E+00  0.00000000000E+00 -0.66645450938E+02  0.11286360900E+03  0.91085553773E+02 0.  0.
    9000005    2    3    3    0    0 -0.21312395934E+02 -0.36587165780E+02 -0.16798756566E+02  0.47460766096E+02  0.13322431311E+02 0.  0.
         22    1    3    3    0    0  0.21312395934E+02  0.36587165780E+02 -0.49846694372E+02  0.65402842905E+02  0.00000000000E+00 0.  1.
         22    1    4    4    0    0 -0.10105110407E+02 -0.59434112670E+01 -0.36024357247E+01  0.12264376747E+02  0.00000000000E+00 0. -1.
         22    1    4    4    0    0 -0.11207285527E+02 -0.30643754513E+02 -0.13196320841E+02  0.35196389350E+02  0.00000000000E+00 0. -1.
<mgrwt>
<rscale>  0 0.91085554E+02</rscale>
<asrwt>0</asrwt>
<pdfrwt beam="1">  1        2 0.35552430E-02 0.91085554E+02</pdfrwt>
<pdfrwt beam="2">  1       -2 0.13808389E-01 0.91085554E+02</pdfrwt>
<totfact> 0.82573556E+04</totfact>
</mgrwt>
</event>
<event>
 7    1  0.3960685E-009  0.9163542E+02  0.7818608E-02  0.1298939E+00
          2   -1    0    0  501    0  0.00000000000E+00  0.00000000000E+00  0.40634645372E+02  0.40634645452E+02  0.25500000000E-02 0. -1.
         -2   -1    0    0    0  501 -0.00000000000E+00 -0.00000000000E+00 -0.51661885079E+02  0.51661885142E+02  0.25500000000E-02 0.  1.
         23    2    1    2    0    0  0.00000000000E+00  0.00000000000E+00 -0.11027239707E+02  0.92296530594E+02  0.91635416429E+02 0.  0.
    9000005    2    3    3    0    0  0.19703694257E+02 -0.32429082465E+02 -0.29271167651E+02  0.50192826913E+02  0.14921047582E+02 0.  0.
         22    1    3    3    0    0 -0.19703694257E+02  0.32429082465E+02  0.18243927944E+02  0.42103703682E+02  0.00000000000E+00 0. -1.
         22    1    4    4    0    0  0.12859371006E+02 -0.29040902803E+02 -0.17789868367E+02  0.36403528329E+02  0.00000000000E+00 0. -1.
         22    1    4    4    0    0  0.68443232512E+01 -0.33881796619E+01 -0.11481299283E+02  0.13789298583E+02  0.00000000000E+00 0. -1.
<mgrwt>
<rscale>  0 0.91635416E+02</rscale>
<asrwt>0</asrwt>
<pdfrwt beam="1">  1        2 0.62514839E-02 0.91635416E+02</pdfrwt>
<pdfrwt beam="2">  1       -2 0.79479824E-02 0.91635416E+02</pdfrwt>
<totfact> 0.94395566E+04</totfact>
</mgrwt>
</event>
<event>
 7    1  0.3960685E-009  0.9274583E+02  0.7818608E-02  0.1296335E+00
         -2   -1    0    0    0  501 -0.00000000000E+00  0.00000000000E+00  0.11905016664E+04  0.11905016664E+04  0.25500000000E-02 0. -1.
          2   -1    0    0  501    0  0.00000000000E+00 -0.00000000000E+00 -0.18063360588E+01  0.18063378587E+01  0.25500000000E-02 0.  1.
         23    2    1    2    0    0  0.00000000000E+00  0.00000000000E+00  0.11886953303E+04  0.11923080043E+04  0.92745828212E+02 0.  0.
    9000005    2    3    3    0    0  0.23379815776E+02 -0.18965668266E+02  0.10438828919E+04  0.10443994018E+04  0.13126541543E+02 0.  0.
         22    1    3    3    0    0 -0.23379815776E+02  0.18965668266E+02  0.14481243841E+03  0.14790860245E+03  0.00000000000E+00 0.  1.
         22    1    4    4    0    0  0.20283869698E+02 -0.19941841320E+02  0.82047621998E+03  0.82096914677E+03  0.00000000000E+00 0. -1.
         22    1    4    4    0    0  0.30959460782E+01  0.97617305390E+00  0.22340667194E+03  0.22343025503E+03  0.00000000000E+00 0. -1.
<mgrwt>
<rscale>  0 0.92745828E+02</rscale>
<asrwt>0</asrwt>
<pdfrwt beam="2">  1        2 0.27789875E-03 0.92745828E+02</pdfrwt>
<pdfrwt beam="1">  1       -2 0.18315361E+00 0.92745828E+02</pdfrwt>
<totfact> 0.14363600E+04</totfact>
</mgrwt>
</event>
<event>
 7    1  0.3960685E-009  0.1073203E+03  0.7818608E-02  0.1265614E+00
         -2   -1    0    0    0  501 -0.00000000000E+00  0.00000000000E+00  0.14213200154E+02  0.14213200383E+02  0.25500000000E-02 0.  1.
          2   -1    0    0  501    0  0.00000000000E+00 -0.00000000000E+00 -0.20258711247E+03  0.20258711249E+03  0.25500000000E-02 0. -1.
         23    2    1    2    0    0  0.00000000000E+00  0.00000000000E+00 -0.18837391232E+03  0.21680031287E+03  0.10732029081E+03 0.  0.
    9000005    2    3    3    0    0  0.21950573549E+02 -0.26137245304E+02 -0.17695441682E+03  0.18080881181E+03  0.14627970615E+02 0.  0.
         22    1    3    3    0    0 -0.21950573549E+02  0.26137245304E+02 -0.11419495498E+02  0.35991501061E+02  0.00000000000E+00 0.  1.
         22    1    4    4    0    0  0.53396985340E+00 -0.10743145683E+02 -0.52271956661E+02  0.53367197379E+02  0.00000000000E+00 0.  1.
         22    1    4    4    0    0  0.21416603696E+02 -0.15394099621E+02 -0.12468246016E+03  0.12744161443E+03  0.00000000000E+00 0.  1.
<mgrwt>
<rscale>  0 0.10732029E+03</rscale>
<asrwt>0</asrwt>
<pdfrwt beam="2">  1        2 0.31167246E-01 0.10732029E+03</pdfrwt>
<pdfrwt beam="1">  1       -2 0.21866463E-02 0.10732029E+03</pdfrwt>
<totfact> 0.99754301E+04</totfact>
</mgrwt>
</event>
<event>
 7    1  0.3960685E-009  0.9509420E+02  0.7818608E-02  0.1290964E+00
         -2   -1    0    0    0  501 -0.00000000000E+00  0.00000000000E+00  0.17879865064E+02  0.17879865246E+02  0.25500000000E-02 0.  1.
          2   -1    0    0  501    0  0.00000000000E+00 -0.00000000000E+00 -0.12643981030E+03  0.12643981033E+03  0.25500000000E-02 0. -1.
         23    2    1    2    0    0  0.00000000000E+00  0.00000000000E+00 -0.10855994524E+03  0.14431967557E+03  0.95094200915E+02 0.  0.
    9000005    2    3    3    0    0  0.18825567016E+02 -0.24891984617E+02 -0.12572459236E+01  0.32570482504E+02  0.92327022898E+01 0.  0.
         22    1    3    3    0    0 -0.18825567016E+02  0.24891984617E+02 -0.10730269931E+03  0.11174919307E+03  0.00000000000E+00 0. -1.
         22    1    4    4    0    0  0.12922878075E+02 -0.19518531481E+02 -0.47024789932E+01  0.23876498017E+02  0.00000000000E+00 0. -1.
         22    1    4    4    0    0  0.59026889414E+01 -0.53734531366E+01  0.34452330696E+01  0.86939844866E+01  0.00000000000E+00 0. -1.
<mgrwt>
<rscale>  0 0.95094201E+02</rscale>
<asrwt>0</asrwt>
<pdfrwt beam="2">  1        2 0.19452278E-01 0.95094201E+02</pdfrwt>
<pdfrwt beam="1">  1       -2 0.27507486E-02 0.95094201E+02</pdfrwt>
<totfact> 0.11770197E+05</totfact>
</mgrwt>
</event>
<event>
 7    1  0.3960685E-009  0.8947528E+02  0.7818608E-02  0.1304127E+00
         -2   -1    0    0    0  501 -0.00000000000E+00  0.00000000000E+00  0.28391093670E+02  0.28391093785E+02  0.25500000000E-02 0.  1.
          2   -1    0    0  501    0  0.00000000000E+00 -0.00000000000E+00 -0.70495927120E+02  0.70495927166E+02  0.25500000000E-02 0. -1.
         23    2    1    2    0    0 -0.17763568394E-14 -0.71054273576E-14 -0.42104833450E+02  0.98887020951E+02  0.89475281015E+02 0.  0.
    9000005    2    3    3    0    0 -0.88298052509E+01 -0.39661453305E+02 -0.38929205840E+02  0.58130660101E+02  0.14584040505E+02 0.  0.
         22    1    3    3    0    0  0.88298052509E+01  0.39661453305E+02 -0.31756276096E+01  0.40756360850E+02  0.00000000000E+00 0.  1.
         22    1    4    4    0    0 -0.84728023666E+01 -0.93339848499E+01 -0.14277901169E+02  0.19046525009E+02  0.00000000000E+00 0. -1.
         22    1    4    4    0    0 -0.35700288438E+00 -0.30327468455E+02 -0.24651304671E+02  0.39084135092E+02  0.00000000000E+00 0. -1.
<mgrwt>
<rscale>  0 0.89475281E+02</rscale>
<asrwt>0</asrwt>
<pdfrwt beam="2">  1        2 0.10845527E-01 0.89475281E+02</pdfrwt>
<pdfrwt beam="1">  1       -2 0.43678606E-02 0.89475281E+02</pdfrwt>
<totfact> 0.11681762E+05</totfact>
</mgrwt>
</event>
<event>
 7    1  0.3960685E-009  0.8973282E+02  0.7818608E-02  0.1303500E+00
         -2   -1    0    0    0  501 -0.00000000000E+00  0.00000000000E+00  0.70776281216E+02  0.70776281262E+02  0.25500000000E-02 0.  1.
          2   -1    0    0  501    0  0.00000000000E+00 -0.00000000000E+00 -0.28441654439E+02  0.28441654553E+02  0.25500000000E-02 0. -1.
         23    2    1    2    0    0  0.27755575616E-16  0.00000000000E+00  0.42334626777E+02  0.99217935815E+02  0.89732815419E+02 0.  0.
    9000005    2    3    3    0    0  0.17935124072E+00  0.16061554709E+02 -0.24742490036E+02  0.30244424185E+02  0.66729809347E+01 0.  0.
         22    1    3    3    0    0 -0.17935124072E+00 -0.16061554709E+02  0.67077116813E+02  0.68973511630E+02  0.00000000000E+00 0.  1.
         22    1    4    4    0    0 -0.30583459626E+01  0.80804081424E+01 -0.14310745176E+02  0.16716575704E+02  0.00000000000E+00 0.  1.
         22    1    4    4    0    0  0.32376972033E+01  0.79811465667E+01 -0.10431744860E+02  0.13527848481E+02  0.00000000000E+00 0.  1.
<mgrwt>
<rscale>  0 0.89732815E+02</rscale>
<asrwt>0</asrwt>
<pdfrwt beam="2">  1        2 0.43756392E-02 0.89732815E+02</pdfrwt>
<pdfrwt beam="1">  1       -2 0.10888658E-01 0.89732815E+02</pdfrwt>
<totfact> 0.91449064E+04</totfact>
</mgrwt>
</event>
<event>
 7    1  0.3960685E-009  0.9199626E+02  0.7818608E-02  0.1298088E+00
          2   -1    0    0  501    0  0.00000000000E+00  0.00000000000E+00  0.76121093070E+03  0.76121093071E+03  0.25500000000E-02 0. -1.
         -2   -1    0    0    0  501 -0.00000000000E+00 -0.00000000000E+00 -0.27795546249E+01  0.27795557946E+01  0.25500000000E-02 0.  1.
         23    2    1    2    0    0  0.00000000000E+00  0.00000000000E+00  0.75843137608E+03  0.76399048650E+03  0.91996256693E+02 0.  0.
    9000005    2    3    3    0    0 -0.92391438928E+01 -0.38805873833E+02  0.56010357194E+03  0.56169076946E+03  0.13756873360E+02 0.  0.
         22    1    3    3    0    0  0.92391438928E+01  0.38805873833E+02  0.19832780413E+03  0.20229971704E+03  0.00000000000E+00 0.  1.
         22    1    4    4    0    0 -0.99419289756E+01 -0.30022087624E+02  0.49265224401E+03  0.49366628528E+03  0.00000000000E+00 0.  1.
         22    1    4    4    0    0  0.70278508273E+00 -0.87837862091E+01  0.67451327938E+02  0.68024484177E+02  0.00000000000E+00 0.  1.
<mgrwt>
<rscale>  0 0.91996257E+02</rscale>
<asrwt>0</asrwt>
<pdfrwt beam="1">  1        2 0.11710944E+00 0.91996257E+02</pdfrwt>
<pdfrwt beam="2">  1       -2 0.42762365E-03 0.91996257E+02</pdfrwt>
<totfact> 0.23584880E+05</totfact>
</mgrwt>
</event>
<event>
 7    1  0.3960685E-009  0.9059788E+02  0.7818608E-02  0.1301410E+00
         -2   -1    0    0    0  501 -0.00000000000E+00  0.00000000000E+00  0.14493344491E+01  0.14493366924E+01  0.25500000000E-02 0. -1.
          2   -1    0    0  501    0  0.00000000000E+00 -0.00000000000E+00 -0.14158169941E+04  0.14158169941E+04  0.25500000000E-02 0.  1.
         23    2    1    2    0    0  0.00000000000E+00 -0.17763568394E-14 -0.14143676597E+04  0.14172663308E+04  0.90597879323E+02 0.  0.
    9000005    2    3    3    0    0  0.21003680945E+02  0.10742225848E+02 -0.13088532986E+04  0.13091468116E+04  0.14555658743E+02 0.  0.
         22    1    3    3    0    0 -0.21003680945E+02 -0.10742225848E+02 -0.10551436107E+03  0.10811951915E+03  0.00000000000E+00 0. -1.
         22    1    4    4    0    0  0.37801261430E+01  0.97618736523E+01 -0.49877476371E+03  0.49888460433E+03  0.00000000000E+00 0. -1.
         22    1    4    4    0    0  0.17223554802E+02  0.98035219588E+00 -0.81007853487E+03  0.81026220731E+03  0.00000000000E+00 0. -1.
<mgrwt>
<rscale>  0 0.90597879E+02</rscale>
<asrwt>0</asrwt>
<pdfrwt beam="2">  1        2 0.21781689E+00 0.90597879E+02</pdfrwt>
<pdfrwt beam="1">  1       -2 0.22297583E-03 0.90597879E+02</pdfrwt>
<totfact> 0.24468271E+05</totfact>
</mgrwt>
</event>
<event>
 7    1  0.3960685E-009  0.9195947E+02  0.7818608E-02  0.1298175E+00
          2   -1    0    0  501    0  0.00000000000E+00  0.00000000000E+00  0.23789395324E+02  0.23789395460E+02  0.25500000000E-02 0. -1.
         -2   -1    0    0    0  501 -0.00000000000E+00 -0.00000000000E+00 -0.88868841317E+02  0.88868841354E+02  0.25500000000E-02 0.  1.
         23    2    1    2    0    0  0.88817841970E-15  0.00000000000E+00 -0.65079445993E+02  0.11265823681E+03  0.91959469503E+02 0.  0.
    9000005    2    3    3    0    0 -0.76279346340E+01 -0.43895664904E+02 -0.19774341390E+02  0.49116382204E+02  0.60315536354E+01 0.  0.
         22    1    3    3    0    0  0.76279346340E+01  0.43895664904E+02 -0.45305104603E+02  0.63541854610E+02  0.00000000000E+00 0.  1.
         22    1    4    4    0    0 -0.38556763381E+00 -0.51132595447E+01 -0.34647037499E+00  0.51394676079E+01  0.00000000000E+00 0. -1.
         22    1    4    4    0    0 -0.72423670002E+01 -0.38782405360E+02 -0.19427871015E+02  0.43976914596E+02  0.00000000000E+00 0. -1.
<mgrwt>
<rscale>  0 0.91959470E+02</rscale>
<asrwt>0</asrwt>
<pdfrwt beam="1">  1        2 0.36599070E-02 0.91959470E+02</pdfrwt>
<pdfrwt beam="2">  1       -2 0.13672129E-01 0.91959470E+02</pdfrwt>
<totfact> 0.80874338E+04</totfact>
</mgrwt>
</event>
<event>
 6    1  0.3960685E-009  0.1356954E+03  0.7818608E-02  0.1219241E+00
         -2   -1    0    0    0  501 -0.00000000000E+00  0.00000000000E+00  0.63013785847E+02  0.63013785898E+02  0.25500000000E-02 0.  1.
          2   -1    0    0  501    0  0.00000000000E+00 -0.00000000000E+00 -0.73052415105E+02  0.73052415149E+02  0.25500000000E-02 0. -1.
    9000005    2    1    2    0    0 -0.24844478778E+02  0.54359015229E+01  0.57933802318E+02  0.63491766117E+02  0.52992228142E+01 0.  0.
         22    1    1    2    0    0  0.24844478778E+02 -0.54359015229E+01 -0.67972431576E+02  0.72574434931E+02  0.00000000000E+00 0. -1.
         22    1    3    3    0    0 -0.31631192336E+01  0.25759182207E+01  0.10264096716E+02  0.11045015136E+02  0.00000000000E+00 0.  1.
         22    1    3    3    0    0 -0.21681359545E+02  0.28599833022E+01  0.47669705603E+02  0.52446750981E+02  0.00000000000E+00 0.  1.
<mgrwt>
<rscale>  0 0.13569538E+03</rscale>
<asrwt>0</asrwt>
<pdfrwt beam="2">  1        2 0.11238833E-01 0.13569538E+03</pdfrwt>
<pdfrwt beam="1">  1       -2 0.96944286E-02 0.13569538E+03</pdfrwt>
<totfact> 0.35356357E+04</totfact>
</mgrwt>
</event>
<event>
 7    1  0.3960685E-009  0.9141542E+02  0.7818608E-02  0.1299460E+00
          2   -1    0    0  501    0  0.00000000000E+00  0.00000000000E+00  0.73252698462E+03  0.73252698463E+03  0.25500000000E-02 0. -1.
         -2   -1    0    0    0  501 -0.00000000000E+00 -0.00000000000E+00 -0.28520376662E+01  0.28520388062E+01  0.25500000000E-02 0.  1.
         23    2    1    2    0    0  0.00000000000E+00  0.35527136788E-14  0.72967494696E+03  0.73537902343E+03  0.91415424791E+02 0.  0.
    9000005    2    3    3    0    0 -0.30154834593E+02  0.21402372361E+02  0.57649518720E+03  0.57779915673E+03  0.11738358398E+02 0.  0.
         22    1    3    3    0    0  0.30154834593E+02 -0.21402372361E+02  0.15317975975E+03  0.15757986670E+03  0.00000000000E+00 0.  1.
         22    1    4    4    0    0 -0.96517833962E+01  0.40721945114E+01  0.24277185309E+03  0.24299776201E+03  0.00000000000E+00 0. -1.
         22    1    4    4    0    0 -0.20503051197E+02  0.17330177850E+02  0.33372333412E+03  0.33480139472E+03  0.00000000000E+00 0. -1.
<mgrwt>
<rscale>  0 0.91415425E+02</rscale>
<asrwt>0</asrwt>
<pdfrwt beam="1">  1        2 0.11269653E+00 0.91415425E+02</pdfrwt>
<pdfrwt beam="2">  1       -2 0.43877485E-03 0.91415425E+02</pdfrwt>
<totfact> 0.23792342E+05</totfact>
</mgrwt>
</event>
<event>
 7    1  0.3960685E-009  0.9806380E+02  0.7818608E-02  0.1284421E+00
         -2   -1    0    0    0  501 -0.00000000000E+00  0.00000000000E+00  0.10609667921E+01  0.10609698565E+01  0.25500000000E-02 0.  1.
          2   -1    0    0  501    0  0.00000000000E+00 -0.00000000000E+00 -0.22659743562E+04  0.22659743562E+04  0.25500000000E-02 0. -1.
         23    2    1    2    0    0  0.00000000000E+00  0.88817841970E-15 -0.22649133894E+04  0.22670353260E+04  0.98063795945E+02 0.  0.
    9000005    2    3    3    0    0 -0.12691520135E+02  0.45903501921E+01 -0.22216587873E+04  0.22217241066E+04  0.10396778963E+02 0.  0.
         22    1    3    3    0    0  0.12691520135E+02 -0.45903501921E+01 -0.43254602139E+02  0.45311219410E+02  0.00000000000E+00 0.  1.
         22    1    4    4    0    0 -0.58666253513E+01  0.75768204517E+01 -0.12256005559E+04  0.12256380168E+04  0.00000000000E+00 0. -1.
         22    1    4    4    0    0 -0.68248947836E+01 -0.29864702595E+01 -0.99605823133E+03  0.99608608986E+03  0.00000000000E+00 0. -1.
<mgrwt>
<rscale>  0 0.98063796E+02</rscale>
<asrwt>0</asrwt>
<pdfrwt beam="2">  1        2 0.34860757E+00 0.98063796E+02</pdfrwt>
<pdfrwt beam="1">  1       -2 0.16322771E-03 0.98063796E+02</pdfrwt>
<totfact> 0.14131585E+05</totfact>
</mgrwt>
</event>
<event>
 7    1  0.3960685E-009  0.9159328E+02  0.7818608E-02  0.1299039E+00
         -2   -1    0    0    0  501 -0.00000000000E+00  0.00000000000E+00  0.86399340840E+02  0.86399340878E+02  0.25500000000E-02 0.  1.
          2   -1    0    0  501    0  0.00000000000E+00 -0.00000000000E+00 -0.24274863927E+02  0.24274864061E+02  0.25500000000E-02 0. -1.
         23    2    1    2    0    0 -0.35527136788E-14  0.00000000000E+00  0.62124476913E+02  0.11067420494E+03  0.91593280360E+02 0.  0.
    9000005    2    3    3    0    0  0.23138341767E+02 -0.13432221878E+02 -0.11597153170E+02  0.32247894390E+02  0.13770449761E+02 0.  0.
         22    1    3    3    0    0 -0.23138341767E+02  0.13432221878E+02  0.73721630083E+02  0.78426310550E+02  0.00000000000E+00 0.  1.
         22    1    4    4    0    0  0.26021541784E+01 -0.33620265774E+01  0.29198748168E+01  0.51575282859E+01  0.00000000000E+00 0.  1.
         22    1    4    4    0    0  0.20536187589E+02 -0.10070195301E+02 -0.14517027987E+02  0.27090366104E+02  0.00000000000E+00 0.  1.
<mgrwt>
<rscale>  0 0.91593280E+02</rscale>
<asrwt>0</asrwt>
<pdfrwt beam="2">  1        2 0.37345944E-02 0.91593280E+02</pdfrwt>
<pdfrwt beam="1">  1       -2 0.13292206E-01 0.91593280E+02</pdfrwt>
<totfact> 0.82335824E+04</totfact>
</mgrwt>
</event>
<event>
 7    1  0.3960685E-009  0.9202236E+02  0.7818608E-02  0.1298027E+00
          2   -1    0    0  501    0  0.00000000000E+00  0.00000000000E+00  0.10851794275E+03  0.10851794278E+03  0.25500000000E-02 0. -1.
         -2   -1    0    0    0  501 -0.00000000000E+00 -0.00000000000E+00 -0.19508560762E+02  0.19508560928E+02  0.25500000000E-02 0.  1.
         23    2    1    2    0    0 -0.71054273576E-14  0.17763568394E-14  0.89009381989E+02  0.12802650371E+03  0.92022364509E+02 0.  0.
    9000005    2    3    3    0    0 -0.41938683710E+02  0.85439076768E+01  0.67495918701E+02  0.80123678611E+02  0.56791974076E+01 0.  0.
         22    1    3    3    0    0  0.41938683710E+02 -0.85439076768E+01  0.21513463288E+02  0.47902825097E+02  0.00000000000E+00 0.  1.
         22    1    4    4    0    0 -0.38877187476E+02  0.79443906403E+01  0.59274967166E+02  0.71330714150E+02  0.00000000000E+00 0. -1.
         22    1    4    4    0    0 -0.30614962339E+01  0.59951703645E+00  0.82209515349E+01  0.87929644607E+01  0.00000000000E+00 0. -1.
<mgrwt>
<rscale>  0 0.92022365E+02</rscale>
<asrwt>0</asrwt>
<pdfrwt beam="1">  1        2 0.16695068E-01 0.92022365E+02</pdfrwt>
<pdfrwt beam="2">  1       -2 0.30013171E-02 0.92022365E+02</pdfrwt>
<totfact> 0.12265253E+05</totfact>
</mgrwt>
</event>
<event>
 7    1  0.3960685E-009  0.9069022E+02  0.7818608E-02  0.1301189E+00
         -2   -1    0    0    0  501 -0.00000000000E+00  0.00000000000E+00  0.27460489460E+02  0.27460489579E+02  0.25500000000E-02 0.  1.
          2   -1    0    0  501    0  0.00000000000E+00 -0.00000000000E+00 -0.74877718578E+02  0.74877718621E+02  0.25500000000E-02 0. -1.
         23    2    1    2    0    0  0.00000000000E+00  0.00000000000E+00 -0.47417229117E+02  0.10233820820E+03  0.90690215792E+02 0.  0.
    9000005    2    3    3    0    0 -0.39094333748E+02 -0.16330713560E+02 -0.40576987492E+02  0.59421451076E+02  0.94529253413E+01 0.  0.
         22    1    3    3    0    0  0.39094333748E+02  0.16330713560E+02 -0.68402416257E+01  0.42916757124E+02  0.00000000000E+00 0.  1.
         22    1    4    4    0    0 -0.13331693053E+02 -0.96079010005E+01 -0.19230942091E+02  0.25295749347E+02  0.00000000000E+00 0. -1.
         22    1    4    4    0    0 -0.25762640695E+02 -0.67228125598E+01 -0.21346045401E+02  0.34125701729E+02  0.00000000000E+00 0. -1.
<mgrwt>
<rscale>  0 0.90690216E+02</rscale>
<asrwt>0</asrwt>
<pdfrwt beam="2">  1        2 0.11519649E-01 0.90690216E+02</pdfrwt>
<pdfrwt beam="1">  1       -2 0.42246907E-02 0.90690216E+02</pdfrwt>
<totfact> 0.11441310E+05</totfact>
</mgrwt>
</event>
<event>
 7    1  0.3960685E-009  0.8928793E+02  0.7818608E-02  0.1304585E+00
          2   -1    0    0  501    0  0.00000000000E+00  0.00000000000E+00  0.46330186630E+02  0.46330186700E+02  0.25500000000E-02 0. -1.
         -2   -1    0    0    0  501 -0.00000000000E+00 -0.00000000000E+00 -0.43019117693E+02  0.43019117769E+02  0.25500000000E-02 0.  1.
         23    2    1    2    0    0  0.00000000000E+00 -0.71054273576E-14  0.33110689370E+01  0.89349304469E+02  0.89287933292E+02 0.  0.
    9000005    2    3    3    0    0 -0.18370573996E+02  0.37070460101E+02  0.15173768175E+02  0.46309548031E+02  0.14234956874E+02 0.  0.
         22    1    3    3    0    0  0.18370573996E+02 -0.37070460101E+02 -0.11862699238E+02  0.43039756438E+02  0.00000000000E+00 0.  1.
         22    1    4    4    0    0 -0.72556064321E+01  0.27329906596E+02  0.59732989633E+01  0.28900656043E+02  0.00000000000E+00 0.  1.
         22    1    4    4    0    0 -0.11114967564E+02  0.97405535050E+01  0.92004692118E+01  0.17408891988E+02  0.00000000000E+00 0.  1.
<mgrwt>
<rscale>  0 0.89287933E+02</rscale>
<asrwt>0</asrwt>
<pdfrwt beam="1">  1        2 0.71277210E-02 0.89287933E+02</pdfrwt>
<pdfrwt beam="2">  1       -2 0.66183259E-02 0.89287933E+02</pdfrwt>
<totfact> 0.10519916E+05</totfact>
</mgrwt>
</event>
<event>
 7    1  0.3960685E-009  0.8957718E+02  0.7818608E-02  0.1303879E+00
         -2   -1    0    0    0  501 -0.00000000000E+00  0.00000000000E+00  0.39723370935E+01  0.39723379119E+01  0.25500000000E-02 0.  1.
          2   -1    0    0  501    0  0.00000000000E+00 -0.00000000000E+00 -0.50499680176E+03  0.50499680177E+03  0.25500000000E-02 0. -1.
         23    2    1    2    0    0  0.00000000000E+00  0.00000000000E+00 -0.50102446467E+03  0.50896913968E+03  0.89577178738E+02 0.  0.
    9000005    2    3    3    0    0 -0.17334245157E+02 -0.39970134690E+02 -0.26973151357E+03  0.27360874167E+03  0.14441827616E+02 0.  0.
         22    1    3    3    0    0  0.17334245157E+02  0.39970134690E+02 -0.23129295110E+03  0.23536039801E+03  0.00000000000E+00 0. -1.
         22    1    4    4    0    0  0.30663232414E-01 -0.17491031058E+02 -0.10407983935E+03  0.10553932948E+03  0.00000000000E+00 0. -1.
         22    1    4    4    0    0 -0.17364908389E+02 -0.22479103632E+02 -0.16565167422E+03  0.16806941219E+03  0.00000000000E+00 0. -1.
<mgrwt>
<rscale>  0 0.89577179E+02</rscale>
<asrwt>0</asrwt>
<pdfrwt beam="2">  1        2 0.77691765E-01 0.89577179E+02</pdfrwt>
<pdfrwt beam="1">  1       -2 0.61112925E-03 0.89577179E+02</pdfrwt>
<totfact> 0.22654600E+05</totfact>
</mgrwt>
</event>
<event>
 7    1  0.3960685E-009  0.9247263E+02  0.7818608E-02  0.1296972E+00
          2   -1    0    0  501    0  0.00000000000E+00  0.00000000000E+00  0.78830555650E+03  0.78830555650E+03  0.25500000000E-02 0. -1.
         -2   -1    0    0    0  501 -0.00000000000E+00 -0.00000000000E+00 -0.27118876706E+01  0.27118888695E+01  0.25500000000E-02 0.  1.
         23    2    1    2    0    0 -0.17763568394E-14  0.00000000000E+00  0.78559366883E+03  0.79101744537E+03  0.92472625033E+02 0.  0.
    9000005    2    3    3    0    0 -0.10821260751E+02  0.47712909555E+01  0.77505240319E+03  0.77517499661E+03  0.70839801411E+01 0.  0.
         22    1    3    3    0    0  0.10821260751E+02 -0.47712909555E+01  0.10541265642E+02  0.15842448768E+02  0.00000000000E+00 0.  1.
         22    1    4    4    0    0 -0.96668669121E+01  0.60094053759E+01  0.55850640422E+03  0.55862238124E+03  0.00000000000E+00 0.  1.
         22    1    4    4    0    0 -0.11543938388E+01 -0.12381144203E+01  0.21654599896E+03  0.21655261536E+03  0.00000000000E+00 0.  1.
<mgrwt>
<rscale>  0 0.92472625E+02</rscale>
<asrwt>0</asrwt>
<pdfrwt beam="1">  1        2 0.12127761E+00 0.92472625E+02</pdfrwt>
<pdfrwt beam="2">  1       -2 0.41721417E-03 0.92472625E+02</pdfrwt>
<totfact> 0.23421441E+05</totfact>
</mgrwt>
</event>
<event>
 7    1  0.3960685E-009  0.1011904E+03  0.7818608E-02  0.1277812E+00
         -2   -1    0    0    0  501 -0.00000000000E+00  0.00000000000E+00  0.29401718225E+01  0.29401729284E+01  0.25500000000E-02 0. -1.
          2   -1    0    0  501    0  0.00000000000E+00 -0.00000000000E+00 -0.87065478281E+03  0.87065478282E+03  0.25500000000E-02 0.  1.
         23    2    1    2    0    0  0.00000000000E+00  0.71054273576E-14 -0.86771461099E+03  0.87359495575E+03  0.10119041742E+03 0.  0.
    9000005    2    3    3    0    0  0.40748166714E+01  0.46258986243E+02 -0.60634603363E+03  0.60813303537E+03  0.37119088375E+01 0.  0.
         22    1    3    3    0    0 -0.40748166714E+01 -0.46258986243E+02 -0.26136857736E+03  0.26546192037E+03  0.00000000000E+00 0. -1.
         22    1    4    4    0    0  0.29853312143E+00  0.23711149766E+01 -0.43687645027E+02  0.43752961457E+02  0.00000000000E+00 0.  1.
         22    1    4    4    0    0  0.37762835499E+01  0.43887871267E+02 -0.56265838861E+03  0.56438007392E+03  0.00000000000E+00 0.  1.
<mgrwt>
<rscale>  0 0.10119042E+03</rscale>
<asrwt>0</asrwt>
<pdfrwt beam="2">  1        2 0.13394668E+00 0.10119042E+03</pdfrwt>
<pdfrwt beam="1">  1       -2 0.45233490E-03 0.10119042E+03</pdfrwt>
<totfact> 0.18739406E+05</totfact>
</mgrwt>
</event>
<event>
 7    1  0.3960685E-009  0.9540253E+02  0.7818608E-02  0.1290272E+00
         -2   -1    0    0    0  501 -0.00000000000E+00  0.00000000000E+00  0.59123280680E+01  0.59123286179E+01  0.25500000000E-02 0. -1.
          2   -1    0    0  501    0  0.00000000000E+00 -0.00000000000E+00 -0.38485861869E+03  0.38485861870E+03  0.25500000000E-02 0.  1.
         23    2    1    2    0    0  0.00000000000E+00  0.44408920985E-15 -0.37894629062E+03  0.39077094731E+03  0.95402526645E+02 0.  0.
    9000005    2    3    3    0    0  0.41195766678E+02 -0.39201916864E+01 -0.28315592196E+03  0.28642415137E+03  0.12208982526E+02 0.  0.
         22    1    3    3    0    0 -0.41195766678E+02  0.39201916864E+01 -0.95790368663E+02  0.10434679594E+03  0.00000000000E+00 0. -1.
         22    1    4    4    0    0  0.64226616260E+01 -0.47957698490E+01 -0.68629837836E+02  0.69096343117E+02  0.00000000000E+00 0.  1.
         22    1    4    4    0    0  0.34773105052E+02  0.87557816260E+00 -0.21452608412E+03  0.21732780825E+03  0.00000000000E+00 0.  1.
<mgrwt>
<rscale>  0 0.95402527E+02</rscale>
<asrwt>0</asrwt>
<pdfrwt beam="2">  1        2 0.59208999E-01 0.95402527E+02</pdfrwt>
<pdfrwt beam="1">  1       -2 0.90958928E-03 0.95402527E+02</pdfrwt>
<totfact> 0.17449155E+05</totfact>
</mgrwt>
</event>
<event>
 7    1  0.3960685E-009  0.9231845E+02  0.7818608E-02  0.1297332E+00
         -2   -1    0    0    0  501 -0.00000000000E+00  0.00000000000E+00  0.14109803728E+02  0.14109803958E+02  0.25500000000E-02 0.  1.
          2   -1    0    0  501    0  0.00000000000E+00 -0.00000000000E+00 -0.15100663263E+03  0.15100663265E+03  0.25500000000E-02 0. -1.
         23    2    1    2    0    0  0.00000000000E+00 -0.17763568394E-14 -0.13689682890E+03  0.16511643661E+03  0.92318448183E+02 0.  0.
    9000005    2    3    3    0    0  0.21049776812E+02  0.11604592966E+02  0.10827248159E+01  0.25058887987E+02  0.70011350772E+01 0.  0.
         22    1    3    3    0    0 -0.21049776812E+02 -0.11604592966E+02 -0.13797955372E+03  0.14005754862E+03  0.00000000000E+00 0. -1.
         22    1    4    4    0    0  0.19685825770E+02  0.85505621103E+01 -0.23502255694E+00  0.21463901888E+02  0.00000000000E+00 0.  1.
         22    1    4    4    0    0  0.13639510421E+01  0.30540308561E+01  0.13177473728E+01  0.35949860993E+01  0.00000000000E+00 0.  1.
<mgrwt>
<rscale>  0 0.92318448E+02</rscale>
<asrwt>0</asrwt>
<pdfrwt beam="2">  1        2 0.23231789E-01 0.92318448E+02</pdfrwt>
<pdfrwt beam="1">  1       -2 0.21707391E-02 0.92318448E+02</pdfrwt>
<totfact> 0.13546826E+05</totfact>
</mgrwt>
</event>
<event>
 7    1  0.3960685E-009  0.9202283E+02  0.7818608E-02  0.1298026E+00
         -2   -1    0    0    0  501 -0.00000000000E+00  0.00000000000E+00  0.25671391159E+02  0.25671391286E+02  0.25500000000E-02 0. -1.
          2   -1    0    0  501    0  0.00000000000E+00 -0.00000000000E+00 -0.82467297474E+02  0.82467297513E+02  0.25500000000E-02 0.  1.
         23    2    1    2    0    0 -0.35527136788E-14  0.00000000000E+00 -0.56795906315E+02  0.10813868880E+03  0.92022828912E+02 0.  0.
    9000005    2    3    3    0    0 -0.27963285249E+02  0.34776537026E+02 -0.40716896339E+02  0.60705710700E+02  0.59970671716E+01 0.  0.
         22    1    3    3    0    0  0.27963285249E+02 -0.34776537026E+02 -0.16079009976E+02  0.47432978098E+02  0.00000000000E+00 0.  1.
         22    1    4    4    0    0 -0.20843381497E+02  0.21573596193E+02 -0.28137536351E+02  0.41128913879E+02  0.00000000000E+00 0. -1.
         22    1    4    4    0    0 -0.71199037525E+01  0.13202940833E+02 -0.12579359988E+02  0.19576796821E+02  0.00000000000E+00 0. -1.
<mgrwt>
<rscale>  0 0.92022829E+02</rscale>
<asrwt>0</asrwt>
<pdfrwt beam="2">  1        2 0.12687276E-01 0.92022829E+02</pdfrwt>
<pdfrwt beam="1">  1       -2 0.39494448E-02 0.92022829E+02</pdfrwt>
<totfact> 0.11292501E+05</totfact>
</mgrwt>
</event>
<event>
 7    1  0.3960685E-009  0.9136376E+02  0.7818608E-02  0.1299582E+00
          2   -1    0    0  501    0  0.00000000000E+00  0.00000000000E+00  0.17602389156E+02  0.17602389341E+02  0.25500000000E-02 0. -1.
         -2   -1    0    0    0  501 -0.00000000000E+00 -0.00000000000E+00 -0.11855402596E+03  0.11855402599E+03  0.25500000000E-02 0.  1.
         23    2    1    2    0    0  0.00000000000E+00 -0.55511151231E-16 -0.10095163680E+03  0.13615641533E+03  0.91363759016E+02 0.  0.
    9000005    2    3    3    0    0  0.33396228221E+02 -0.14362306494E+00 -0.83797182736E+01  0.37744582771E+02  0.15463025680E+02 0.  0.
         22    1    3    3    0    0 -0.33396228221E+02  0.14362306494E+00 -0.92571918529E+02  0.98411832557E+02  0.00000000000E+00 0.  1.
         22    1    4    4    0    0  0.12638591495E+01 -0.40390904221E+01 -0.22797477925E+01  0.48071656290E+01  0.00000000000E+00 0. -1.
         22    1    4    4    0    0  0.32132369072E+02  0.38954673571E+01 -0.60999704812E+01  0.32937417142E+02  0.00000000000E+00 0. -1.
<mgrwt>
<rscale>  0 0.91363759E+02</rscale>
<asrwt>0</asrwt>
<pdfrwt beam="1">  1        2 0.27080600E-02 0.91363759E+02</pdfrwt>
<pdfrwt beam="2">  1       -2 0.18239080E-01 0.91363759E+02</pdfrwt>
<totfact> 0.75323762E+04</totfact>
</mgrwt>
</event>
<event>
 7    1  0.3960685E-009  0.9553976E+02  0.7818608E-02  0.1289965E+00
          2   -1    0    0  501    0  0.00000000000E+00  0.00000000000E+00  0.78193938061E+01  0.78193942219E+01  0.25500000000E-02 0.  1.
         -2   -1    0    0    0  501 -0.00000000000E+00 -0.00000000000E+00 -0.29183354156E+03  0.29183354158E+03  0.25500000000E-02 0. -1.
         23    2    1    2    0    0  0.00000000000E+00  0.00000000000E+00 -0.28401414776E+03  0.29965293580E+03  0.95539760336E+02 0.  0.
    9000005    2    3    3    0    0 -0.36378400966E+01 -0.30336809123E+02 -0.25683133089E+03  0.25875719762E+03  0.77070697427E+01 0.  0.
         22    1    3    3    0    0  0.36378400966E+01  0.30336809123E+02 -0.27182816868E+02  0.40895738180E+02  0.00000000000E+00 0.  1.
         22    1    4    4    0    0  0.13487780246E+01 -0.16466285286E+02 -0.15186080426E+03  0.15275687095E+03  0.00000000000E+00 0.  1.
         22    1    4    4    0    0 -0.49866181213E+01 -0.13870523837E+02 -0.10497052663E+03  0.10600032667E+03  0.00000000000E+00 0.  1.
<mgrwt>
<rscale>  0 0.95539760E+02</rscale>
<asrwt>0</asrwt>
<pdfrwt beam="1">  1        2 0.12029839E-02 0.95539760E+02</pdfrwt>
<pdfrwt beam="2">  1       -2 0.44897459E-01 0.95539760E+02</pdfrwt>
<totfact> 0.45911689E+04</totfact>
</mgrwt>
</event>
<event>
 7    1  0.3960685E-009  0.9147714E+02  0.7818608E-02  0.1299314E+00
          2   -1    0    0  501    0  0.00000000000E+00  0.00000000000E+00  0.11979775737E+03  0.11979775740E+03  0.25500000000E-02 0. -1.
         -2   -1    0    0    0  501 -0.00000000000E+00 -0.00000000000E+00 -0.17462904604E+02  0.17462904790E+02  0.25500000000E-02 0.  1.
         23    2    1    2    0    0  0.35527136788E-14  0.00000000000E+00  0.10233485277E+03  0.13726066219E+03  0.91477140825E+02 0.  0.
    9000005    2    3    3    0    0 -0.28111577450E+02 -0.23315949896E+02  0.91402825589E+02  0.99137132388E+02  0.11823712876E+02 0.  0.
         22    1    3    3    0    0  0.28111577450E+02  0.23315949896E+02  0.10932027180E+02  0.38123529802E+02  0.00000000000E+00 0.  1.
         22    1    4    4    0    0 -0.11369139535E+02 -0.26036927518E+01  0.31089237030E+02  0.33205078057E+02  0.00000000000E+00 0.  1.
         22    1    4    4    0    0 -0.16742437915E+02 -0.20712257144E+02  0.60313588559E+02  0.65932054331E+02  0.00000000000E+00 0.  1.
<mgrwt>
<rscale>  0 0.91477141E+02</rscale>
<asrwt>0</asrwt>
<pdfrwt beam="1">  1        2 0.18430424E-01 0.91477141E+02</pdfrwt>
<pdfrwt beam="2">  1       -2 0.26866008E-02 0.91477141E+02</pdfrwt>
<totfact> 0.12863105E+05</totfact>
</mgrwt>
</event>
<event>
 7    1  0.3960685E-009  0.9404412E+02  0.7818608E-02  0.1293344E+00
         -2   -1    0    0    0  501 -0.00000000000E+00  0.00000000000E+00  0.13015749792E+02  0.13015750041E+02  0.25500000000E-02 0.  1.
          2   -1    0    0  501    0  0.00000000000E+00 -0.00000000000E+00 -0.16987679581E+03  0.16987679583E+03  0.25500000000E-02 0. -1.
         23    2    1    2    0    0  0.00000000000E+00 -0.17763568394E-14 -0.15686104602E+03  0.18289254587E+03  0.94044115059E+02 0.  0.
    9000005    2    3    3    0    0 -0.38729602714E+02 -0.15034252621E+02 -0.11854433123E+03  0.12637545544E+03  0.13855915474E+02 0.  0.
         22    1    3    3    0    0  0.38729602714E+02  0.15034252621E+02 -0.38316714792E+02  0.56517090430E+02  0.00000000000E+00 0.  1.
         22    1    4    4    0    0 -0.31860666041E+02 -0.81583027899E+01 -0.77379149450E+02  0.84078491391E+02  0.00000000000E+00 0.  1.
         22    1    4    4    0    0 -0.68689366727E+01 -0.68759498310E+01 -0.41165181781E+02  0.42296964053E+02  0.00000000000E+00 0.  1.
<mgrwt>
<rscale>  0 0.94044115E+02</rscale>
<asrwt>0</asrwt>
<pdfrwt beam="2">  1        2 0.26134890E-01 0.94044115E+02</pdfrwt>
<pdfrwt beam="1">  1       -2 0.20024232E-02 0.94044115E+02</pdfrwt>
<totfact> 0.13418981E+05</totfact>
</mgrwt>
</event>
<event>
 7    1  0.3960685E-009  0.9005419E+02  0.7818608E-02  0.1302721E+00
          2   -1    0    0  501    0  0.00000000000E+00  0.00000000000E+00  0.27423643991E+03  0.27423643993E+03  0.25500000000E-02 0. -1.
         -2   -1    0    0    0  501 -0.00000000000E+00 -0.00000000000E+00 -0.73930331368E+01  0.73930335765E+01  0.25500000000E-02 0.  1.
         23    2    1    2    0    0  0.00000000000E+00  0.00000000000E+00  0.26684340678E+03  0.28162947350E+03  0.90054187047E+02 0.  0.
    9000005    2    3    3    0    0  0.17325608223E+02 -0.95584881874E+01  0.25974726824E+03  0.26060813722E+03  0.75110874183E+01 0.  0.
         22    1    3    3    0    0 -0.17325608223E+02  0.95584881874E+01  0.70961385400E+01  0.21021336278E+02  0.00000000000E+00 0.  1.
         22    1    4    4    0    0  0.10835550339E+02 -0.18017051773E+01  0.12485401370E+03  0.12533626781E+03  0.00000000000E+00 0.  1.
         22    1    4    4    0    0  0.64900578836E+01 -0.77567830101E+01  0.13489325454E+03  0.13527186941E+03  0.00000000000E+00 0.  1.
<mgrwt>
<rscale>  0 0.90054187E+02</rscale>
<asrwt>0</asrwt>
<pdfrwt beam="1">  1        2 0.42190218E-01 0.90054187E+02</pdfrwt>
<pdfrwt beam="2">  1       -2 0.11373898E-02 0.90054187E+02</pdfrwt>
<totfact> 0.17958575E+05</totfact>
</mgrwt>
</event>
<event>
 7    1  0.3960685E-009  0.9279398E+02  0.7818608E-02  0.1296223E+00
          2   -1    0    0  501    0  0.00000000000E+00  0.00000000000E+00  0.50878453522E+03  0.50878453523E+03  0.25500000000E-02 0. -1.
         -2   -1    0    0    0  501 -0.00000000000E+00 -0.00000000000E+00 -0.42310262244E+01  0.42310269928E+01  0.25500000000E-02 0.  1.
         23    2    1    2    0    0  0.00000000000E+00  0.00000000000E+00  0.50455350899E+03  0.51301556222E+03  0.92793984930E+02 0.  0.
    9000005    2    3    3    0    0  0.34193148484E+02  0.13929720092E+02  0.40227977102E+03  0.40428136344E+03  0.15849231713E+02 0.  0.
         22    1    3    3    0    0 -0.34193148484E+02 -0.13929720092E+02  0.10227373797E+03  0.10873419878E+03  0.00000000000E+00 0.  1.
         22    1    4    4    0    0  0.19986387336E+02 -0.71561606423E-01  0.17898004236E+03  0.18009252168E+03  0.00000000000E+00 0. -1.
         22    1    4    4    0    0  0.14206761148E+02  0.14001281699E+02  0.22329972866E+03  0.22418884177E+03  0.00000000000E+00 0. -1.
<mgrwt>
<rscale>  0 0.92793985E+02</rscale>
<asrwt>0</asrwt>
<pdfrwt beam="1">  1        2 0.78274547E-01 0.92793985E+02</pdfrwt>
<pdfrwt beam="2">  1       -2 0.65092715E-03 0.92793985E+02</pdfrwt>
<totfact> 0.20685042E+05</totfact>
</mgrwt>
</event>
<event>
 7    1  0.3960685E-009  0.8811204E+02  0.7818608E-02  0.1307489E+00
          2   -1    0    0  501    0  0.00000000000E+00  0.00000000000E+00  0.50048011755E+01  0.50048018252E+01  0.25500000000E-02 0. -1.
         -2   -1    0    0    0  501 -0.00000000000E+00 -0.00000000000E+00 -0.38781414184E+03  0.38781414185E+03  0.25500000000E-02 0.  1.
         23    2    1    2    0    0  0.00000000000E+00  0.00000000000E+00 -0.38280934066E+03  0.39281894367E+03  0.88112037820E+02 0.  0.
    9000005    2    3    3    0    0  0.46157680339E+01 -0.10872920258E+02 -0.38060003677E+03  0.38080200841E+03  0.37756992598E+01 0.  0.
         22    1    3    3    0    0 -0.46157680339E+01  0.10872920258E+02 -0.22093038882E+01  0.12016935264E+02  0.00000000000E+00 0. -1.
         22    1    4    4    0    0  0.36362408504E+01 -0.10020497306E+02 -0.29576960268E+03  0.29596163685E+03  0.00000000000E+00 0.  1.
         22    1    4    4    0    0  0.97952718358E+00 -0.85242295205E+00 -0.84830434090E+02  0.84840371559E+02  0.00000000000E+00 0.  1.
<mgrwt>
<rscale>  0 0.88112038E+02</rscale>
<asrwt>0</asrwt>
<pdfrwt beam="1">  1        2 0.76996977E-03 0.88112038E+02</pdfrwt>
<pdfrwt beam="2">  1       -2 0.59663690E-01 0.88112038E+02</pdfrwt>
<totfact> 0.47606190E+04</totfact>
</mgrwt>
</event>
<event>
 7    1  0.3960685E-009  0.9003798E+02  0.7818608E-02  0.1302760E+00
         -2   -1    0    0    0  501 -0.00000000000E+00  0.00000000000E+00  0.25781439621E+02  0.25781439748E+02  0.25500000000E-02 0.  1.
          2   -1    0    0  501    0  0.00000000000E+00 -0.00000000000E+00 -0.78611181129E+02  0.78611181170E+02  0.25500000000E-02 0. -1.
         23    2    1    2    0    0 -0.35527136788E-14  0.00000000000E+00 -0.52829741507E+02  0.10439262092E+03  0.90037979288E+02 0.  0.
    9000005    2    3    3    0    0  0.27363803446E+02  0.94057158828E+01 -0.65874384278E+02  0.72652930697E+02  0.10088042656E+02 0.  0.
         22    1    3    3    0    0 -0.27363803446E+02 -0.94057158828E+01  0.13044642771E+02  0.31739690220E+02  0.00000000000E+00 0.  1.
         22    1    4    4    0    0  0.92702748780E+01  0.78075883841E+01 -0.21079618595E+02  0.24315566060E+02  0.00000000000E+00 0.  1.
         22    1    4    4    0    0  0.18093528568E+02  0.15981274987E+01 -0.44794765683E+02  0.48337364638E+02  0.00000000000E+00 0.  1.
<mgrwt>
<rscale>  0 0.90037979E+02</rscale>
<asrwt>0</asrwt>
<pdfrwt beam="2">  1        2 0.12094028E-01 0.90037979E+02</pdfrwt>
<pdfrwt beam="1">  1       -2 0.39663754E-02 0.90037979E+02</pdfrwt>
<totfact> 0.11834211E+05</totfact>
</mgrwt>
</event>
<event>
 7    1  0.3960685E-009  0.9073828E+02  0.7818608E-02  0.1301074E+00
         -2   -1    0    0    0  501 -0.00000000000E+00  0.00000000000E+00  0.52516483421E+03  0.52516483422E+03  0.25500000000E-02 0.  1.
          2   -1    0    0  501    0  0.00000000000E+00 -0.00000000000E+00 -0.39194522384E+01  0.39194530679E+01  0.25500000000E-02 0. -1.
         23    2    1    2    0    0  0.00000000000E+00 -0.17763568394E-14  0.52124538197E+03  0.52908428728E+03  0.90738276511E+02 0.  0.
    9000005    2    3    3    0    0  0.38236295041E+02  0.13183697493E+02  0.38041124830E+03  0.38255757523E+03  0.13252907045E+01 0.  0.
         22    1    3    3    0    0 -0.38236295041E+02 -0.13183697493E+02  0.14083413367E+03  0.14652671205E+03  0.00000000000E+00 0. -1.
         22    1    4    4    0    0  0.59742728684E+01  0.16651742923E+01  0.61184098002E+02  0.61497630767E+02  0.00000000000E+00 0. -1.
         22    1    4    4    0    0  0.32262022172E+02  0.11518523201E+02  0.31922715030E+03  0.32105994446E+03  0.00000000000E+00 0. -1.
<mgrwt>
<rscale>  0 0.90738277E+02</rscale>
<asrwt>0</asrwt>
<pdfrwt beam="2">  1        2 0.60299306E-03 0.90738277E+02</pdfrwt>
<pdfrwt beam="1">  1       -2 0.80794544E-01 0.90738277E+02</pdfrwt>
<totfact> 0.35363147E+04</totfact>
</mgrwt>
</event>
<event>
 7    1  0.3960685E-009  0.9526761E+02  0.7818608E-02  0.1290574E+00
          2   -1    0    0  501    0  0.00000000000E+00  0.00000000000E+00  0.34053193717E+03  0.34053193718E+03  0.25500000000E-02 0.  1.
         -2   -1    0    0    0  501 -0.00000000000E+00 -0.00000000000E+00 -0.66630444808E+01  0.66630449687E+01  0.25500000000E-02 0. -1.
         23    2    1    2    0    0  0.71054273576E-14  0.00000000000E+00  0.33386889269E+03  0.34719498215E+03  0.95267613193E+02 0.  0.
    9000005    2    3    3    0    0 -0.44669084399E+02  0.63628420944E+01  0.21100668442E+03  0.21630978405E+03  0.15175274138E+02 0.  0.
         22    1    3    3    0    0  0.44669084399E+02 -0.63628420944E+01  0.12286220827E+03  0.13088519810E+03  0.00000000000E+00 0.  1.
         22    1    4    4    0    0 -0.45745485887E+02  0.62288265054E+01  0.20889383600E+03  0.21393476220E+03  0.00000000000E+00 0.  1.
         22    1    4    4    0    0  0.10764014881E+01  0.13401558897E+00  0.21128484194E+01  0.23750218494E+01  0.00000000000E+00 0.  1.
<mgrwt>
<rscale>  0 0.95267613E+02</rscale>
<asrwt>0</asrwt>
<pdfrwt beam="1">  1        2 0.52389532E-01 0.95267613E+02</pdfrwt>
<pdfrwt beam="2">  1       -2 0.10250837E-02 0.95267613E+02</pdfrwt>
<totfact> 0.16747411E+05</totfact>
</mgrwt>
</event>
<event>
 7    1  0.3960685E-009  0.9013361E+02  0.7818608E-02  0.1302528E+00
          2   -1    0    0  501    0  0.00000000000E+00  0.00000000000E+00  0.35299248856E+03  0.35299248857E+03  0.25500000000E-02 0.  1.
         -2   -1    0    0    0  501 -0.00000000000E+00 -0.00000000000E+00 -0.57537116121E+01  0.57537121772E+01  0.25500000000E-02 0. -1.
         23    2    1    2    0    0  0.33306690739E-15  0.00000000000E+00  0.34723877694E+03  0.35874620074E+03  0.90133613783E+02 0.  0.
    9000005    2    3    3    0    0  0.63528528669E+00 -0.35613472142E+02  0.28123012550E+03  0.28374043396E+03  0.12228139217E+02 0.  0.
         22    1    3    3    0    0 -0.63528528669E+00  0.35613472142E+02  0.66008651440E+02  0.75005766780E+02  0.00000000000E+00 0. -1.
         22    1    4    4    0    0 -0.26349375276E+01 -0.32608712764E+02  0.26004827709E+03  0.26209803025E+03  0.00000000000E+00 0. -1.
         22    1    4    4    0    0  0.32702228143E+01 -0.30047593772E+01  0.21181848411E+02  0.21642403708E+02  0.00000000000E+00 0. -1.
<mgrwt>
<rscale>  0 0.90133614E+02</rscale>
<asrwt>0</asrwt>
<pdfrwt beam="1">  1        2 0.54306534E-01 0.90133614E+02</pdfrwt>
<pdfrwt beam="2">  1       -2 0.88518648E-03 0.90133614E+02</pdfrwt>
<totfact> 0.19671447E+05</totfact>
</mgrwt>
</event>
<event>
 7    1  0.3960685E-009  0.9092396E+02  0.7818608E-02  0.1300629E+00
          2   -1    0    0  501    0  0.00000000000E+00  0.00000000000E+00  0.10490160491E+03  0.10490160494E+03  0.25500000000E-02 0. -1.
         -2   -1    0    0    0  501 -0.00000000000E+00 -0.00000000000E+00 -0.19702192395E+02  0.19702192560E+02  0.25500000000E-02 0.  1.
         23    2    1    2    0    0  0.35527136788E-14 -0.35527136788E-14  0.85199412514E+02  0.12460379750E+03  0.90923959762E+02 0.  0.
    9000005    2    3    3    0    0  0.25660660622E+02 -0.28983573559E+02  0.72756693623E+02  0.83942534691E+02  0.15946649291E+02 0.  0.
         22    1    3    3    0    0 -0.25660660622E+02  0.28983573559E+02  0.12442718891E+02  0.40661262809E+02  0.00000000000E+00 0.  1.
         22    1    4    4    0    0  0.13462010668E+02 -0.21629959523E+02  0.32860617115E+02  0.41580055765E+02  0.00000000000E+00 0. -1.
         22    1    4    4    0    0  0.12198649954E+02 -0.73536140359E+01  0.39896076508E+02  0.42362478927E+02  0.00000000000E+00 0. -1.
<mgrwt>
<rscale>  0 0.90923960E+02</rscale>
<asrwt>0</asrwt>
<pdfrwt beam="1">  1        2 0.16138709E-01 0.90923960E+02</pdfrwt>
<pdfrwt beam="2">  1       -2 0.30311065E-02 0.90923960E+02</pdfrwt>
<totfact> 0.12544271E+05</totfact>
</mgrwt>
</event>
<event>
 7    1  0.3960685E-009  0.9139826E+02  0.7818608E-02  0.1299500E+00
          2   -1    0    0  501    0  0.00000000000E+00  0.00000000000E+00  0.99160738514E+02  0.99160738547E+02  0.25500000000E-02 0. -1.
         -2   -1    0    0    0  501 -0.00000000000E+00 -0.00000000000E+00 -0.21060862470E+02  0.21060862625E+02  0.25500000000E-02 0.  1.
         23    2    1    2    0    0  0.00000000000E+00  0.00000000000E+00  0.78099876044E+02  0.12022160117E+03  0.91398264481E+02 0.  0.
    9000005    2    3    3    0    0  0.10342582820E+02  0.19498446867E+02  0.91681348418E+02  0.94306068349E+02  0.10032099112E+01 0.  0.
         22    1    3    3    0    0 -0.10342582820E+02 -0.19498446867E+02 -0.13581472374E+02  0.25915532822E+02  0.00000000000E+00 0.  1.
         22    1    4    4    0    0  0.21554525340E+01  0.40760749180E+01  0.20949253126E+02  0.21450677586E+02  0.00000000000E+00 0. -1.
         22    1    4    4    0    0  0.81871302861E+01  0.15422371949E+02  0.70732095292E+02  0.72855390763E+02  0.00000000000E+00 0. -1.
<mgrwt>
<rscale>  0 0.91398264E+02</rscale>
<asrwt>0</asrwt>
<pdfrwt beam="1">  1        2 0.15255499E-01 0.91398264E+02</pdfrwt>
<pdfrwt beam="2">  1       -2 0.32401326E-02 0.91398264E+02</pdfrwt>
<totfact> 0.12154658E+05</totfact>
</mgrwt>
</event>
<event>
 7    1  0.3960685E-009  0.9118015E+02  0.7818608E-02  0.1300019E+00
         -2   -1    0    0    0  501 -0.00000000000E+00  0.00000000000E+00  0.26320380798E+02  0.26320380922E+02  0.25500000000E-02 0.  1.
          2   -1    0    0  501    0  0.00000000000E+00 -0.00000000000E+00 -0.78967505599E+02  0.78967505640E+02  0.25500000000E-02 0. -1.
         23    2    1    2    0    0  0.00000000000E+00  0.00000000000E+00 -0.52647124801E+02  0.10528788656E+03  0.91180147548E+02 0.  0.
    9000005    2    3    3    0    0  0.24658532678E+02 -0.13823353681E+02  0.14303026125E+02  0.32614294042E+02  0.77451454930E+01 0.  0.
         22    1    3    3    0    0 -0.24658532678E+02  0.13823353681E+02 -0.66950150926E+02  0.72673592520E+02  0.00000000000E+00 0. -1.
         22    1    4    4    0    0  0.11421636082E+02 -0.41915752725E+01  0.24688605869E+01  0.12414441053E+02  0.00000000000E+00 0.  1.
         22    1    4    4    0    0  0.13236896595E+02 -0.96317784088E+01  0.11834165538E+02  0.20199852989E+02  0.00000000000E+00 0.  1.
<mgrwt>
<rscale>  0 0.91180148E+02</rscale>
<asrwt>0</asrwt>
<pdfrwt beam="2">  1        2 0.12148847E-01 0.91180148E+02</pdfrwt>
<pdfrwt beam="1">  1       -2 0.40492894E-02 0.91180148E+02</pdfrwt>
<totfact> 0.11441889E+05</totfact>
</mgrwt>
</event>
<event>
 6    1  0.4193528E-009  0.2199464E+03  0.7818608E-02  0.1133923E+00
          2   -1    0    0  501    0  0.00000000000E+00  0.00000000000E+00  0.74733439726E+03  0.74733439726E+03  0.25500000000E-02 0. -1.
         -2   -1    0    0    0  501 -0.00000000000E+00 -0.00000000000E+00 -0.16182995688E+02  0.16182995889E+02  0.25500000000E-02 0.  1.
    9000005    2    1    2    0    0  0.57260939537E+02 -0.92653199560E+02  0.32324674316E+03  0.34132118173E+03  0.12176269931E+02 0.  0.
         22    1    1    2    0    0 -0.57260939537E+02  0.92653199560E+02  0.40790465841E+03  0.42219621142E+03  0.00000000000E+00 0. -1.
         22    1    3    3    0    0  0.11385625907E+02 -0.28703380474E+02  0.88480755394E+02  0.93714249733E+02  0.00000000000E+00 0. -1.
         22    1    3    3    0    0  0.45875313629E+02 -0.63949819085E+02  0.23476598776E+03  0.24760693199E+03  0.00000000000E+00 0. -1.
<mgrwt>
<rscale>  0 0.21994644E+03</rscale>
<asrwt>0</asrwt>
<pdfrwt beam="1">  1        2 0.11497449E+00 0.21994644E+03</pdfrwt>
<pdfrwt beam="2">  1       -2 0.24896925E-02 0.21994644E+03</pdfrwt>
<totfact> 0.21226984E+04</totfact>
</mgrwt>
</event>
<event>
 7    1  0.3960685E-009  0.9407030E+02  0.7818608E-02  0.1293284E+00
          2   -1    0    0  501    0  0.00000000000E+00  0.00000000000E+00  0.59132083489E+02  0.59132083544E+02  0.25500000000E-02 0. -1.
         -2   -1    0    0    0  501 -0.00000000000E+00 -0.00000000000E+00 -0.37412944116E+02  0.37412944202E+02  0.25500000000E-02 0.  1.
         23    2    1    2    0    0  0.00000000000E+00  0.00000000000E+00  0.21719139374E+02  0.96545027747E+02  0.94070300135E+02 0.  0.
    9000005    2    3    3    0    0 -0.38310985766E+02  0.22794557481E+02 -0.31234758274E+01  0.45510931192E+02  0.86119263573E+01 0.  0.
         22    1    3    3    0    0  0.38310985766E+02 -0.22794557481E+02  0.24842615201E+02  0.51034096555E+02  0.00000000000E+00 0. -1.
         22    1    4    4    0    0 -0.21050260381E+02  0.75373799881E+01 -0.19484205106E+01  0.22443749725E+02  0.00000000000E+00 0. -1.
         22    1    4    4    0    0 -0.17260725385E+02  0.15257177493E+02 -0.11750553168E+01  0.23067181467E+02  0.00000000000E+00 0. -1.
<mgrwt>
<rscale>  0 0.94070300E+02</rscale>
<asrwt>0</asrwt>
<pdfrwt beam="1">  1        2 0.90972436E-02 0.94070300E+02</pdfrwt>
<pdfrwt beam="2">  1       -2 0.57558376E-02 0.94070300E+02</pdfrwt>
<totfact> 0.96704921E+04</totfact>
</mgrwt>
</event>
<event>
 7    1  0.3960685E-009  0.9531818E+02  0.7818608E-02  0.1290461E+00
          2   -1    0    0  501    0  0.00000000000E+00  0.00000000000E+00  0.27875400448E+03  0.27875400449E+03  0.25500000000E-02 0. -1.
         -2   -1    0    0    0  501 -0.00000000000E+00 -0.00000000000E+00 -0.81483634678E+01  0.81483638668E+01  0.25500000000E-02 0.  1.
         23    2    1    2    0    0  0.71054273576E-14  0.00000000000E+00  0.27060564101E+03  0.28690236836E+03  0.95318183061E+02 0.  0.
    9000005    2    3    3    0    0  0.39932263655E+02  0.86480445344E+01  0.64035682851E+02  0.76330475719E+02  0.75098928379E+01 0.  0.
         22    1    3    3    0    0 -0.39932263655E+02 -0.86480445344E+01  0.20656995816E+03  0.21057189264E+03  0.00000000000E+00 0. -1.
         22    1    4    4    0    0 -0.95733387783E-01  0.38013989978E+00  0.37388135465E-01  0.39378813798E+00  0.00000000000E+00 0. -1.
         22    1    4    4    0    0  0.40027997043E+02  0.82679046346E+01  0.63998294715E+02  0.75936687581E+02  0.00000000000E+00 0. -1.
<mgrwt>
<rscale>  0 0.95318183E+02</rscale>
<asrwt>0</asrwt>
<pdfrwt beam="1">  1        2 0.42885230E-01 0.95318183E+02</pdfrwt>
<pdfrwt beam="2">  1       -2 0.12535945E-02 0.95318183E+02</pdfrwt>
<totfact> 0.15518540E+05</totfact>
</mgrwt>
</event>
<event>
 7    1  0.3960685E-009  0.9152951E+02  0.7818608E-02  0.1299189E+00
         -2   -1    0    0    0  501 -0.00000000000E+00  0.00000000000E+00  0.74682063447E+01  0.74682067801E+01  0.25500000000E-02 0.  1.
          2   -1    0    0  501    0  0.00000000000E+00 -0.00000000000E+00 -0.28044389972E+03  0.28044389974E+03  0.25500000000E-02 0. -1.
         23    2    1    2    0    0  0.71054273576E-14 -0.17763568394E-14 -0.27297569338E+03  0.28791210652E+03  0.91529513833E+02 0.  0.
    9000005    2    3    3    0    0  0.40739136437E+02 -0.12010443331E+02 -0.92373103581E+02  0.10238253090E+03  0.12060861555E+02 0.  0.
         22    1    3    3    0    0 -0.40739136437E+02  0.12010443331E+02 -0.18060258980E+03  0.18552957562E+03  0.00000000000E+00 0.  1.
         22    1    4    4    0    0  0.41136111352E+02 -0.12623946828E+02 -0.91992376492E+02  0.10155855958E+03  0.00000000000E+00 0. -1.
         22    1    4    4    0    0 -0.39697491447E+00  0.61350349707E+00 -0.38072708891E+00  0.82397132223E+00  0.00000000000E+00 0. -1.
<mgrwt>
<rscale>  0 0.91529514E+02</rscale>
<asrwt>0</asrwt>
<pdfrwt beam="2">  1        2 0.43145207E-01 0.91529514E+02</pdfrwt>
<pdfrwt beam="1">  1       -2 0.11489551E-02 0.91529514E+02</pdfrwt>
<totfact> 0.17340121E+05</totfact>
</mgrwt>
</event>
<event>
 7    1  0.3960685E-009  0.9079323E+02  0.7818608E-02  0.1300942E+00
         -2   -1    0    0    0  501 -0.00000000000E+00  0.00000000000E+00  0.78257746268E+01  0.78257750423E+01  0.25500000000E-02 0.  1.
          2   -1    0    0  501    0  0.00000000000E+00 -0.00000000000E+00 -0.26334165725E+03  0.26334165726E+03  0.25500000000E-02 0. -1.
         23    2    1    2    0    0  0.00000000000E+00  0.00000000000E+00 -0.25551588262E+03  0.27116743230E+03  0.90793227005E+02 0.  0.
    9000005    2    3    3    0    0 -0.17507429728E+02 -0.30348828484E+02 -0.47851532335E+02  0.60568182860E+02  0.12295289426E+02 0.  0.
         22    1    3    3    0    0  0.17507429728E+02  0.30348828484E+02 -0.20766435029E+03  0.21059924944E+03  0.00000000000E+00 0. -1.
         22    1    4    4    0    0 -0.15704492493E+02 -0.29416846557E+02 -0.38207343582E+02  0.50712750363E+02  0.00000000000E+00 0.  1.
         22    1    4    4    0    0 -0.18029372353E+01 -0.93198192723E+00 -0.96441887531E+01  0.98554324964E+01  0.00000000000E+00 0.  1.
<mgrwt>
<rscale>  0 0.90793227E+02</rscale>
<asrwt>0</asrwt>
<pdfrwt beam="2">  1        2 0.40514094E-01 0.90793227E+02</pdfrwt>
<pdfrwt beam="1">  1       -2 0.12039656E-02 0.90793227E+02</pdfrwt>
<totfact> 0.17307518E+05</totfact>
</mgrwt>
</event>
<event>
 7    1  0.3960685E-009  0.9091921E+02  0.7818608E-02  0.1300641E+00
         -2   -1    0    0    0  501 -0.00000000000E+00  0.00000000000E+00  0.49357404745E+01  0.49357411333E+01  0.25500000000E-02 0.  1.
          2   -1    0    0  501    0  0.00000000000E+00 -0.00000000000E+00 -0.41869611945E+03  0.41869611946E+03  0.25500000000E-02 0. -1.
         23    2    1    2    0    0  0.00000000000E+00  0.00000000000E+00 -0.41376037897E+03  0.42363186059E+03  0.90919206430E+02 0.  0.
    9000005    2    3    3    0    0  0.87818342767E+01  0.40705829762E+02 -0.28695281079E+03  0.29016184696E+03  0.10858021022E+02 0.  0.
         22    1    3    3    0    0 -0.87818342767E+01 -0.40705829762E+02 -0.12680756819E+03  0.13347001363E+03  0.00000000000E+00 0. -1.
         22    1    4    4    0    0  0.76370611236E+01  0.11628732166E+02 -0.97280755117E+02  0.98270531852E+02  0.00000000000E+00 0. -1.
         22    1    4    4    0    0  0.11447731531E+01  0.29077097595E+02 -0.18967205567E+03  0.19189131511E+03  0.00000000000E+00 0. -1.
<mgrwt>
<rscale>  0 0.90919206E+02</rscale>
<asrwt>0</asrwt>
<pdfrwt beam="2">  1        2 0.64414760E-01 0.90919206E+02</pdfrwt>
<pdfrwt beam="1">  1       -2 0.75934507E-03 0.90919206E+02</pdfrwt>
<totfact> 0.20441743E+05</totfact>
</mgrwt>
</event>
<event>
 7    1  0.3960685E-009  0.8719708E+02  0.7818608E-02  0.1309785E+00
          2   -1    0    0  501    0  0.00000000000E+00  0.00000000000E+00  0.13819975703E+02  0.13819975938E+02  0.25500000000E-02 0. -1.
         -2   -1    0    0    0  501 -0.00000000000E+00 -0.00000000000E+00 -0.13754241354E+03  0.13754241356E+03  0.25500000000E-02 0.  1.
         23    2    1    2    0    0  0.00000000000E+00  0.00000000000E+00 -0.12372243783E+03  0.15136238950E+03  0.87197083271E+02 0.  0.
    9000005    2    3    3    0    0  0.18452896778E+02 -0.39026835829E+02 -0.57940818620E+02  0.72680595284E+02  0.78566630449E+01 0.  0.
         22    1    3    3    0    0 -0.18452896778E+02  0.39026835829E+02 -0.65781619213E+02  0.78681794213E+02  0.00000000000E+00 0.  1.
         22    1    4    4    0    0  0.16415371668E+02 -0.31240543014E+02 -0.42282655910E+02  0.55075030146E+02  0.00000000000E+00 0.  1.
         22    1    4    4    0    0  0.20375251099E+01 -0.77862928146E+01 -0.15658162710E+02  0.17605565138E+02  0.00000000000E+00 0.  1.
<mgrwt>
<rscale>  0 0.87197083E+02</rscale>
<asrwt>0</asrwt>
<pdfrwt beam="1">  1        2 0.21261502E-02 0.87197083E+02</pdfrwt>
<pdfrwt beam="2">  1       -2 0.21160370E-01 0.87197083E+02</pdfrwt>
<totfact> 0.80623629E+04</totfact>
</mgrwt>
</event>
<event>
 7    1  0.3960685E-009  0.8401429E+02  0.7818608E-02  0.1318031E+00
         -2   -1    0    0    0  501 -0.00000000000E+00  0.00000000000E+00  0.59323496048E+01  0.59323501528E+01  0.25500000000E-02 0.  1.
          2   -1    0    0  501    0  0.00000000000E+00 -0.00000000000E+00 -0.29745386126E+03  0.29745386127E+03  0.25500000000E-02 0. -1.
         23    2    1    2    0    0  0.00000000000E+00  0.00000000000E+00 -0.29152151166E+03  0.30338621143E+03  0.84014293572E+02 0.  0.
    9000005    2    3    3    0    0 -0.34261955464E+02 -0.22154264606E+02 -0.12332804226E+03  0.13031473434E+03  0.10364890077E+02 0.  0.
         22    1    3    3    0    0  0.34261955464E+02  0.22154264606E+02 -0.16819346940E+03  0.17307147708E+03  0.00000000000E+00 0. -1.
         22    1    4    4    0    0 -0.11987232714E+02 -0.39115659011E+01 -0.49241533889E+02  0.50830333028E+02  0.00000000000E+00 0. -1.
         22    1    4    4    0    0 -0.22274722749E+02 -0.18242698704E+02 -0.74086508372E+02  0.79484401315E+02  0.00000000000E+00 0. -1.
<mgrwt>
<rscale>  0 0.84014294E+02</rscale>
<asrwt>0</asrwt>
<pdfrwt beam="2">  1        2 0.45762121E-01 0.84014294E+02</pdfrwt>
<pdfrwt beam="1">  1       -2 0.91266945E-03 0.84014294E+02</pdfrwt>
<totfact> 0.22254557E+05</totfact>
</mgrwt>
</event>
<event>
 7    1  0.3960685E-009  0.9052403E+02  0.7818608E-02  0.1301588E+00
         -2   -1    0    0    0  501 -0.00000000000E+00  0.00000000000E+00  0.56019835842E+02  0.56019835900E+02  0.25500000000E-02 0.  1.
          2   -1    0    0  501    0  0.00000000000E+00 -0.00000000000E+00 -0.36570080073E+02  0.36570080162E+02  0.25500000000E-02 0. -1.
         23    2    1    2    0    0  0.35527136788E-14  0.22204460493E-15  0.19449755770E+02  0.92589916062E+02  0.90524027511E+02 0.  0.
    9000005    2    3    3    0    0  0.31012631288E+02  0.13901493058E+01  0.42696627190E+02  0.53806764496E+02  0.10413938622E+02 0.  0.
         22    1    3    3    0    0 -0.31012631288E+02 -0.13901493058E+01 -0.23246871420E+02  0.38783151566E+02  0.00000000000E+00 0. -1.
         22    1    4    4    0    0  0.29460004678E+02  0.34006136155E+01  0.41478929103E+02  0.50989779448E+02  0.00000000000E+00 0. -1.
         22    1    4    4    0    0  0.15526266104E+01 -0.20104643098E+01  0.12176980866E+01  0.28169850483E+01  0.00000000000E+00 0. -1.
<mgrwt>
<rscale>  0 0.90524028E+02</rscale>
<asrwt>0</asrwt>
<pdfrwt beam="2">  1        2 0.56261662E-02 0.90524028E+02</pdfrwt>
<pdfrwt beam="1">  1       -2 0.86184363E-02 0.90524028E+02</pdfrwt>
<totfact> 0.95168389E+04</totfact>
</mgrwt>
</event>
<event>
 7    1  0.3960685E-009  0.1047826E+03  0.7818608E-02  0.1270549E+00
          2   -1    0    0  501    0  0.00000000000E+00  0.00000000000E+00  0.28271532514E+03  0.28271532515E+03  0.25500000000E-02 0. -1.
         -2   -1    0    0    0  501 -0.00000000000E+00 -0.00000000000E+00 -0.97088738937E+01  0.97088742286E+01  0.25500000000E-02 0.  1.
         23    2    1    2    0    0  0.00000000000E+00 -0.44408920985E-15  0.27300645124E+03  0.29242419938E+03  0.10478258424E+03 0.  0.
    9000005    2    3    3    0    0 -0.32467976798E+02  0.32778112678E+01  0.25008610158E+03  0.25254618547E+03  0.13099772160E+02 0.  0.
         22    1    3    3    0    0  0.32467976798E+02 -0.32778112678E+01  0.22920349664E+02  0.39878013903E+02  0.00000000000E+00 0.  1.
         22    1    4    4    0    0 -0.11913488893E+02  0.75461721471E+01  0.10833102081E+03  0.10924507312E+03  0.00000000000E+00 0. -1.
         22    1    4    4    0    0 -0.20554487905E+02 -0.42683608793E+01  0.14175508077E+03  0.14330111235E+03  0.00000000000E+00 0. -1.
<mgrwt>
<rscale>  0 0.10478258E+03</rscale>
<asrwt>0</asrwt>
<pdfrwt beam="1">  1        2 0.43494661E-01 0.10478258E+03</pdfrwt>
<pdfrwt beam="2">  1       -2 0.14936731E-02 0.10478258E+03</pdfrwt>
<totfact> 0.12082542E+05</totfact>
</mgrwt>
</event>
<event>
 7    1  0.3960685E-009  0.9224496E+02  0.7818608E-02  0.1297505E+00
         -2   -1    0    0    0  501 -0.00000000000E+00  0.00000000000E+00  0.21779431411E+02  0.21779431560E+02  0.25500000000E-02 0.  1.
          2   -1    0    0  501    0  0.00000000000E+00 -0.00000000000E+00 -0.97673944414E+02  0.97673944448E+02  0.25500000000E-02 0. -1.
         23    2    1    2    0    0  0.00000000000E+00  0.71054273576E-14 -0.75894513004E+02  0.11945337601E+03  0.92244956152E+02 0.  0.
    9000005    2    3    3    0    0  0.11387042472E+02 -0.42408035967E+02 -0.53170310897E+02  0.70011535303E+02  0.12100696829E+02 0.  0.
         22    1    3    3    0    0 -0.11387042472E+02  0.42408035967E+02 -0.22724202107E+02  0.49441840705E+02  0.00000000000E+00 0.  1.
         22    1    4    4    0    0  0.13465216510E+02 -0.28958884290E+02 -0.36985700062E+02  0.48865847420E+02  0.00000000000E+00 0. -1.
         22    1    4    4    0    0 -0.20781740380E+01 -0.13449151677E+02 -0.16184610835E+02  0.21145687883E+02  0.00000000000E+00 0. -1.
<mgrwt>
<rscale>  0 0.92244956E+02</rscale>
<asrwt>0</asrwt>
<pdfrwt beam="2">  1        2 0.15026760E-01 0.92244956E+02</pdfrwt>
<pdfrwt beam="1">  1       -2 0.33506818E-02 0.92244956E+02</pdfrwt>
<totfact> 0.11794927E+05</totfact>
</mgrwt>
</event>
<event>
 7    1  0.3960685E-009  0.9490131E+02  0.7818608E-02  0.1291399E+00
          2   -1    0    0  501    0  0.00000000000E+00  0.00000000000E+00  0.87985174322E+01  0.87985178018E+01  0.25500000000E-02 0. -1.
         -2   -1    0    0    0  501 -0.00000000000E+00 -0.00000000000E+00 -0.25590274154E+03  0.25590274155E+03  0.25500000000E-02 0.  1.
         23    2    1    2    0    0  0.00000000000E+00  0.00000000000E+00 -0.24710422411E+03  0.26470125935E+03  0.94901312593E+02 0.  0.
    9000005    2    3    3    0    0  0.12040896351E+02 -0.21428895892E+02 -0.23655909812E+03  0.23795466245E+03  0.76179860694E+01 0.  0.
         22    1    3    3    0    0 -0.12040896351E+02  0.21428895892E+02 -0.10545125985E+02  0.26746596907E+02  0.00000000000E+00 0. -1.
         22    1    4    4    0    0  0.67243468360E+01 -0.13282953580E+02 -0.10698393917E+03  0.10801489220E+03  0.00000000000E+00 0. -1.
         22    1    4    4    0    0  0.53165495153E+01 -0.81459423117E+01 -0.12957515895E+03  0.12993977025E+03  0.00000000000E+00 0. -1.
<mgrwt>
<rscale>  0 0.94901313E+02</rscale>
<asrwt>0</asrwt>
<pdfrwt beam="1">  1        2 0.13536183E-02 0.94901313E+02</pdfrwt>
<pdfrwt beam="2">  1       -2 0.39369647E-01 0.94901313E+02</pdfrwt>
<totfact> 0.50089826E+04</totfact>
</mgrwt>
</event>
<event>
 7    1  0.3960685E-009  0.9353847E+02  0.7818608E-02  0.1294502E+00
         -2   -1    0    0    0  501 -0.00000000000E+00  0.00000000000E+00  0.56607160487E+02  0.56607160545E+02  0.25500000000E-02 0.  1.
          2   -1    0    0  501    0  0.00000000000E+00 -0.00000000000E+00 -0.38641073043E+02  0.38641073127E+02  0.25500000000E-02 0. -1.
         23    2    1    2    0    0  0.00000000000E+00  0.17763568394E-14  0.17966087445E+02  0.95248233672E+02  0.93538471869E+02 0.  0.
    9000005    2    3    3    0    0 -0.35021657328E+02 -0.11310912098E+02 -0.18567196081E+02  0.43391372798E+02  0.13550544214E+02 0.  0.
         22    1    3    3    0    0  0.35021657328E+02  0.11310912098E+02  0.36533283526E+02  0.51856860874E+02  0.00000000000E+00 0.  1.
         22    1    4    4    0    0 -0.14337903916E+02  0.20579601275E+01 -0.53544070616E+01  0.15442809445E+02  0.00000000000E+00 0. -1.
         22    1    4    4    0    0 -0.20683753413E+02 -0.13368872226E+02 -0.13212789019E+02  0.27948563353E+02  0.00000000000E+00 0. -1.
<mgrwt>
<rscale>  0 0.93538472E+02</rscale>
<asrwt>0</asrwt>
<pdfrwt beam="2">  1        2 0.59447805E-02 0.93538472E+02</pdfrwt>
<pdfrwt beam="1">  1       -2 0.87087938E-02 0.93538472E+02</pdfrwt>
<totfact> 0.87747313E+04</totfact>
</mgrwt>
</event>
<event>
 7    1  0.3960685E-009  0.9119000E+02  0.7818608E-02  0.1299995E+00
          2   -1    0    0  501    0  0.00000000000E+00  0.00000000000E+00  0.50811751531E+03  0.50811751531E+03  0.25500000000E-02 0. -1.
         -2   -1    0    0    0  501 -0.00000000000E+00 -0.00000000000E+00 -0.40913841753E+01  0.40913849700E+01  0.25500000000E-02 0.  1.
         23    2    1    2    0    0  0.17763568394E-14 -0.35527136788E-14  0.50402613113E+03  0.51220890028E+03  0.91190003103E+02 0.  0.
    9000005    2    3    3    0    0  0.10612794232E+02 -0.18161804348E+02  0.47861576956E+03  0.47922149339E+03  0.11734662911E+02 0.  0.
         22    1    3    3    0    0 -0.10612794232E+02  0.18161804348E+02  0.25410361573E+02  0.32987406898E+02  0.00000000000E+00 0.  1.
         22    1    4    4    0    0  0.65476277449E+01 -0.24636016153E+01  0.21016203530E+03  0.21027843885E+03  0.00000000000E+00 0. -1.
         22    1    4    4    0    0  0.40651664871E+01 -0.15698202733E+02  0.26845373426E+03  0.26894305454E+03  0.00000000000E+00 0. -1.
<mgrwt>
<rscale>  0 0.91190003E+02</rscale>
<asrwt>0</asrwt>
<pdfrwt beam="1">  1        2 0.78171903E-01 0.91190003E+02</pdfrwt>
<pdfrwt beam="2">  1       -2 0.62944396E-03 0.91190003E+02</pdfrwt>
<totfact> 0.21653940E+05</totfact>
</mgrwt>
</event>
<event>
 7    1  0.3960685E-009  0.9412529E+02  0.7818608E-02  0.1293158E+00
         -2   -1    0    0    0  501 -0.00000000000E+00  0.00000000000E+00  0.17878725616E+02  0.17878725798E+02  0.25500000000E-02 0.  1.
          2   -1    0    0  501    0  0.00000000000E+00 -0.00000000000E+00 -0.12388424965E+03  0.12388424968E+03  0.25500000000E-02 0. -1.
         23    2    1    2    0    0 -0.35527136788E-14  0.00000000000E+00 -0.10600552403E+03  0.14176297547E+03  0.94125289320E+02 0.  0.
    9000005    2    3    3    0    0  0.23137995938E+02  0.39027533278E+02 -0.37843633953E+02  0.59881607208E+02  0.97545395202E+01 0.  0.
         22    1    3    3    0    0 -0.23137995938E+02 -0.39027533278E+02 -0.68161890080E+02  0.81881368266E+02  0.00000000000E+00 0. -1.
         22    1    4    4    0    0  0.17727556824E+02  0.23319925427E+02 -0.28257484807E+02  0.40700990657E+02  0.00000000000E+00 0.  1.
         22    1    4    4    0    0  0.54104391135E+01  0.15707607851E+02 -0.95861491454E+01  0.19180616550E+02  0.00000000000E+00 0.  1.
<mgrwt>
<rscale>  0 0.94125289E+02</rscale>
<asrwt>0</asrwt>
<pdfrwt beam="2">  1        2 0.19059115E-01 0.94125289E+02</pdfrwt>
<pdfrwt beam="1">  1       -2 0.27505733E-02 0.94125289E+02</pdfrwt>
<totfact> 0.12024995E+05</totfact>
</mgrwt>
</event>
<event>
 7    1  0.3960685E-009  0.9007238E+02  0.7818608E-02  0.1302677E+00
         -2   -1    0    0    0  501 -0.00000000000E+00  0.00000000000E+00  0.54557395132E+02  0.54557395191E+02  0.25500000000E-02 0.  1.
          2   -1    0    0  501    0  0.00000000000E+00 -0.00000000000E+00 -0.37176601902E+02  0.37176601989E+02  0.25500000000E-02 0. -1.
         23    2    1    2    0    0  0.00000000000E+00 -0.71054273576E-14  0.17380793230E+02  0.91733997180E+02  0.90072383478E+02 0.  0.
    9000005    2    3    3    0    0 -0.27877203163E+02 -0.33103802856E+02  0.15646741584E+02  0.48421098930E+02  0.15059285497E+02 0.  0.
         22    1    3    3    0    0  0.27877203163E+02  0.33103802856E+02  0.17340516462E+01  0.43312898250E+02  0.00000000000E+00 0.  1.
         22    1    4    4    0    0 -0.12476852002E+02 -0.86877337551E+01 -0.75021985832E+00  0.15222068963E+02  0.00000000000E+00 0. -1.
         22    1    4    4    0    0 -0.15400351161E+02 -0.24416069101E+02  0.16396961442E+02  0.33199029967E+02  0.00000000000E+00 0. -1.
<mgrwt>
<rscale>  0 0.90072383E+02</rscale>
<asrwt>0</asrwt>
<pdfrwt beam="2">  1        2 0.57194773E-02 0.90072383E+02</pdfrwt>
<pdfrwt beam="1">  1       -2 0.83934454E-02 0.90072383E+02</pdfrwt>
<totfact> 0.96971458E+04</totfact>
</mgrwt>
</event>
<event>
 7    1  0.3960685E-009  0.9002281E+02  0.7818608E-02  0.1302796E+00
          2   -1    0    0  501    0  0.00000000000E+00  0.00000000000E+00  0.15309362921E+03  0.15309362923E+03  0.25500000000E-02 0. -1.
         -2   -1    0    0    0  501 -0.00000000000E+00 -0.00000000000E+00 -0.13233906429E+02  0.13233906674E+02  0.25500000000E-02 0.  1.
         23    2    1    2    0    0  0.00000000000E+00  0.00000000000E+00  0.13985972278E+03  0.16632753590E+03  0.90022814574E+02 0.  0.
    9000005    2    3    3    0    0 -0.22022432876E+02  0.69825335143E+01  0.25023334661E+01  0.27040796682E+02  0.13827497546E+02 0.  0.
         22    1    3    3    0    0  0.22022432876E+02 -0.69825335143E+01  0.13735738931E+03  0.13928673922E+03  0.00000000000E+00 0. -1.
         22    1    4    4    0    0 -0.28974729938E+01 -0.20081461455E+01  0.46096304254E+01  0.58031623577E+01  0.00000000000E+00 0. -1.
         22    1    4    4    0    0 -0.19124959882E+02  0.89906796598E+01 -0.21072969593E+01  0.21237634324E+02  0.00000000000E+00 0. -1.
<mgrwt>
<rscale>  0 0.90022815E+02</rscale>
<asrwt>0</asrwt>
<pdfrwt beam="1">  1        2 0.23552865E-01 0.90022815E+02</pdfrwt>
<pdfrwt beam="2">  1       -2 0.20359857E-02 0.90022815E+02</pdfrwt>
<totfact> 0.14572824E+05</totfact>
</mgrwt>
</event>
<event>
 7    1  0.3960685E-009  0.9064957E+02  0.7818608E-02  0.1301286E+00
         -2   -1    0    0    0  501 -0.00000000000E+00  0.00000000000E+00  0.48967379754E+01  0.48967386393E+01  0.25500000000E-02 0. -1.
          2   -1    0    0  501    0  0.00000000000E+00 -0.00000000000E+00 -0.41953149431E+03  0.41953149431E+03  0.25500000000E-02 0.  1.
         23    2    1    2    0    0  0.11102230246E-15  0.00000000000E+00 -0.41463475633E+03  0.42442823295E+03  0.90649565748E+02 0.  0.
    9000005    2    3    3    0    0 -0.12377382489E+00 -0.43242992868E+02 -0.26438736340E+03  0.26808166013E+03  0.98552939310E+01 0.  0.
         22    1    3    3    0    0  0.12377382489E+00  0.43242992868E+02 -0.15024739293E+03  0.15634657283E+03  0.00000000000E+00 0. -1.
         22    1    4    4    0    0 -0.49600069869E+01 -0.19544635890E+02 -0.12109971988E+03  0.12276700134E+03  0.00000000000E+00 0. -1.
         22    1    4    4    0    0  0.48362331620E+01 -0.23698356978E+02 -0.14328764352E+03  0.14531465879E+03  0.00000000000E+00 0. -1.
<mgrwt>
<rscale>  0 0.90649566E+02</rscale>
<asrwt>0</asrwt>
<pdfrwt beam="2">  1        2 0.64543278E-01 0.90649566E+02</pdfrwt>
<pdfrwt beam="1">  1       -2 0.75334469E-03 0.90649566E+02</pdfrwt>
<totfact> 0.20617758E+05</totfact>
</mgrwt>
</event>
<event>
 7    1  0.3960685E-009  0.8893517E+02  0.7818608E-02  0.1305451E+00
         -2   -1    0    0    0  501 -0.00000000000E+00  0.00000000000E+00  0.53397686944E+02  0.53397687005E+02  0.25500000000E-02 0.  1.
          2   -1    0    0  501    0  0.00000000000E+00 -0.00000000000E+00 -0.37030929157E+02  0.37030929245E+02  0.25500000000E-02 0. -1.
         23    2    1    2    0    0 -0.71054273576E-14  0.00000000000E+00  0.16366757788E+02  0.90428616250E+02  0.88935166702E+02 0.  0.
    9000005    2    3    3    0    0  0.33722714265E+02  0.32687488608E+01  0.36367416670E+02  0.51084842508E+02  0.11796862395E+02 0.  0.
         22    1    3    3    0    0 -0.33722714265E+02 -0.32687488608E+01 -0.20000658882E+02  0.39343773741E+02  0.00000000000E+00 0. -1.
         22    1    4    4    0    0  0.44385107889E+01 -0.22717137545E+01  0.10489512751E+02  0.11614255859E+02  0.00000000000E+00 0. -1.
         22    1    4    4    0    0  0.29284203476E+02  0.55404626152E+01  0.25877903918E+02  0.39470586649E+02  0.00000000000E+00 0. -1.
<mgrwt>
<rscale>  0 0.88935167E+02</rscale>
<asrwt>0</asrwt>
<pdfrwt beam="2">  1        2 0.56970660E-02 0.88935167E+02</pdfrwt>
<pdfrwt beam="1">  1       -2 0.82150288E-02 0.88935167E+02</pdfrwt>
<totfact> 0.10050885E+05</totfact>
</mgrwt>
</event>
<event>
 7    1  0.3960685E-009  0.9133623E+02  0.7818608E-02  0.1299648E+00
          2   -1    0    0  501    0  0.00000000000E+00  0.00000000000E+00  0.58907061983E+02  0.58907062039E+02  0.25500000000E-02 0. -1.
         -2   -1    0    0    0  501 -0.00000000000E+00 -0.00000000000E+00 -0.35404527861E+02  0.35404527953E+02  0.25500000000E-02 0.  1.
         23    2    1    2    0    0 -0.35527136788E-14  0.00000000000E+00  0.23502534122E+02  0.94311589991E+02  0.91336229923E+02 0.  0.
    9000005    2    3    3    0    0 -0.18487617733E+02 -0.14615772427E+02  0.51105249456E+02  0.58016649478E+02  0.14098662408E+02 0.  0.
         22    1    3    3    0    0  0.18487617733E+02  0.14615772427E+02 -0.27602715333E+02  0.36294940513E+02  0.00000000000E+00 0.  1.
         22    1    4    4    0    0  0.19775188158E+01 -0.65576524521E+00  0.83208527456E+01  0.85777152632E+01  0.00000000000E+00 0. -1.
         22    1    4    4    0    0 -0.20465136549E+02 -0.13960007182E+02  0.42784396710E+02  0.49438934215E+02  0.00000000000E+00 0. -1.
<mgrwt>
<rscale>  0 0.91336230E+02</rscale>
<asrwt>0</asrwt>
<pdfrwt beam="1">  1        2 0.90626249E-02 0.91336230E+02</pdfrwt>
<pdfrwt beam="2">  1       -2 0.54468505E-02 0.91336230E+02</pdfrwt>
<totfact> 0.10502844E+05</totfact>
</mgrwt>
</event>
<event>
 7    1  0.3960685E-009  0.9359746E+02  0.7818608E-02  0.1294367E+00
         -2   -1    0    0    0  501 -0.00000000000E+00  0.00000000000E+00  0.54732941974E+02  0.54732942033E+02  0.25500000000E-02 0.  1.
          2   -1    0    0  501    0  0.00000000000E+00 -0.00000000000E+00 -0.40014680021E+02  0.40014680103E+02  0.25500000000E-02 0. -1.
         23    2    1    2    0    0  0.00000000000E+00  0.35527136788E-14  0.14718261952E+02  0.94747622136E+02  0.93597460785E+02 0.  0.
    9000005    2    3    3    0    0 -0.30098809991E+02  0.31973776437E+02  0.20972282336E+02  0.50392537721E+02  0.13088563292E+02 0.  0.
         22    1    3    3    0    0  0.30098809991E+02 -0.31973776437E+02 -0.62540203835E+01  0.44355084415E+02  0.00000000000E+00 0. -1.
         22    1    4    4    0    0 -0.29981549240E+02  0.33116557831E+02  0.20425516308E+02  0.49120274978E+02  0.00000000000E+00 0. -1.
         22    1    4    4    0    0 -0.11726075019E+00 -0.11427813939E+01  0.54676602738E+00  0.12722627427E+01  0.00000000000E+00 0. -1.
<mgrwt>
<rscale>  0 0.93597461E+02</rscale>
<asrwt>0</asrwt>
<pdfrwt beam="2">  1        2 0.61561047E-02 0.93597461E+02</pdfrwt>
<pdfrwt beam="1">  1       -2 0.84204526E-02 0.93597461E+02</pdfrwt>
<totfact> 0.88399734E+04</totfact>
</mgrwt>
</event>
<event>
 7    1  0.3960685E-009  0.9190834E+02  0.7818608E-02  0.1298295E+00
         -2   -1    0    0    0  501 -0.00000000000E+00  0.00000000000E+00  0.89531723058E+01  0.89531726689E+01  0.25500000000E-02 0.  1.
          2   -1    0    0  501    0  0.00000000000E+00 -0.00000000000E+00 -0.23587009830E+03  0.23587009831E+03  0.25500000000E-02 0. -1.
         23    2    1    2    0    0  0.00000000000E+00 -0.17763568394E-14 -0.22691692600E+03  0.24482327098E+03  0.91908338643E+02 0.  0.
    9000005    2    3    3    0    0  0.21552448886E+02  0.10797002264E+02 -0.21704932092E+03  0.21877614176E+03  0.13096151400E+02 0.  0.
         22    1    3    3    0    0 -0.21552448886E+02 -0.10797002264E+02 -0.98676050788E+01  0.26047129225E+02  0.00000000000E+00 0.  1.
         22    1    4    4    0    0  0.21553491205E+02  0.56500991475E+01 -0.17470567554E+03  0.17612083826E+03  0.00000000000E+00 0. -1.
         22    1    4    4    0    0 -0.10423184171E-02  0.51469031168E+01 -0.42343645377E+02  0.42655303499E+02  0.00000000000E+00 0. -1.
<mgrwt>
<rscale>  0 0.91908339E+02</rscale>
<asrwt>0</asrwt>
<pdfrwt beam="2">  1        2 0.36287703E-01 0.91908339E+02</pdfrwt>
<pdfrwt beam="1">  1       -2 0.13774113E-02 0.91908339E+02</pdfrwt>
<totfact> 0.16080480E+05</totfact>
</mgrwt>
</event>
<event>
 7    1  0.3960685E-009  0.7316469E+02  0.7818608E-02  0.1349650E+00
          2   -1    0    0  501    0  0.00000000000E+00  0.00000000000E+00  0.47008696698E+03  0.47008696699E+03  0.25500000000E-02 0. -1.
         -2   -1    0    0    0  501 -0.00000000000E+00 -0.00000000000E+00 -0.28468512122E+01  0.28468523543E+01  0.25500000000E-02 0.  1.
         23    2    1    2    0    0  0.00000000000E+00  0.00000000000E+00  0.46724011577E+03  0.47293381935E+03  0.73164688846E+02 0.  0.
    9000005    2    3    3    0    0 -0.75270219211E+01  0.25781405237E+02  0.39309147705E+03  0.39407091591E+03  0.70456026248E+01 0.  0.
         22    1    3    3    0    0  0.75270219211E+01 -0.25781405237E+02  0.74148638718E+02  0.78862903438E+02  0.00000000000E+00 0.  1.
         22    1    4    4    0    0 -0.50677020318E+01  0.61633017167E+01  0.11910057839E+03  0.11936756538E+03  0.00000000000E+00 0.  1.
         22    1    4    4    0    0 -0.24593198893E+01  0.19618103520E+02  0.27399089867E+03  0.27470335053E+03  0.00000000000E+00 0.  1.
<mgrwt>
<rscale>  0 0.73164689E+02</rscale>
<asrwt>0</asrwt>
<pdfrwt beam="1">  1        2 0.72321042E-01 0.73164689E+02</pdfrwt>
<pdfrwt beam="2">  1       -2 0.43797738E-03 0.73164689E+02</pdfrwt>
<totfact> 0.37566878E+05</totfact>
</mgrwt>
</event>
<event>
 7    1  0.3960685E-009  0.9661006E+02  0.7818608E-02  0.1287590E+00
          2   -1    0    0  501    0  0.00000000000E+00  0.00000000000E+00  0.16852617653E+02  0.16852617846E+02  0.25500000000E-02 0.  1.
         -2   -1    0    0    0  501 -0.00000000000E+00 -0.00000000000E+00 -0.13845777754E+03  0.13845777756E+03  0.25500000000E-02 0. -1.
         23    2    1    2    0    0  0.00000000000E+00  0.00000000000E+00 -0.12160515989E+03  0.15531039541E+03  0.96610061644E+02 0.  0.
    9000005    2    3    3    0    0  0.12147391826E+02 -0.39161963215E+02 -0.22568024859E+02  0.48120971464E+02  0.11184527600E+02 0.  0.
         22    1    3    3    0    0 -0.12147391826E+02  0.39161963215E+02 -0.99037135027E+02  0.10718942394E+03  0.00000000000E+00 0. -1.
         22    1    4    4    0    0  0.12016773220E+02 -0.35925314392E+02 -0.16660467058E+02  0.41383598386E+02  0.00000000000E+00 0. -1.
         22    1    4    4    0    0  0.13061860604E+00 -0.32366488224E+01 -0.59075578013E+01  0.67373730782E+01  0.00000000000E+00 0. -1.
<mgrwt>
<rscale>  0 0.96610062E+02</rscale>
<asrwt>0</asrwt>
<pdfrwt beam="1">  1        2 0.25927105E-02 0.96610062E+02</pdfrwt>
<pdfrwt beam="2">  1       -2 0.21301196E-01 0.96610062E+02</pdfrwt>
<totfact> 0.62099290E+04</totfact>
</mgrwt>
</event>
<event>
 7    1  0.3960685E-009  0.8949580E+02  0.7818608E-02  0.1304077E+00
          2   -1    0    0  501    0  0.00000000000E+00  0.00000000000E+00  0.53468248239E+03  0.53468248239E+03  0.25500000000E-02 0. -1.
         -2   -1    0    0    0  501 -0.00000000000E+00 -0.00000000000E+00 -0.37449779356E+01  0.37449788038E+01  0.25500000000E-02 0.  1.
         23    2    1    2    0    0  0.00000000000E+00  0.00000000000E+00  0.53093750445E+03  0.53842746120E+03  0.89495795085E+02 0.  0.
    9000005    2    3    3    0    0  0.22796430830E+02 -0.18690559535E+02  0.46633159909E+03  0.46741381968E+03  0.11895555499E+02 0.  0.
         22    1    3    3    0    0 -0.22796430830E+02  0.18690559535E+02  0.64605905358E+02  0.71013641516E+02  0.00000000000E+00 0.  1.
         22    1    4    4    0    0  0.22489223281E+02 -0.16958346843E+02  0.37162375240E+03  0.37268963500E+03  0.00000000000E+00 0. -1.
         22    1    4    4    0    0  0.30720754936E+00 -0.17322126923E+01  0.94707846695E+02  0.94724184678E+02  0.00000000000E+00 0. -1.
<mgrwt>
<rscale>  0 0.89495795E+02</rscale>
<asrwt>0</asrwt>
<pdfrwt beam="1">  1        2 0.82258790E-01 0.89495795E+02</pdfrwt>
<pdfrwt beam="2">  1       -2 0.57615089E-03 0.89495795E+02</pdfrwt>
<totfact> 0.23123650E+05</totfact>
</mgrwt>
</event>
<event>
 7    1  0.3960685E-009  0.8931356E+02  0.7818608E-02  0.1304523E+00
          2   -1    0    0  501    0  0.00000000000E+00  0.00000000000E+00  0.16293986145E+02  0.16293986344E+02  0.25500000000E-02 0. -1.
         -2   -1    0    0    0  501 -0.00000000000E+00 -0.00000000000E+00 -0.12239042557E+03  0.12239042560E+03  0.25500000000E-02 0.  1.
         23    2    1    2    0    0  0.00000000000E+00 -0.17763568394E-14 -0.10609643942E+03  0.13868441194E+03  0.89313558078E+02 0.  0.
    9000005    2    3    3    0    0 -0.33025422659E+02 -0.82001770200E+01 -0.97830620637E+02  0.10366662781E+03  0.42447547567E+01 0.  0.
         22    1    3    3    0    0  0.33025422659E+02  0.82001770200E+01 -0.82658187883E+01  0.35017784128E+02  0.00000000000E+00 0. -1.
         22    1    4    4    0    0 -0.32966745479E+02 -0.78988182898E+01 -0.97447664608E+02  0.10317579646E+03  0.00000000000E+00 0.  1.
         22    1    4    4    0    0 -0.58677180084E-01 -0.30135873015E+00 -0.38295602823E+00  0.49083135113E+00  0.00000000000E+00 0.  1.
<mgrwt>
<rscale>  0 0.89313558E+02</rscale>
<asrwt>0</asrwt>
<pdfrwt beam="1">  1        2 0.25067672E-02 0.89313558E+02</pdfrwt>
<pdfrwt beam="2">  1       -2 0.18829296E-01 0.89313558E+02</pdfrwt>
<totfact> 0.78919994E+04</totfact>
</mgrwt>
</event>
<event>
 7    1  0.3960685E-009  0.8866028E+02  0.7818608E-02  0.1306129E+00
          2   -1    0    0  501    0  0.00000000000E+00  0.00000000000E+00  0.18702710094E+02  0.18702710268E+02  0.25500000000E-02 0. -1.
         -2   -1    0    0    0  501 -0.00000000000E+00 -0.00000000000E+00 -0.10507361543E+03  0.10507361546E+03  0.25500000000E-02 0.  1.
         23    2    1    2    0    0  0.00000000000E+00  0.00000000000E+00 -0.86370905336E+02  0.12377632573E+03  0.88660281537E+02 0.  0.
    9000005    2    3    3    0    0 -0.18586623447E+02 -0.38302480180E+02 -0.35616321927E+02  0.57530040579E+02  0.15120867112E+02 0.  0.
         22    1    3    3    0    0  0.18586623447E+02  0.38302480180E+02 -0.50754583409E+02  0.66246285150E+02  0.00000000000E+00 0. -1.
         22    1    4    4    0    0 -0.16823909279E+02 -0.21849245796E+02 -0.16057510382E+02  0.31910454478E+02  0.00000000000E+00 0. -1.
         22    1    4    4    0    0 -0.17627141682E+01 -0.16453234384E+02 -0.19558811545E+02  0.25619586101E+02  0.00000000000E+00 0. -1.
<mgrwt>
<rscale>  0 0.88660282E+02</rscale>
<asrwt>0</asrwt>
<pdfrwt beam="1">  1        2 0.28773401E-02 0.88660282E+02</pdfrwt>
<pdfrwt beam="2">  1       -2 0.16165171E-01 0.88660282E+02</pdfrwt>
<totfact> 0.84306220E+04</totfact>
</mgrwt>
</event>
<event>
 7    1  0.3960685E-009  0.8959957E+02  0.7818608E-02  0.1303824E+00
         -2   -1    0    0    0  501 -0.00000000000E+00  0.00000000000E+00  0.57709937901E+02  0.57709937958E+02  0.25500000000E-02 0.  1.
          2   -1    0    0  501    0  0.00000000000E+00 -0.00000000000E+00 -0.34777729824E+02  0.34777729918E+02  0.25500000000E-02 0. -1.
         23    2    1    2    0    0  0.71054273576E-14 -0.44408920985E-15  0.22932208077E+02  0.92487667876E+02  0.89599567754E+02 0.  0.
    9000005    2    3    3    0    0  0.32153322773E+02 -0.27922778654E+01  0.42693527328E+02  0.54644006325E+02  0.11027110709E+02 0.  0.
         22    1    3    3    0    0 -0.32153322773E+02  0.27922778654E+01 -0.19761319251E+02  0.37843661550E+02  0.00000000000E+00 0. -1.
         22    1    4    4    0    0  0.25829219151E+02  0.88435572385E+00  0.37988896531E+02  0.45946565777E+02  0.00000000000E+00 0.  1.
         22    1    4    4    0    0  0.63241036214E+01 -0.36766335893E+01  0.47046307966E+01  0.86974405486E+01  0.00000000000E+00 0.  1.
<mgrwt>
<rscale>  0 0.89599568E+02</rscale>
<asrwt>0</asrwt>
<pdfrwt beam="2">  1        2 0.53504200E-02 0.89599568E+02</pdfrwt>
<pdfrwt beam="1">  1       -2 0.88784520E-02 0.89599568E+02</pdfrwt>
<totfact> 0.96795416E+04</totfact>
</mgrwt>
</event>
<event>
 7    1  0.3960685E-009  0.9089377E+02  0.7818608E-02  0.1300702E+00
         -2   -1    0    0    0  501 -0.00000000000E+00  0.00000000000E+00  0.37511470112E+03  0.37511470113E+03  0.25500000000E-02 0.  1.
          2   -1    0    0  501    0  0.00000000000E+00 -0.00000000000E+00 -0.55061005531E+01  0.55061011436E+01  0.25500000000E-02 0. -1.
         23    2    1    2    0    0 -0.71054273576E-14 -0.88817841970E-15  0.36960860057E+03  0.38062080227E+03  0.90893770465E+02 0.  0.
    9000005    2    3    3    0    0  0.43874774722E+02  0.77508238990E+01  0.16620177687E+03  0.17239158469E+03  0.10524101365E+02 0.  0.
         22    1    3    3    0    0 -0.43874774722E+02 -0.77508238990E+01  0.20340682369E+03  0.20822921758E+03  0.00000000000E+00 0.  1.
         22    1    4    4    0    0  0.39356937289E+02  0.68453857935E+01  0.13294551976E+03  0.13881764673E+03  0.00000000000E+00 0.  1.
         22    1    4    4    0    0  0.45178374336E+01  0.90543810548E+00  0.33256257116E+02  0.33573937967E+02  0.00000000000E+00 0.  1.
<mgrwt>
<rscale>  0 0.90893770E+02</rscale>
<asrwt>0</asrwt>
<pdfrwt beam="2">  1        2 0.84709241E-03 0.90893770E+02</pdfrwt>
<pdfrwt beam="1">  1       -2 0.57709956E-01 0.90893770E+02</pdfrwt>
<totfact> 0.44908312E+04</totfact>
</mgrwt>
</event>
<event>
 7    1  0.3960685E-009  0.9111340E+02  0.7818608E-02  0.1300178E+00
         -2   -1    0    0    0  501 -0.00000000000E+00  0.00000000000E+00  0.13613891176E+02  0.13613891415E+02  0.25500000000E-02 0.  1.
          2   -1    0    0  501    0  0.00000000000E+00 -0.00000000000E+00 -0.15244816665E+03  0.15244816668E+03  0.25500000000E-02 0. -1.
         23    2    1    2    0    0  0.00000000000E+00  0.35527136788E-14 -0.13883427548E+03  0.16606205809E+03  0.91113396872E+02 0.  0.
    9000005    2    3    3    0    0 -0.31751550218E+01  0.26430939365E+02 -0.62008053416E+01  0.30783406539E+02  0.14159518570E+02 0.  0.
         22    1    3    3    0    0  0.31751550218E+01 -0.26430939365E+02 -0.13263347014E+03  0.13527865155E+03  0.00000000000E+00 0. -1.
         22    1    4    4    0    0 -0.37269758232E+01  0.25337391300E+02 -0.12036302828E+01  0.25638300890E+02  0.00000000000E+00 0. -1.
         22    1    4    4    0    0  0.55182080142E+00  0.10935480645E+01 -0.49971750588E+01  0.51451056486E+01  0.00000000000E+00 0. -1.
<mgrwt>
<rscale>  0 0.91113397E+02</rscale>
<asrwt>0</asrwt>
<pdfrwt beam="2">  1        2 0.23453563E-01 0.91113397E+02</pdfrwt>
<pdfrwt beam="1">  1       -2 0.20944449E-02 0.91113397E+02</pdfrwt>
<totfact> 0.14084911E+05</totfact>
</mgrwt>
</event>
<event>
 7    1  0.3960685E-009  0.9296951E+02  0.7818608E-02  0.1295816E+00
          2   -1    0    0  501    0  0.00000000000E+00  0.00000000000E+00  0.78525256530E+02  0.78525256571E+02  0.25500000000E-02 0. -1.
         -2   -1    0    0    0  501 -0.00000000000E+00 -0.00000000000E+00 -0.27517677172E+02  0.27517677290E+02  0.25500000000E-02 0.  1.
         23    2    1    2    0    0  0.00000000000E+00  0.00000000000E+00  0.51007579358E+02  0.10604293386E+03  0.92969514735E+02 0.  0.
    9000005    2    3    3    0    0 -0.21872643383E+02  0.38580955631E+02  0.13356322540E+02  0.47866307920E+02  0.12078469111E+02 0.  0.
         22    1    3    3    0    0  0.21872643383E+02 -0.38580955631E+02  0.37651256818E+02  0.58176625942E+02  0.00000000000E+00 0.  1.
         22    1    4    4    0    0 -0.22172752652E+01  0.47256613440E+01 -0.23000970632E+01  0.57042643031E+01  0.00000000000E+00 0.  1.
         22    1    4    4    0    0 -0.19655368118E+02  0.33855294287E+02  0.15656419603E+02  0.42162043617E+02  0.00000000000E+00 0.  1.
<mgrwt>
<rscale>  0 0.92969515E+02</rscale>
<asrwt>0</asrwt>
<pdfrwt beam="1">  1        2 0.12080809E-01 0.92969515E+02</pdfrwt>
<pdfrwt beam="2">  1       -2 0.42334888E-02 0.92969515E+02</pdfrwt>
<totfact> 0.10820978E+05</totfact>
</mgrwt>
</event>
<event>
 7    1  0.3960685E-009  0.9500828E+02  0.7818608E-02  0.1291157E+00
         -2   -1    0    0    0  501 -0.00000000000E+00  0.00000000000E+00  0.74460831242E+02  0.74460831286E+02  0.25500000000E-02 0.  1.
          2   -1    0    0  501    0  0.00000000000E+00 -0.00000000000E+00 -0.30306448983E+02  0.30306449091E+02  0.25500000000E-02 0. -1.
         23    2    1    2    0    0  0.35527136788E-14 -0.88817841970E-15  0.44154382259E+02  0.10476728038E+03  0.95008281559E+02 0.  0.
    9000005    2    3    3    0    0 -0.23140977848E+02  0.71749782551E+01  0.67010891149E+02  0.71459546029E+02  0.53872086770E+01 0.  0.
         22    1    3    3    0    0  0.23140977848E+02 -0.71749782551E+01 -0.22856508890E+02  0.33307734348E+02  0.00000000000E+00 0. -1.
         22    1    4    4    0    0 -0.20059463745E+02  0.42780693170E+01  0.53257138955E+02  0.57070191979E+02  0.00000000000E+00 0. -1.
         22    1    4    4    0    0 -0.30815141030E+01  0.28969089381E+01  0.13753752194E+02  0.14389354050E+02  0.00000000000E+00 0. -1.
<mgrwt>
<rscale>  0 0.95008282E+02</rscale>
<asrwt>0</asrwt>
<pdfrwt beam="2">  1        2 0.46625307E-02 0.95008282E+02</pdfrwt>
<pdfrwt beam="1">  1       -2 0.11455512E-01 0.95008282E+02</pdfrwt>
<totfact> 0.78456711E+04</totfact>
</mgrwt>
</event>
<event>
 7    1  0.3960685E-009  0.1005735E+03  0.7818608E-02  0.1279095E+00
          2   -1    0    0  501    0  0.00000000000E+00  0.00000000000E+00  0.63919712315E+02  0.63919712365E+02  0.25500000000E-02 0. -1.
         -2   -1    0    0    0  501 -0.00000000000E+00 -0.00000000000E+00 -0.39561454545E+02  0.39561454628E+02  0.25500000000E-02 0.  1.
         23    2    1    2    0    0  0.00000000000E+00 -0.35527136788E-14  0.24358257769E+02  0.10348116699E+03  0.10057349154E+03 0.  0.
    9000005    2    3    3    0    0  0.39728884455E+02 -0.27343880289E+02  0.72780655456E+00  0.49773902365E+02  0.12281677611E+02 0.  0.
         22    1    3    3    0    0 -0.39728884455E+02  0.27343880289E+02  0.23630451215E+02  0.53707264628E+02  0.00000000000E+00 0. -1.
         22    1    4    4    0    0  0.30134155886E+02 -0.16530497941E+02  0.49227328061E+01  0.34721146459E+02  0.00000000000E+00 0. -1.
         22    1    4    4    0    0  0.95947285693E+01 -0.10813382347E+02 -0.41949262515E+01  0.15052755906E+02  0.00000000000E+00 0. -1.
<mgrwt>
<rscale>  0 0.10057349E+03</rscale>
<asrwt>0</asrwt>
<pdfrwt beam="1">  1        2 0.98338019E-02 0.10057349E+03</pdfrwt>
<pdfrwt beam="2">  1       -2 0.60863776E-02 0.10057349E+03</pdfrwt>
<totfact> 0.81682280E+04</totfact>
</mgrwt>
</event>
<event>
 7    1  0.3960685E-009  0.9212607E+02  0.7818608E-02  0.1297783E+00
          2   -1    0    0  501    0  0.00000000000E+00  0.00000000000E+00  0.89829809777E+01  0.89829813397E+01  0.25500000000E-02 0. -1.
         -2   -1    0    0    0  501 -0.00000000000E+00 -0.00000000000E+00 -0.23620254259E+03  0.23620254261E+03  0.25500000000E-02 0.  1.
         23    2    1    2    0    0  0.00000000000E+00  0.00000000000E+00 -0.22721956161E+03  0.24518552395E+03  0.92126065650E+02 0.  0.
    9000005    2    3    3    0    0  0.13247000545E+02 -0.32040484123E+02 -0.19419516365E+03  0.19730351785E+03  0.38523924000E+01 0.  0.
         22    1    3    3    0    0 -0.13247000545E+02  0.32040484123E+02 -0.33024397967E+02  0.47882006092E+02  0.00000000000E+00 0. -1.
         22    1    4    4    0    0  0.21341250647E+01 -0.96718086418E+01 -0.54019087181E+02  0.54919578951E+02  0.00000000000E+00 0.  1.
         22    1    4    4    0    0  0.11112875481E+02 -0.22368675481E+02 -0.14017607647E+03  0.14238393890E+03  0.00000000000E+00 0.  1.
<mgrwt>
<rscale>  0 0.92126066E+02</rscale>
<asrwt>0</asrwt>
<pdfrwt beam="1">  1        2 0.13819973E-02 0.92126066E+02</pdfrwt>
<pdfrwt beam="2">  1       -2 0.36338848E-01 0.92126066E+02</pdfrwt>
<totfact> 0.56246875E+04</totfact>
</mgrwt>
</event>
<event>
 7    1  0.3960685E-009  0.9239640E+02  0.7818608E-02  0.1297150E+00
          2   -1    0    0  501    0  0.00000000000E+00  0.00000000000E+00  0.19948935838E+02  0.19948936001E+02  0.25500000000E-02 0. -1.
         -2   -1    0    0    0  501 -0.00000000000E+00 -0.00000000000E+00 -0.10698684187E+03  0.10698684190E+03  0.25500000000E-02 0.  1.
         23    2    1    2    0    0  0.00000000000E+00  0.22204460493E-15 -0.87037906033E+02  0.12693577790E+03  0.92396399417E+02 0.  0.
    9000005    2    3    3    0    0  0.16816480778E+02  0.18440338031E+01 -0.10211891232E+03  0.10427234398E+03  0.12579943598E+02 0.  0.
         22    1    3    3    0    0 -0.16816480778E+02 -0.18440338031E+01  0.15081006284E+02  0.22663433918E+02  0.00000000000E+00 0. -1.
         22    1    4    4    0    0  0.12779633444E+01  0.48718700367E+01 -0.18810515271E+02  0.19473155695E+02  0.00000000000E+00 0.  1.
         22    1    4    4    0    0  0.15538517434E+02 -0.30278362336E+01 -0.83308397046E+02  0.84799188290E+02  0.00000000000E+00 0.  1.
<mgrwt>
<rscale>  0 0.92396399E+02</rscale>
<asrwt>0</asrwt>
<pdfrwt beam="1">  1        2 0.30690671E-02 0.92396399E+02</pdfrwt>
<pdfrwt beam="2">  1       -2 0.16459514E-01 0.92396399E+02</pdfrwt>
<totfact> 0.75638692E+04</totfact>
</mgrwt>
</event>
<event>
 7    1  0.3960685E-009  0.9078259E+02  0.7818608E-02  0.1300968E+00
          2   -1    0    0  501    0  0.00000000000E+00  0.00000000000E+00  0.62306594529E+03  0.62306594529E+03  0.25500000000E-02 0. -1.
         -2   -1    0    0    0  501 -0.00000000000E+00 -0.00000000000E+00 -0.33068236273E+01  0.33068246105E+01  0.25500000000E-02 0.  1.
         23    2    1    2    0    0  0.00000000000E+00  0.00000000000E+00  0.61975912166E+03  0.62637276990E+03  0.90782586410E+02 0.  0.
    9000005    2    3    3    0    0 -0.10358493587E+02 -0.42684734216E+02  0.37328702885E+03  0.37601746747E+03  0.10800231798E+02 0.  0.
         22    1    3    3    0    0  0.10358493587E+02  0.42684734216E+02  0.24647209281E+03  0.25035530244E+03  0.00000000000E+00 0.  1.
         22    1    4    4    0    0 -0.94858506908E+01 -0.32650887771E+02  0.24696305041E+03  0.24929261943E+03  0.00000000000E+00 0.  1.
         22    1    4    4    0    0 -0.87264289639E+00 -0.10033846445E+02  0.12632397844E+03  0.12672484804E+03  0.00000000000E+00 0.  1.
<mgrwt>
<rscale>  0 0.90782586E+02</rscale>
<asrwt>0</asrwt>
<pdfrwt beam="1">  1        2 0.95856357E-01 0.90782586E+02</pdfrwt>
<pdfrwt beam="2">  1       -2 0.50874187E-03 0.90782586E+02</pdfrwt>
<totfact> 0.23290000E+05</totfact>
</mgrwt>
</event>
<event>
 7    1  0.3960685E-009  0.9059104E+02  0.7818608E-02  0.1301427E+00
          2   -1    0    0  501    0  0.00000000000E+00  0.00000000000E+00  0.28984184562E+03  0.28984184563E+03  0.25500000000E-02 0. -1.
         -2   -1    0    0    0  501 -0.00000000000E+00 -0.00000000000E+00 -0.70786337617E+01  0.70786342210E+01  0.25500000000E-02 0.  1.
         23    2    1    2    0    0  0.00000000000E+00  0.00000000000E+00  0.28276321186E+03  0.29692047985E+03  0.90591044675E+02 0.  0.
    9000005    2    3    3    0    0  0.43162087821E+02  0.12748405738E+02  0.15578705863E+03  0.16220436663E+03  0.38937439906E+01 0.  0.
         22    1    3    3    0    0 -0.43162087821E+02 -0.12748405738E+02  0.12697615323E+03  0.13471611322E+03  0.00000000000E+00 0. -1.
         22    1    4    4    0    0  0.20590435905E+02  0.77669056615E+01  0.79878224023E+02  0.82854218646E+02  0.00000000000E+00 0. -1.
         22    1    4    4    0    0  0.22571651916E+02  0.49815000767E+01  0.75908834609E+02  0.79350147983E+02  0.00000000000E+00 0. -1.
<mgrwt>
<rscale>  0 0.90591045E+02</rscale>
<asrwt>0</asrwt>
<pdfrwt beam="1">  1        2 0.44591051E-01 0.90591045E+02</pdfrwt>
<pdfrwt beam="2">  1       -2 0.10890207E-02 0.90591045E+02</pdfrwt>
<totfact> 0.18044507E+05</totfact>
</mgrwt>
</event>
<event>
 7    1  0.3960685E-009  0.9043723E+02  0.7818608E-02  0.1301796E+00
         -2   -1    0    0    0  501 -0.00000000000E+00  0.00000000000E+00  0.22439102950E+01  0.22439117440E+01  0.25500000000E-02 0. -1.
          2   -1    0    0  501    0  0.00000000000E+00 -0.00000000000E+00 -0.91123186289E+03  0.91123186289E+03  0.25500000000E-02 0.  1.
         23    2    1    2    0    0 -0.35527136788E-14  0.17763568394E-14 -0.90898795259E+03  0.91347577464E+03  0.90437231751E+02 0.  0.
    9000005    2    3    3    0    0 -0.29096262733E+02  0.12131314506E+02 -0.78116044615E+03  0.78181851999E+03  0.58986674455E+01 0.  0.
         22    1    3    3    0    0  0.29096262733E+02 -0.12131314506E+02 -0.12782750644E+03  0.13165725464E+03  0.00000000000E+00 0. -1.
         22    1    4    4    0    0 -0.14227877176E+01 -0.63628677777E+00 -0.30811439151E+02  0.30850834159E+02  0.00000000000E+00 0. -1.
         22    1    4    4    0    0 -0.27673475015E+02  0.12767601284E+02 -0.75034900700E+03  0.75096768583E+03  0.00000000000E+00 0. -1.
<mgrwt>
<rscale>  0 0.90437232E+02</rscale>
<asrwt>0</asrwt>
<pdfrwt beam="2">  1        2 0.14018922E+00 0.90437232E+02</pdfrwt>
<pdfrwt beam="1">  1       -2 0.34521781E-03 0.90437232E+02</pdfrwt>
<totfact> 0.25365687E+05</totfact>
</mgrwt>
</event>
<event>
 6    1  0.3960685E-009  0.1827759E+03  0.7818608E-02  0.1165143E+00
          2   -1    0    0  501    0  0.00000000000E+00  0.00000000000E+00  0.15349945909E+03  0.15349945911E+03  0.25500000000E-02 0.  1.
         -2   -1    0    0    0  501 -0.00000000000E+00 -0.00000000000E+00 -0.54409022817E+02  0.54409022876E+02  0.25500000000E-02 0. -1.
    9000005    2    1    2    0    0 -0.90993234020E+02 -0.46375768148E+01  0.54642380195E+02  0.10653340889E+03  0.78931451705E+01 0.  0.
         22    1    1    2    0    0  0.90993234020E+02  0.46375768148E+01  0.44448056081E+02  0.10137507310E+03  0.00000000000E+00 0. -1.
         22    1    3    3    0    0 -0.89580028073E+02 -0.54089941906E+01  0.54284862309E+02  0.10488415001E+03  0.00000000000E+00 0. -1.
         22    1    3    3    0    0 -0.14132059471E+01  0.77141737580E+00  0.35751788537E+00  0.16492588805E+01  0.00000000000E+00 0. -1.
<mgrwt>
<rscale>  0 0.18277588E+03</rscale>
<asrwt>0</asrwt>
<pdfrwt beam="1">  1        2 0.23615301E-01 0.18277588E+03</pdfrwt>
<pdfrwt beam="2">  1       -2 0.83706191E-02 0.18277588E+03</pdfrwt>
<totfact> 0.19304998E+04</totfact>
</mgrwt>
</event>
<event>
 7    1  0.3960685E-009  0.9403652E+02  0.7818608E-02  0.1293361E+00
         -2   -1    0    0    0  501 -0.00000000000E+00  0.00000000000E+00  0.54354931456E+01  0.54354937437E+01  0.25500000000E-02 0. -1.
          2   -1    0    0  501    0  0.00000000000E+00 -0.00000000000E+00 -0.40671870536E+03  0.40671870536E+03  0.25500000000E-02 0.  1.
         23    2    1    2    0    0  0.00000000000E+00 -0.71054273576E-14 -0.40128321221E+03  0.41215419911E+03  0.94036521843E+02 0.  0.
    9000005    2    3    3    0    0 -0.41240805048E+01 -0.46098199232E+02 -0.17829693649E+03  0.18441546465E+03  0.87871513149E+01 0.  0.
         22    1    3    3    0    0  0.41240805048E+01  0.46098199232E+02 -0.22298627572E+03  0.22773873445E+03  0.00000000000E+00 0.  1.
         22    1    4    4    0    0 -0.67386433320E+01 -0.37198232934E+02 -0.14568978586E+03  0.15051455594E+03  0.00000000000E+00 0. -1.
         22    1    4    4    0    0  0.26145628272E+01 -0.88999662978E+01 -0.32607150637E+02  0.33900908713E+02  0.00000000000E+00 0. -1.
<mgrwt>
<rscale>  0 0.94036522E+02</rscale>
<asrwt>0</asrwt>
<pdfrwt beam="2">  1        2 0.62572085E-01 0.94036522E+02</pdfrwt>
<pdfrwt beam="1">  1       -2 0.83623008E-03 0.94036522E+02</pdfrwt>
<totfact> 0.18497838E+05</totfact>
</mgrwt>
</event>
<event>
 7    1  0.4412073E-009  0.9189477E+02  0.7818608E-02  0.1298327E+00
          2   -1    0    0  501    0  0.00000000000E+00  0.00000000000E+00  0.11802949863E+02  0.11802950139E+02  0.25500000000E-02 0. -1.
         -2   -1    0    0    0  501 -0.00000000000E+00 -0.00000000000E+00 -0.17886732606E+03  0.17886732608E+03  0.25500000000E-02 0.  1.
         23    2    1    2    0    0  0.00000000000E+00  0.17763568394E-14 -0.16706437620E+03  0.19067027622E+03  0.91894768289E+02 0.  0.
    9000005    2    3    3    0    0 -0.22028137896E+02  0.11088444507E+02 -0.16338722822E+03  0.16573608528E+03  0.12840216341E+02 0.  0.
         22    1    3    3    0    0  0.22028137896E+02 -0.11088444507E+02 -0.36771479765E+01  0.24934190943E+02  0.00000000000E+00 0. -1.
         22    1    4    4    0    0 -0.17481736404E+02  0.12461089559E+02 -0.10596816954E+03  0.10812096382E+03  0.00000000000E+00 0.  1.
         22    1    4    4    0    0 -0.45464014927E+01 -0.13726450525E+01 -0.57419058683E+02  0.57615121461E+02  0.00000000000E+00 0.  1.
<mgrwt>
<rscale>  0 0.91894768E+02</rscale>
<asrwt>0</asrwt>
<pdfrwt beam="1">  1        2 0.18158386E-02 0.91894768E+02</pdfrwt>
<pdfrwt beam="2">  1       -2 0.27518048E-01 0.91894768E+02</pdfrwt>
<totfact> 0.64008193E+04</totfact>
</mgrwt>
</event>
<event>
 7    1  0.3960685E-009  0.9077266E+02  0.7818608E-02  0.1300991E+00
         -2   -1    0    0    0  501 -0.00000000000E+00  0.00000000000E+00  0.28152852657E+03  0.28152852658E+03  0.25500000000E-02 0.  1.
          2   -1    0    0  501    0  0.00000000000E+00 -0.00000000000E+00 -0.73169104413E+01  0.73169108856E+01  0.25500000000E-02 0. -1.
         23    2    1    2    0    0  0.71054273576E-14  0.00000000000E+00  0.27421161612E+03  0.28884543746E+03  0.90772662876E+02 0.  0.
    9000005    2    3    3    0    0  0.32512024832E+02 -0.21117766716E+02  0.21135038475E+03  0.21499067296E+03  0.70008925489E+01 0.  0.
         22    1    3    3    0    0 -0.32512024832E+02  0.21117766716E+02  0.62861231375E+02  0.73854764502E+02  0.00000000000E+00 0. -1.
         22    1    4    4    0    0  0.24805688375E+02 -0.12834006272E+02  0.14150851397E+03  0.14423832160E+03  0.00000000000E+00 0. -1.
         22    1    4    4    0    0  0.77063364572E+01 -0.82837604435E+01  0.69841870783E+02  0.70752351361E+02  0.00000000000E+00 0. -1.
<mgrwt>
<rscale>  0 0.90772663E+02</rscale>
<asrwt>0</asrwt>
<pdfrwt beam="2">  1        2 0.11256786E-02 0.90772663E+02</pdfrwt>
<pdfrwt beam="1">  1       -2 0.43312079E-01 0.90772663E+02</pdfrwt>
<totfact> 0.53425045E+04</totfact>
</mgrwt>
</event>
<event>
 7    1  0.3960685E-009  0.9134867E+02  0.7818608E-02  0.1299618E+00
          2   -1    0    0  501    0  0.00000000000E+00  0.00000000000E+00  0.10933242755E+02  0.10933243053E+02  0.25500000000E-02 0. -1.
         -2   -1    0    0    0  501 -0.00000000000E+00 -0.00000000000E+00 -0.19080751882E+03  0.19080751884E+03  0.25500000000E-02 0.  1.
         23    2    1    2    0    0  0.00000000000E+00  0.00000000000E+00 -0.17987427606E+03  0.20174076189E+03  0.91348671682E+02 0.  0.
    9000005    2    3    3    0    0 -0.28420413539E+02  0.27544189457E+02 -0.13982994686E+03  0.14543844773E+03  0.57901433475E+01 0.  0.
         22    1    3    3    0    0  0.28420413539E+02 -0.27544189457E+02 -0.40044329206E+02  0.56302314163E+02  0.00000000000E+00 0. -1.
         22    1    4    4    0    0 -0.27811883409E+01  0.39092552812E+01 -0.23935299342E+02  0.24411387507E+02  0.00000000000E+00 0.  1.
         22    1    4    4    0    0 -0.25639225198E+02  0.23634934176E+02 -0.11589464752E+03  0.12102706022E+03  0.00000000000E+00 0.  1.
<mgrwt>
<rscale>  0 0.91348672E+02</rscale>
<asrwt>0</asrwt>
<pdfrwt beam="1">  1        2 0.16820375E-02 0.91348672E+02</pdfrwt>
<pdfrwt beam="2">  1       -2 0.29355000E-01 0.91348672E+02</pdfrwt>
<totfact> 0.63278311E+04</totfact>
</mgrwt>
</event>
<event>
 7    1  0.3960685E-009  0.9150467E+02  0.7818608E-02  0.1299248E+00
          2   -1    0    0  501    0  0.00000000000E+00  0.00000000000E+00  0.26998794159E+03  0.26998794160E+03  0.25500000000E-02 0.  1.
         -2   -1    0    0    0  501 -0.00000000000E+00 -0.00000000000E+00 -0.77532203130E+01  0.77532207323E+01  0.25500000000E-02 0. -1.
         23    2    1    2    0    0  0.00000000000E+00  0.00000000000E+00  0.26223472128E+03  0.27774116234E+03  0.91504667704E+02 0.  0.
    9000005    2    3    3    0    0 -0.34828909330E+02 -0.17253618542E+02  0.66929247164E+02  0.78605609265E+02  0.13732348818E+02 0.  0.
         22    1    3    3    0    0  0.34828909330E+02  0.17253618542E+02  0.19530547412E+03  0.19913555307E+03  0.00000000000E+00 0.  1.
         22    1    4    4    0    0 -0.16637169200E+02 -0.39961599259E+01  0.18493435355E+02  0.25194678890E+02  0.00000000000E+00 0. -1.
         22    1    4    4    0    0 -0.18191740130E+02 -0.13257458616E+02  0.48435811809E+02  0.53410930375E+02  0.00000000000E+00 0. -1.
<mgrwt>
<rscale>  0 0.91504668E+02</rscale>
<asrwt>0</asrwt>
<pdfrwt beam="1">  1        2 0.41536612E-01 0.91504668E+02</pdfrwt>
<pdfrwt beam="2">  1       -2 0.11928030E-02 0.91504668E+02</pdfrwt>
<totfact> 0.17108252E+05</totfact>
</mgrwt>
</event>
<event>
 7    1  0.6575555E-009  0.9183589E+02  0.7818608E-02  0.1298466E+00
          2   -1    0    0  501    0  0.00000000000E+00  0.00000000000E+00  0.67804876111E+03  0.67804876112E+03  0.25500000000E-02 0. -1.
         -2   -1    0    0    0  501 -0.00000000000E+00 -0.00000000000E+00 -0.31095955550E+01  0.31095966006E+01  0.25500000000E-02 0.  1.
         23    2    1    2    0    0  0.00000000000E+00 -0.35527136788E-14  0.67493916556E+03  0.68115835772E+03  0.91835892142E+02 0.  0.
    9000005    2    3    3    0    0  0.16719342096E+02  0.26405919362E+02  0.58366652060E+03  0.58468294793E+03  0.14516657511E+02 0.  0.
         22    1    3    3    0    0 -0.16719342096E+02 -0.26405919362E+02  0.91272644955E+02  0.96475409792E+02  0.00000000000E+00 0. -1.
         22    1    4    4    0    0  0.14645698852E+02  0.27113256790E+02  0.57079885216E+03  0.57163008565E+03  0.00000000000E+00 0.  1.
         22    1    4    4    0    0  0.20736432447E+01 -0.70733742741E+00  0.12867668443E+02  0.13052862280E+02  0.00000000000E+00 0.  1.
<mgrwt>
<rscale>  0 0.91835892E+02</rscale>
<asrwt>0</asrwt>
<pdfrwt beam="1">  1        2 0.10431519E+00 0.91835892E+02</pdfrwt>
<pdfrwt beam="2">  1       -2 0.47839940E-03 0.91835892E+02</pdfrwt>
<totfact> 0.23091303E+05</totfact>
</mgrwt>
</event>
<event>
 7    1  0.3960685E-009  0.8070194E+02  0.7818608E-02  0.1327071E+00
          2   -1    0    0  501    0  0.00000000000E+00  0.00000000000E+00  0.11480239324E+03  0.11480239327E+03  0.25500000000E-02 0. -1.
         -2   -1    0    0    0  501 -0.00000000000E+00 -0.00000000000E+00 -0.14182638949E+02  0.14182639178E+02  0.25500000000E-02 0.  1.
         23    2    1    2    0    0  0.22204460493E-15  0.00000000000E+00  0.10061975429E+03  0.12898503244E+03  0.80701943233E+02 0.  0.
    9000005    2    3    3    0    0 -0.14034978359E+01  0.25584240741E+02  0.99313443364E+02  0.10332904623E+03  0.12538284612E+02 0.  0.
         22    1    3    3    0    0  0.14034978359E+01 -0.25584240741E+02  0.13063109237E+01  0.25655986216E+02  0.00000000000E+00 0.  1.
         22    1    4    4    0    0  0.58632230077E-01  0.13991433577E+02  0.75707074086E+02  0.76989120776E+02  0.00000000000E+00 0. -1.
         22    1    4    4    0    0 -0.14621300660E+01  0.11592807165E+02  0.23606369278E+02  0.26339925451E+02  0.00000000000E+00 0. -1.
<mgrwt>
<rscale>  0 0.80701943E+02</rscale>
<asrwt>0</asrwt>
<pdfrwt beam="1">  1        2 0.17661907E-01 0.80701943E+02</pdfrwt>
<pdfrwt beam="2">  1       -2 0.21819445E-02 0.80701943E+02</pdfrwt>
<totfact> 0.17832119E+05</totfact>
</mgrwt>
</event>
<event>
 7    1  0.3960685E-009  0.9126327E+02  0.7818608E-02  0.1299821E+00
          2   -1    0    0  501    0  0.00000000000E+00  0.00000000000E+00  0.35018159047E+03  0.35018159048E+03  0.25500000000E-02 0. -1.
         -2   -1    0    0    0  501 -0.00000000000E+00 -0.00000000000E+00 -0.59461891056E+01  0.59461896524E+01  0.25500000000E-02 0.  1.
         23    2    1    2    0    0  0.00000000000E+00  0.00000000000E+00  0.34423540136E+03  0.35612778013E+03  0.91263268783E+02 0.  0.
    9000005    2    3    3    0    0  0.38862031541E+02  0.20405018879E+02  0.12680457844E+03  0.13431077211E+03  0.57758202848E+01 0.  0.
         22    1    3    3    0    0 -0.38862031541E+02 -0.20405018879E+02  0.21743082292E+03  0.22181700802E+03  0.00000000000E+00 0.  1.
         22    1    4    4    0    0  0.10869211421E+02  0.34360235095E+01  0.28303270534E+02  0.30512638977E+02  0.00000000000E+00 0. -1.
         22    1    4    4    0    0  0.27992820121E+02  0.16968995369E+02  0.98501307910E+02  0.10379813313E+03  0.00000000000E+00 0. -1.
<mgrwt>
<rscale>  0 0.91263269E+02</rscale>
<asrwt>0</asrwt>
<pdfrwt beam="1">  1        2 0.53874091E-01 0.91263269E+02</pdfrwt>
<pdfrwt beam="2">  1       -2 0.91479837E-03 0.91263269E+02</pdfrwt>
<totfact> 0.18975372E+05</totfact>
</mgrwt>
</event>
<event>
 7    1  0.4047454E-009  0.9404548E+02  0.7818608E-02  0.1293340E+00
         -2   -1    0    0    0  501 -0.00000000000E+00  0.00000000000E+00  0.95073397337E+02  0.95073397371E+02  0.25500000000E-02 0.  1.
          2   -1    0    0  501    0  0.00000000000E+00 -0.00000000000E+00 -0.23257170060E+02  0.23257170200E+02  0.25500000000E-02 0. -1.
         23    2    1    2    0    0  0.00000000000E+00  0.00000000000E+00  0.71816227277E+02  0.11833056757E+03  0.94045482196E+02 0.  0.
    9000005    2    3    3    0    0 -0.25390291974E+02  0.38244030993E+02  0.30231027516E+02  0.56390260240E+02  0.12596570650E+02 0.  0.
         22    1    3    3    0    0  0.25390291974E+02 -0.38244030993E+02  0.41585199761E+02  0.61940307331E+02  0.00000000000E+00 0. -1.
         22    1    4    4    0    0 -0.12645059253E+02  0.11667213081E+02  0.16630150908E+02  0.23928712958E+02  0.00000000000E+00 0. -1.
         22    1    4    4    0    0 -0.12745232720E+02  0.26576817913E+02  0.13600876608E+02  0.32461547282E+02  0.00000000000E+00 0. -1.
<mgrwt>
<rscale>  0 0.94045482E+02</rscale>
<asrwt>0</asrwt>
<pdfrwt beam="2">  1        2 0.35780262E-02 0.94045482E+02</pdfrwt>
<pdfrwt beam="1">  1       -2 0.14626676E-01 0.94045482E+02</pdfrwt>
<totfact> 0.75009355E+04</totfact>
</mgrwt>
</event>
<event>
 7    1  0.3960685E-009  0.9133173E+02  0.7818608E-02  0.1299658E+00
         -2   -1    0    0    0  501 -0.00000000000E+00  0.00000000000E+00  0.11011071579E+02  0.11011071874E+02  0.25500000000E-02 0. -1.
          2   -1    0    0  501    0  0.00000000000E+00 -0.00000000000E+00 -0.18938857543E+03  0.18938857545E+03  0.25500000000E-02 0.  1.
         23    2    1    2    0    0  0.00000000000E+00  0.35527136788E-14 -0.17837750385E+03  0.20039964732E+03  0.91331729243E+02 0.  0.
    9000005    2    3    3    0    0 -0.20009293319E+01  0.18105085319E+02 -0.18070360898E+03  0.18203640693E+03  0.12315084904E+02 0.  0.
         22    1    3    3    0    0  0.20009293319E+01 -0.18105085319E+02  0.23261051308E+01  0.18363240392E+02  0.00000000000E+00 0. -1.
         22    1    4    4    0    0  0.39826182439E+01  0.13587084768E+02 -0.10231057034E+03  0.10328563755E+03  0.00000000000E+00 0. -1.
         22    1    4    4    0    0 -0.59835475758E+01  0.45180005509E+01 -0.78393038645E+02  0.78750769384E+02  0.00000000000E+00 0. -1.
<mgrwt>
<rscale>  0 0.91331729E+02</rscale>
<asrwt>0</asrwt>
<pdfrwt beam="2">  1        2 0.29136702E-01 0.91331729E+02</pdfrwt>
<pdfrwt beam="1">  1       -2 0.16940112E-02 0.91331729E+02</pdfrwt>
<totfact> 0.15097994E+05</totfact>
</mgrwt>
</event>
<event>
 7    1  0.3960685E-009  0.9112649E+02  0.7818608E-02  0.1300146E+00
          2   -1    0    0  501    0  0.00000000000E+00  0.00000000000E+00  0.47079219176E+02  0.47079219245E+02  0.25500000000E-02 0. -1.
         -2   -1    0    0    0  501 -0.00000000000E+00 -0.00000000000E+00 -0.44096089119E+02  0.44096089192E+02  0.25500000000E-02 0.  1.
         23    2    1    2    0    0  0.00000000000E+00  0.00000000000E+00  0.29831300576E+01  0.91175308438E+02  0.91126493424E+02 0.  0.
    9000005    2    3    3    0    0  0.19722981413E+02  0.21442576081E+02 -0.31808192837E+02  0.45796720827E+02  0.15388256632E+02 0.  0.
         22    1    3    3    0    0 -0.19722981413E+02 -0.21442576081E+02  0.34791322895E+02  0.45378587611E+02  0.00000000000E+00 0. -1.
         22    1    4    4    0    0  0.54818593455E+01  0.42828933433E+01 -0.73715457174E-02  0.69565804541E+01  0.00000000000E+00 0.  1.
         22    1    4    4    0    0  0.14241122067E+02  0.17159682737E+02 -0.31800821291E+02  0.38840140373E+02  0.00000000000E+00 0.  1.
<mgrwt>
<rscale>  0 0.91126493E+02</rscale>
<asrwt>0</asrwt>
<pdfrwt beam="1">  1        2 0.72429568E-02 0.91126493E+02</pdfrwt>
<pdfrwt beam="2">  1       -2 0.67840137E-02 0.91126493E+02</pdfrwt>
<totfact> 0.99660707E+04</totfact>
</mgrwt>
</event>
<event>
 7    1  0.3960685E-009  0.8922525E+02  0.7818608E-02  0.1304739E+00
          2   -1    0    0  501    0  0.00000000000E+00  0.00000000000E+00  0.10939953810E+03  0.10939953813E+03  0.25500000000E-02 0. -1.
         -2   -1    0    0    0  501 -0.00000000000E+00 -0.00000000000E+00 -0.18192820909E+02  0.18192821087E+02  0.25500000000E-02 0.  1.
         23    2    1    2    0    0  0.00000000000E+00  0.00000000000E+00  0.91206717195E+02  0.12759235922E+03  0.89225247940E+02 0.  0.
    9000005    2    3    3    0    0 -0.24706848266E+02 -0.34882027594E+02  0.60210464704E+02  0.74791299868E+02  0.11885044205E+02 0.  0.
         22    1    3    3    0    0  0.24706848266E+02  0.34882027594E+02  0.30996252491E+02  0.52801059352E+02  0.00000000000E+00 0.  1.
         22    1    4    4    0    0 -0.14434982146E+00 -0.42134128482E+01  0.22809309997E+01  0.47933632166E+01  0.00000000000E+00 0.  1.
         22    1    4    4    0    0 -0.24562498444E+02 -0.30668614746E+02  0.57929533704E+02  0.69997936651E+02  0.00000000000E+00 0.  1.
<mgrwt>
<rscale>  0 0.89225248E+02</rscale>
<asrwt>0</asrwt>
<pdfrwt beam="1">  1        2 0.16830698E-01 0.89225248E+02</pdfrwt>
<pdfrwt beam="2">  1       -2 0.27988956E-02 0.89225248E+02</pdfrwt>
<totfact> 0.13381615E+05</totfact>
</mgrwt>
</event>
<event>
 7    1  0.3960685E-009  0.9206513E+02  0.7818608E-02  0.1297926E+00
          2   -1    0    0  501    0  0.00000000000E+00  0.00000000000E+00  0.13988202291E+03  0.13988202294E+03  0.25500000000E-02 0. -1.
         -2   -1    0    0    0  501 -0.00000000000E+00 -0.00000000000E+00 -0.15148459447E+02  0.15148459662E+02  0.25500000000E-02 0.  1.
         23    2    1    2    0    0 -0.35527136788E-14  0.00000000000E+00  0.12473356346E+03  0.15503048260E+03  0.92065132811E+02 0.  0.
    9000005    2    3    3    0    0  0.29880927215E+02  0.28966477224E+02  0.31299109541E+02  0.52746936540E+02  0.84070471809E+01 0.  0.
         22    1    3    3    0    0 -0.29880927215E+02 -0.28966477224E+02  0.93434453924E+02  0.10228354606E+03  0.00000000000E+00 0. -1.
         22    1    4    4    0    0 -0.19346740075E+00  0.71253421321E+00  0.20188438175E+01  0.21496197337E+01  0.00000000000E+00 0.  1.
         22    1    4    4    0    0  0.30074394615E+02  0.28253943010E+02  0.29280265724E+02  0.50597316806E+02  0.00000000000E+00 0.  1.
<mgrwt>
<rscale>  0 0.92065133E+02</rscale>
<asrwt>0</asrwt>
<pdfrwt beam="1">  1        2 0.21520312E-01 0.92065133E+02</pdfrwt>
<pdfrwt beam="2">  1       -2 0.23305321E-02 0.92065133E+02</pdfrwt>
<totfact> 0.13299549E+05</totfact>
</mgrwt>
</event>
<event>
 7    1  0.3960685E-009  0.9158825E+02  0.7818608E-02  0.1299050E+00
         -2   -1    0    0    0  501 -0.00000000000E+00  0.00000000000E+00  0.13782960453E+03  0.13782960456E+03  0.25500000000E-02 0. -1.
          2   -1    0    0  501    0  0.00000000000E+00 -0.00000000000E+00 -0.15215177036E+02  0.15215177250E+02  0.25500000000E-02 0.  1.
         23    2    1    2    0    0 -0.71054273576E-14 -0.88817841970E-15  0.12261442750E+03  0.15304478181E+03  0.91588249289E+02 0.  0.
    9000005    2    3    3    0    0  0.33671289037E+02  0.37033887703E+01  0.11732540914E+02  0.37104005692E+02  0.95699492324E+01 0.  0.
         22    1    3    3    0    0 -0.33671289037E+02 -0.37033887703E+01  0.11088188658E+03  0.11594077611E+03  0.00000000000E+00 0. -1.
         22    1    4    4    0    0  0.33672112332E+02  0.27174780726E+01  0.10211205277E+02  0.35291139811E+02  0.00000000000E+00 0.  1.
         22    1    4    4    0    0 -0.82329496808E-03  0.98591069771E+00  0.15213356370E+01  0.18128658809E+01  0.00000000000E+00 0.  1.
<mgrwt>
<rscale>  0 0.91588249E+02</rscale>
<asrwt>0</asrwt>
<pdfrwt beam="2">  1        2 0.23407965E-02 0.91588249E+02</pdfrwt>
<pdfrwt beam="1">  1       -2 0.21204555E-01 0.91588249E+02</pdfrwt>
<totfact> 0.71177281E+04</totfact>
</mgrwt>
</event>
<event>
 7    1  0.3960685E-009  0.9366023E+02  0.7818608E-02  0.1294222E+00
         -2   -1    0    0    0  501 -0.00000000000E+00  0.00000000000E+00  0.39286264840E+02  0.39286264922E+02  0.25500000000E-02 0.  1.
          2   -1    0    0  501    0  0.00000000000E+00 -0.00000000000E+00 -0.55822560070E+02  0.55822560128E+02  0.25500000000E-02 0. -1.
         23    2    1    2    0    0  0.00000000000E+00  0.00000000000E+00 -0.16536295231E+02  0.95108825051E+02  0.93660234585E+02 0.  0.
    9000005    2    3    3    0    0 -0.20344549407E+02 -0.32514175196E+02  0.19012136573E+02  0.42813860828E+02  0.70218421044E+00 0.  0.
         22    1    3    3    0    0  0.20344549407E+02  0.32514175196E+02 -0.35548431804E+02  0.52294964222E+02  0.00000000000E+00 0. -1.
         22    1    4    4    0    0 -0.15515813119E+02 -0.25338680279E+02  0.14791894374E+02  0.33190199069E+02  0.00000000000E+00 0.  1.
         22    1    4    4    0    0 -0.48287362881E+01 -0.71754949171E+01  0.42202421995E+01  0.96236617598E+01  0.00000000000E+00 0.  1.
<mgrwt>
<rscale>  0 0.93660235E+02</rscale>
<asrwt>0</asrwt>
<pdfrwt beam="2">  1        2 0.85880862E-02 0.93660235E+02</pdfrwt>
<pdfrwt beam="1">  1       -2 0.60440407E-02 0.93660235E+02</pdfrwt>
<totfact> 0.96397678E+04</totfact>
</mgrwt>
</event>
<event>
 7    1  0.3960685E-009  0.9280787E+02  0.7818608E-02  0.1296191E+00
          2   -1    0    0  501    0  0.00000000000E+00  0.00000000000E+00  0.63296176148E+02  0.63296176199E+02  0.25500000000E-02 0. -1.
         -2   -1    0    0    0  501 -0.00000000000E+00 -0.00000000000E+00 -0.34019828134E+02  0.34019828230E+02  0.25500000000E-02 0.  1.
         23    2    1    2    0    0  0.00000000000E+00  0.00000000000E+00  0.29276348013E+02  0.97316004429E+02  0.92807866935E+02 0.  0.
    9000005    2    3    3    0    0  0.29390248574E+02 -0.17244328898E+02 -0.16095457248E+02  0.40573125554E+02  0.15032005282E+02 0.  0.
         22    1    3    3    0    0 -0.29390248574E+02  0.17244328898E+02  0.45371805262E+02  0.56742878875E+02  0.00000000000E+00 0. -1.
         22    1    4    4    0    0  0.30331694079E+01  0.15298776006E+01 -0.56070337013E+01  0.65558728677E+01  0.00000000000E+00 0.  1.
         22    1    4    4    0    0  0.26357079166E+02 -0.18774206498E+02 -0.10488423547E+02  0.34017252686E+02  0.00000000000E+00 0.  1.
<mgrwt>
<rscale>  0 0.92807867E+02</rscale>
<asrwt>0</asrwt>
<pdfrwt beam="1">  1        2 0.97378732E-02 0.92807867E+02</pdfrwt>
<pdfrwt beam="2">  1       -2 0.52338198E-02 0.92807867E+02</pdfrwt>
<totfact> 0.10236298E+05</totfact>
</mgrwt>
</event>
<event>
 7    1  0.3960685E-009  0.9036605E+02  0.7818608E-02  0.1301968E+00
         -2   -1    0    0    0  501 -0.00000000000E+00  0.00000000000E+00  0.76541967382E+02  0.76541967424E+02  0.25500000000E-02 0.  1.
          2   -1    0    0  501    0  0.00000000000E+00 -0.00000000000E+00 -0.26671715285E+02  0.26671715407E+02  0.25500000000E-02 0. -1.
         23    2    1    2    0    0 -0.17763568394E-14  0.00000000000E+00  0.49870252097E+02  0.10321368283E+03  0.90366046054E+02 0.  0.
    9000005    2    3    3    0    0  0.87628853873E+01 -0.43300125562E+02  0.34731170112E+02  0.56513780933E+02  0.59886746372E+01 0.  0.
         22    1    3    3    0    0 -0.87628853873E+01  0.43300125562E+02  0.15139081985E+02  0.46699901899E+02  0.00000000000E+00 0.  1.
         22    1    4    4    0    0  0.52056964884E+01 -0.24629198388E+02  0.15996764585E+02  0.29826048453E+02  0.00000000000E+00 0. -1.
         22    1    4    4    0    0  0.35571888989E+01 -0.18670927174E+02  0.18734405528E+02  0.26687732479E+02  0.00000000000E+00 0. -1.
<mgrwt>
<rscale>  0 0.90366046E+02</rscale>
<asrwt>0</asrwt>
<pdfrwt beam="2">  1        2 0.41033408E-02 0.90366046E+02</pdfrwt>
<pdfrwt beam="1">  1       -2 0.11775687E-01 0.90366046E+02</pdfrwt>
<totfact> 0.88021557E+04</totfact>
</mgrwt>
</event>
<event>
 7    1  0.3960685E-009  0.9246007E+02  0.7818608E-02  0.1297001E+00
          2   -1    0    0  501    0  0.00000000000E+00  0.00000000000E+00  0.35722575057E+03  0.35722575058E+03  0.25500000000E-02 0. -1.
         -2   -1    0    0    0  501 -0.00000000000E+00 -0.00000000000E+00 -0.59828168858E+01  0.59828174292E+01  0.25500000000E-02 0.  1.
         23    2    1    2    0    0  0.00000000000E+00  0.00000000000E+00  0.35124293368E+03  0.36320856801E+03  0.92460074689E+02 0.  0.
    9000005    2    3    3    0    0 -0.43271846229E+01  0.34896710275E+02  0.29337592636E+03  0.29549523511E+03  0.33904119920E+01 0.  0.
         22    1    3    3    0    0  0.43271846229E+01 -0.34896710275E+02  0.57867007323E+02  0.67713332892E+02  0.00000000000E+00 0.  1.
         22    1    4    4    0    0 -0.37748475659E+01  0.22217211060E+02  0.17678410402E+03  0.17821468339E+03  0.00000000000E+00 0.  1.
         22    1    4    4    0    0 -0.55233705706E+00  0.12679499215E+02  0.11659182234E+03  0.11728055172E+03  0.00000000000E+00 0.  1.
<mgrwt>
<rscale>  0 0.92460075E+02</rscale>
<asrwt>0</asrwt>
<pdfrwt beam="1">  1        2 0.54957804E-01 0.92460075E+02</pdfrwt>
<pdfrwt beam="2">  1       -2 0.92043348E-03 0.92460075E+02</pdfrwt>
<totfact> 0.18462106E+05</totfact>
</mgrwt>
</event>
<event>
 7    1  0.3960685E-009  0.9245024E+02  0.7818608E-02  0.1297024E+00
          2   -1    0    0  501    0  0.00000000000E+00  0.00000000000E+00  0.13925889722E+03  0.13925889724E+03  0.25500000000E-02 0. -1.
         -2   -1    0    0    0  501 -0.00000000000E+00 -0.00000000000E+00 -0.15343808749E+02  0.15343808961E+02  0.25500000000E-02 0.  1.
         23    2    1    2    0    0  0.00000000000E+00  0.00000000000E+00  0.12391508847E+03  0.15460270621E+03  0.92450243996E+02 0.  0.
    9000005    2    3    3    0    0  0.30425523210E+01 -0.42999131339E+02  0.88668473266E+02  0.98920516018E+02  0.80615083914E+01 0.  0.
         22    1    3    3    0    0 -0.30425523210E+01  0.42999131339E+02  0.35246615207E+02  0.55682190187E+02  0.00000000000E+00 0. -1.
         22    1    4    4    0    0 -0.19951707960E+01 -0.65898672637E+01  0.17843662884E+02  0.19125986567E+02  0.00000000000E+00 0. -1.
         22    1    4    4    0    0  0.50377231170E+01 -0.36409264075E+02  0.70824810382E+02  0.79794529451E+02  0.00000000000E+00 0. -1.
<mgrwt>
<rscale>  0 0.92450244E+02</rscale>
<asrwt>0</asrwt>
<pdfrwt beam="1">  1        2 0.21424446E-01 0.92450244E+02</pdfrwt>
<pdfrwt beam="2">  1       -2 0.23605859E-02 0.92450244E+02</pdfrwt>
<totfact> 0.13129363E+05</totfact>
</mgrwt>
</event>
<event>
 7    1  0.3960685E-009  0.9295168E+02  0.7818608E-02  0.1295857E+00
          2   -1    0    0  501    0  0.00000000000E+00  0.00000000000E+00  0.40657289920E+03  0.40657289921E+03  0.25500000000E-02 0. -1.
         -2   -1    0    0    0  501 -0.00000000000E+00 -0.00000000000E+00 -0.53127096326E+01  0.53127102446E+01  0.25500000000E-02 0.  1.
         23    2    1    2    0    0  0.00000000000E+00  0.00000000000E+00  0.40126018957E+03  0.41188560945E+03  0.92951683914E+02 0.  0.
    9000005    2    3    3    0    0  0.13441851534E+02  0.43257790444E+02  0.24607441310E+03  0.25022378642E+03  0.27215259725E+01 0.  0.
         22    1    3    3    0    0 -0.13441851534E+02 -0.43257790444E+02  0.15518577647E+03  0.16166182303E+03  0.00000000000E+00 0.  1.
         22    1    4    4    0    0  0.77846086307E+01  0.25994549608E+02  0.14012001091E+03  0.14272327841E+03  0.00000000000E+00 0.  1.
         22    1    4    4    0    0  0.56572429030E+01  0.17263240836E+02  0.10595440219E+03  0.10750050802E+03  0.00000000000E+00 0.  1.
<mgrwt>
<rscale>  0 0.92951684E+02</rscale>
<asrwt>0</asrwt>
<pdfrwt beam="1">  1        2 0.62549681E-01 0.92951684E+02</pdfrwt>
<pdfrwt beam="2">  1       -2 0.81733994E-03 0.92951684E+02</pdfrwt>
<totfact> 0.19075779E+05</totfact>
</mgrwt>
</event>
<event>
 7    1  0.3960685E-009  0.9186426E+02  0.7818608E-02  0.1298399E+00
          2   -1    0    0  501    0  0.00000000000E+00  0.00000000000E+00  0.13900459522E+03  0.13900459524E+03  0.25500000000E-02 0. -1.
         -2   -1    0    0    0  501 -0.00000000000E+00 -0.00000000000E+00 -0.15177630143E+02  0.15177630358E+02  0.25500000000E-02 0.  1.
         23    2    1    2    0    0 -0.17763568394E-14  0.35527136788E-14  0.12382696507E+03  0.15418222560E+03  0.91864255351E+02 0.  0.
    9000005    2    3    3    0    0 -0.13276692430E+02  0.20913686134E+02  0.12620601257E+03  0.12929623162E+03  0.13262920961E+02 0.  0.
         22    1    3    3    0    0  0.13276692430E+02 -0.20913686134E+02 -0.23790474915E+01  0.24885993984E+02  0.00000000000E+00 0.  1.
         22    1    4    4    0    0 -0.13399522082E+02  0.18113976374E+02  0.12296250797E+03  0.12500976641E+03  0.00000000000E+00 0. -1.
         22    1    4    4    0    0  0.12282965240E+00  0.27997097607E+01  0.32435045935E+01  0.42864652006E+01  0.00000000000E+00 0. -1.
<mgrwt>
<rscale>  0 0.91864255E+02</rscale>
<asrwt>0</asrwt>
<pdfrwt beam="1">  1        2 0.21385322E-01 0.91864255E+02</pdfrwt>
<pdfrwt beam="2">  1       -2 0.23350201E-02 0.91864255E+02</pdfrwt>
<totfact> 0.13350805E+05</totfact>
</mgrwt>
</event>
<event>
 7    1  0.3960685E-009  0.9481392E+02  0.7818608E-02  0.1291596E+00
         -2   -1    0    0    0  501 -0.00000000000E+00  0.00000000000E+00  0.17118983544E+03  0.17118983546E+03  0.25500000000E-02 0.  1.
          2   -1    0    0  501    0  0.00000000000E+00 -0.00000000000E+00 -0.13128231580E+02  0.13128231828E+02  0.25500000000E-02 0. -1.
         23    2    1    2    0    0  0.00000000000E+00  0.00000000000E+00  0.15806160386E+03  0.18431806729E+03  0.94813919409E+02 0.  0.
    9000005    2    3    3    0    0 -0.32198401685E+02 -0.32166016398E+02  0.98817682088E+02  0.10961042411E+03  0.13346201657E+02 0.  0.
         22    1    3    3    0    0  0.32198401685E+02  0.32166016398E+02  0.59243921775E+02  0.74707643178E+02  0.00000000000E+00 0. -1.
         22    1    4    4    0    0 -0.25122934780E+02 -0.20116969785E+02  0.79510640619E+02  0.85777597873E+02  0.00000000000E+00 0.  1.
         22    1    4    4    0    0 -0.70754669055E+01 -0.12049046613E+02  0.19307041470E+02  0.23832826239E+02  0.00000000000E+00 0.  1.
<mgrwt>
<rscale>  0 0.94813919E+02</rscale>
<asrwt>0</asrwt>
<pdfrwt beam="2">  1        2 0.20197280E-02 0.94813919E+02</pdfrwt>
<pdfrwt beam="1">  1       -2 0.26336897E-01 0.94813919E+02</pdfrwt>
<totfact> 0.60154468E+04</totfact>
</mgrwt>
</event>
<event>
 7    1  0.3960685E-009  0.8903010E+02  0.7818608E-02  0.1305218E+00
          2   -1    0    0  501    0  0.00000000000E+00  0.00000000000E+00  0.37327494809E+02  0.37327494896E+02  0.25500000000E-02 0. -1.
         -2   -1    0    0    0  501 -0.00000000000E+00 -0.00000000000E+00 -0.53086601829E+02  0.53086601890E+02  0.25500000000E-02 0.  1.
         23    2    1    2    0    0  0.00000000000E+00  0.00000000000E+00 -0.15759107020E+02  0.90414096786E+02  0.89030104142E+02 0.  0.
    9000005    2    3    3    0    0  0.32544431886E+02  0.82524526336E+01  0.21068705801E+02  0.40579060732E+02  0.86906147382E+01 0.  0.
         22    1    3    3    0    0 -0.32544431886E+02 -0.82524526336E+01 -0.36827812821E+02  0.49835036054E+02  0.00000000000E+00 0.  1.
         22    1    4    4    0    0  0.23646861621E+02  0.24724095271E+01  0.16942624653E+02  0.29194852346E+02  0.00000000000E+00 0.  1.
         22    1    4    4    0    0  0.88975702654E+01  0.57800431064E+01  0.41260811480E+01  0.11384208386E+02  0.00000000000E+00 0.  1.
<mgrwt>
<rscale>  0 0.89030104E+02</rscale>
<asrwt>0</asrwt>
<pdfrwt beam="1">  1        2 0.57426915E-02 0.89030104E+02</pdfrwt>
<pdfrwt beam="2">  1       -2 0.81671695E-02 0.89030104E+02</pdfrwt>
<totfact> 0.10040218E+05</totfact>
</mgrwt>
</event>
<event>
 7    1  0.3960685E-009  0.9130105E+02  0.7818608E-02  0.1299731E+00
         -2   -1    0    0    0  501 -0.00000000000E+00  0.00000000000E+00  0.57088969459E+01  0.57088975154E+01  0.25500000000E-02 0.  1.
          2   -1    0    0  501    0  0.00000000000E+00 -0.00000000000E+00 -0.36503906256E+03  0.36503906257E+03  0.25500000000E-02 0. -1.
         23    2    1    2    0    0  0.00000000000E+00  0.35527136788E-14 -0.35933016562E+03  0.37074796009E+03  0.91301051398E+02 0.  0.
    9000005    2    3    3    0    0  0.35417279918E+02 -0.18529431586E+02 -0.26623939637E+03  0.26943845969E+03  0.10767721624E+02 0.  0.
         22    1    3    3    0    0 -0.35417279918E+02  0.18529431586E+02 -0.93090769242E+02  0.10130950039E+03  0.00000000000E+00 0.  1.
         22    1    4    4    0    0  0.18359292171E+02 -0.14379093099E+02 -0.13032735933E+03  0.13239729044E+03  0.00000000000E+00 0.  1.
         22    1    4    4    0    0  0.17057987746E+02 -0.41503384870E+01 -0.13591203705E+03  0.13704116925E+03  0.00000000000E+00 0.  1.
<mgrwt>
<rscale>  0 0.91301051E+02</rscale>
<asrwt>0</asrwt>
<pdfrwt beam="2">  1        2 0.56159838E-01 0.91301051E+02</pdfrwt>
<pdfrwt beam="1">  1       -2 0.87829217E-03 0.91301051E+02</pdfrwt>
<totfact> 0.19243887E+05</totfact>
</mgrwt>
</event>
<event>
 7    1  0.3960685E-009  0.9513814E+02  0.7818608E-02  0.1290865E+00
          2   -1    0    0  501    0  0.00000000000E+00  0.00000000000E+00  0.73862491518E+01  0.73862495920E+01  0.25500000000E-02 0. -1.
         -2   -1    0    0    0  501 -0.00000000000E+00 -0.00000000000E+00 -0.30635528898E+03  0.30635528899E+03  0.25500000000E-02 0.  1.
         23    2    1    2    0    0  0.00000000000E+00 -0.17763568394E-14 -0.29896903983E+03  0.31374153858E+03  0.95138143015E+02 0.  0.
    9000005    2    3    3    0    0  0.41303928995E+02 -0.15831404492E+02 -0.19817914429E+03  0.20367223786E+03  0.15835382072E+02 0.  0.
         22    1    3    3    0    0 -0.41303928995E+02  0.15831404492E+02 -0.10078989554E+03  0.11006930072E+03  0.00000000000E+00 0.  1.
         22    1    4    4    0    0  0.31340755537E+02 -0.18659106912E+02 -0.14719995910E+03  0.15165168376E+03  0.00000000000E+00 0.  1.
         22    1    4    4    0    0  0.99631734580E+01  0.28277024198E+01 -0.50979185191E+02  0.52020554102E+02  0.00000000000E+00 0.  1.
<mgrwt>
<rscale>  0 0.95138143E+02</rscale>
<asrwt>0</asrwt>
<pdfrwt beam="1">  1        2 0.11363463E-02 0.95138143E+02</pdfrwt>
<pdfrwt beam="2">  1       -2 0.47131573E-01 0.95138143E+02</pdfrwt>
<totfact> 0.45161684E+04</totfact>
</mgrwt>
</event>
<event>
 7    1  0.3960685E-009  0.9113745E+02  0.7818608E-02  0.1300120E+00
          2   -1    0    0  501    0  0.00000000000E+00  0.00000000000E+00  0.95834926725E+01  0.95834930118E+01  0.25500000000E-02 0. -1.
         -2   -1    0    0    0  501 -0.00000000000E+00 -0.00000000000E+00 -0.21667558212E+03  0.21667558213E+03  0.25500000000E-02 0.  1.
         23    2    1    2    0    0  0.00000000000E+00  0.00000000000E+00 -0.20709208945E+03  0.22625907515E+03  0.91137454290E+02 0.  0.
    9000005    2    3    3    0    0 -0.11243193098E+02 -0.34134488692E+02 -0.36048012066E+02  0.51480217397E+02  0.76929123173E+01 0.  0.
         22    1    3    3    0    0  0.11243193098E+02  0.34134488692E+02 -0.17104407738E+03  0.17477885775E+03  0.00000000000E+00 0.  1.
         22    1    4    4    0    0 -0.10471301875E+02 -0.24050965172E+02 -0.22403876475E+02  0.34496822604E+02  0.00000000000E+00 0.  1.
         22    1    4    4    0    0 -0.77189122332E+00 -0.10083523521E+02 -0.13644135591E+02  0.16983394793E+02  0.00000000000E+00 0.  1.
<mgrwt>
<rscale>  0 0.91137454E+02</rscale>
<asrwt>0</asrwt>
<pdfrwt beam="1">  1        2 0.14743837E-02 0.91137454E+02</pdfrwt>
<pdfrwt beam="2">  1       -2 0.33334701E-01 0.91137454E+02</pdfrwt>
<totfact> 0.60208816E+04</totfact>
</mgrwt>
</event>
<event>
 7    1  0.3960685E-009  0.9142180E+02  0.7818608E-02  0.1299445E+00
         -2   -1    0    0    0  501 -0.00000000000E+00  0.00000000000E+00  0.17507758517E+02  0.17507758703E+02  0.25500000000E-02 0.  1.
          2   -1    0    0  501    0  0.00000000000E+00 -0.00000000000E+00 -0.11934631524E+03  0.11934631527E+03  0.25500000000E-02 0. -1.
         23    2    1    2    0    0  0.00000000000E+00 -0.35527136788E-14 -0.10183855673E+03  0.13685407397E+03  0.91421802252E+02 0.  0.
    9000005    2    3    3    0    0  0.21338266150E+02 -0.31309320868E+02 -0.87318847268E+02  0.96278007896E+02  0.14466462621E+02 0.  0.
         22    1    3    3    0    0 -0.21338266150E+02  0.31309320868E+02 -0.14519709457E+02  0.40576066076E+02  0.00000000000E+00 0.  1.
         22    1    4    4    0    0  0.13474147635E+02 -0.27295454595E+02 -0.56000941392E+02  0.63739312303E+02  0.00000000000E+00 0.  1.
         22    1    4    4    0    0  0.78641185144E+01 -0.40138662734E+01 -0.31317905876E+02  0.32538695594E+02  0.00000000000E+00 0.  1.
<mgrwt>
<rscale>  0 0.91421802E+02</rscale>
<asrwt>0</asrwt>
<pdfrwt beam="2">  1        2 0.18360971E-01 0.91421802E+02</pdfrwt>
<pdfrwt beam="1">  1       -2 0.26935014E-02 0.91421802E+02</pdfrwt>
<totfact> 0.12868867E+05</totfact>
</mgrwt>
</event>
<event>
 7    1  0.3960685E-009  0.1004754E+03  0.7818608E-02  0.1279299E+00
         -2   -1    0    0    0  501 -0.00000000000E+00  0.00000000000E+00  0.28621933733E+02  0.28621933847E+02  0.25500000000E-02 0.  1.
          2   -1    0    0  501    0  0.00000000000E+00 -0.00000000000E+00 -0.88177991162E+02  0.88177991199E+02  0.25500000000E-02 0. -1.
         23    2    1    2    0    0  0.00000000000E+00  0.00000000000E+00 -0.59556057428E+02  0.11679992505E+03  0.10047536272E+03 0.  0.
    9000005    2    3    3    0    0 -0.18520681891E+02  0.45420334723E+02 -0.34633555679E+02  0.61780350734E+02  0.14536371411E+02 0.  0.
         22    1    3    3    0    0  0.18520681891E+02 -0.45420334723E+02 -0.24922501749E+02  0.55019574312E+02  0.00000000000E+00 0.  1.
         22    1    4    4    0    0 -0.13718913436E+02  0.31252400296E+02 -0.31606469957E+02  0.46517631638E+02  0.00000000000E+00 0.  1.
         22    1    4    4    0    0 -0.48017684555E+01  0.14167934427E+02 -0.30270857223E+01  0.15262719096E+02  0.00000000000E+00 0.  1.
<mgrwt>
<rscale>  0 0.10047536E+03</rscale>
<asrwt>0</asrwt>
<pdfrwt beam="2">  1        2 0.13565845E-01 0.10047536E+03</pdfrwt>
<pdfrwt beam="1">  1       -2 0.44033745E-02 0.10047536E+03</pdfrwt>
<totfact> 0.90100262E+04</totfact>
</mgrwt>
</event>
<event>
 7    1  0.3960685E-009  0.8922308E+02  0.7818608E-02  0.1304744E+00
          2   -1    0    0  501    0  0.00000000000E+00  0.00000000000E+00  0.15948116118E+03  0.15948116120E+03  0.25500000000E-02 0. -1.
         -2   -1    0    0    0  501 -0.00000000000E+00 -0.00000000000E+00 -0.12479151089E+02  0.12479151350E+02  0.25500000000E-02 0.  1.
         23    2    1    2    0    0 -0.35527136788E-14  0.00000000000E+00  0.14700201009E+03  0.17196031255E+03  0.89223080655E+02 0.  0.
    9000005    2    3    3    0    0  0.31722124561E+02  0.28726813098E+02  0.63206357560E+02  0.77868685077E+02  0.15393683841E+02 0.  0.
         22    1    3    3    0    0 -0.31722124561E+02 -0.28726813098E+02  0.83795652528E+02  0.94091627471E+02  0.00000000000E+00 0. -1.
         22    1    4    4    0    0  0.89053312820E+01  0.78291305734E+01  0.31083043611E+02  0.33267939686E+02  0.00000000000E+00 0. -1.
         22    1    4    4    0    0  0.22816793279E+02  0.20897682525E+02  0.32123313948E+02  0.44600745391E+02  0.00000000000E+00 0. -1.
<mgrwt>
<rscale>  0 0.89223081E+02</rscale>
<asrwt>0</asrwt>
<pdfrwt beam="1">  1        2 0.24535563E-01 0.89223081E+02</pdfrwt>
<pdfrwt beam="2">  1       -2 0.19198695E-02 0.89223081E+02</pdfrwt>
<totfact> 0.15138633E+05</totfact>
</mgrwt>
</event>
<event>
 7    1  0.3960685E-009  0.9181931E+02  0.7818608E-02  0.1298505E+00
         -2   -1    0    0    0  501 -0.00000000000E+00  0.00000000000E+00  0.10900672867E+02  0.10900673165E+02  0.25500000000E-02 0.  1.
          2   -1    0    0  501    0  0.00000000000E+00 -0.00000000000E+00 -0.19335470981E+03  0.19335470983E+03  0.25500000000E-02 0. -1.
         23    2    1    2    0    0  0.00000000000E+00  0.00000000000E+00 -0.18245403695E+03  0.20425538299E+03  0.91819311065E+02 0.  0.
    9000005    2    3    3    0    0 -0.20501005062E+02 -0.38959126992E+02 -0.76481438407E+02  0.89502185106E+02  0.14937400493E+02 0.  0.
         22    1    3    3    0    0  0.20501005062E+02  0.38959126992E+02 -0.10597259854E+03  0.11475319789E+03  0.00000000000E+00 0.  1.
         22    1    4    4    0    0 -0.16855795543E+02 -0.18497966650E+02 -0.49273071170E+02  0.55264167017E+02  0.00000000000E+00 0.  1.
         22    1    4    4    0    0 -0.36452095195E+01 -0.20461160342E+02 -0.27208367237E+02  0.34238018089E+02  0.00000000000E+00 0.  1.
<mgrwt>
<rscale>  0 0.91819311E+02</rscale>
<asrwt>0</asrwt>
<pdfrwt beam="2">  1        2 0.29746876E-01 0.91819311E+02</pdfrwt>
<pdfrwt beam="1">  1       -2 0.16770268E-02 0.91819311E+02</pdfrwt>
<totfact> 0.14993843E+05</totfact>
</mgrwt>
</event>
<event>
 7    1  0.3960685E-009  0.9508980E+02  0.7818608E-02  0.1290974E+00
          2   -1    0    0  501    0  0.00000000000E+00  0.00000000000E+00  0.32171191388E+03  0.32171191389E+03  0.25500000000E-02 0. -1.
         -2   -1    0    0    0  501 -0.00000000000E+00 -0.00000000000E+00 -0.70265264302E+01  0.70265268930E+01  0.25500000000E-02 0.  1.
         23    2    1    2    0    0 -0.17763568394E-14  0.00000000000E+00  0.31468538745E+03  0.32873844079E+03  0.95089796372E+02 0.  0.
    9000005    2    3    3    0    0  0.11384000954E+02  0.33940263994E+02  0.26428976347E+03  0.26692213295E+03  0.10807820616E+02 0.  0.
         22    1    3    3    0    0 -0.11384000954E+02 -0.33940263994E+02  0.50395623981E+02  0.61816307833E+02  0.00000000000E+00 0.  1.
         22    1    4    4    0    0  0.63876585493E+01  0.54265011085E+01  0.66150682909E+02  0.66679546679E+02  0.00000000000E+00 0.  1.
         22    1    4    4    0    0  0.49963424046E+01  0.28513762885E+02  0.19813908056E+03  0.20024258627E+03  0.00000000000E+00 0.  1.
<mgrwt>
<rscale>  0 0.95089796E+02</rscale>
<asrwt>0</asrwt>
<pdfrwt beam="1">  1        2 0.49494144E-01 0.95089796E+02</pdfrwt>
<pdfrwt beam="2">  1       -2 0.10810040E-02 0.95089796E+02</pdfrwt>
<totfact> 0.16479924E+05</totfact>
</mgrwt>
</event>
<event>
 7    1  0.3960685E-009  0.9019267E+02  0.7818608E-02  0.1302386E+00
         -2   -1    0    0    0  501 -0.00000000000E+00  0.00000000000E+00  0.12361028002E+02  0.12361028265E+02  0.25500000000E-02 0.  1.
          2   -1    0    0  501    0  0.00000000000E+00 -0.00000000000E+00 -0.16452347910E+03  0.16452347912E+03  0.25500000000E-02 0. -1.
         23    2    1    2    0    0  0.00000000000E+00  0.44408920985E-15 -0.15216245110E+03  0.17688450738E+03  0.90192668375E+02 0.  0.
    9000005    2    3    3    0    0 -0.31959722723E+02  0.36912485697E+01 -0.13721731503E+03  0.14141048471E+03  0.11544888435E+02 0.  0.
         22    1    3    3    0    0  0.31959722723E+02 -0.36912485697E+01 -0.14945136062E+02  0.35474022671E+02  0.00000000000E+00 0.  1.
         22    1    4    4    0    0 -0.38594723102E+01  0.46442899004E+01 -0.26426698572E+02  0.27107846698E+02  0.00000000000E+00 0. -1.
         22    1    4    4    0    0 -0.28100250413E+02 -0.95304133073E+00 -0.11079061646E+03  0.11430263801E+03  0.00000000000E+00 0. -1.
<mgrwt>
<rscale>  0 0.90192668E+02</rscale>
<asrwt>0</asrwt>
<pdfrwt beam="2">  1        2 0.25311303E-01 0.90192668E+02</pdfrwt>
<pdfrwt beam="1">  1       -2 0.19016967E-02 0.90192668E+02</pdfrwt>
<totfact> 0.14861881E+05</totfact>
</mgrwt>
</event>
<event>
 6    1  0.4823052E-009  0.3417766E+03  0.7818608E-02  0.1066042E+00
         -2   -1    0    0    0  501 -0.00000000000E+00  0.00000000000E+00  0.21462113332E+02  0.21462113484E+02  0.25500000000E-02 0.  1.
          2   -1    0    0  501    0  0.00000000000E+00 -0.00000000000E+00 -0.13606680924E+04  0.13606680924E+04  0.25500000000E-02 0. -1.
    9000005    2    1    2    0    0 -0.91359764789E+02  0.13383397309E+03 -0.45202289675E+03  0.48026992817E+03  0.87387493944E+01 0.  0.
         22    1    1    2    0    0  0.91359764789E+02 -0.13383397309E+03 -0.88718308235E+03  0.90186027775E+03  0.00000000000E+00 0. -1.
         22    1    3    3    0    0 -0.79062838138E+02  0.12009220436E+03 -0.40456928360E+03  0.42935926118E+03  0.00000000000E+00 0. -1.
         22    1    3    3    0    0 -0.12296926651E+02  0.13741768734E+02 -0.47453613150E+02  0.50910666996E+02  0.00000000000E+00 0. -1.
<mgrwt>
<rscale>  0 0.34177661E+03</rscale>
<asrwt>0</asrwt>
<pdfrwt beam="2">  1        2 0.20933348E+00 0.34177661E+03</pdfrwt>
<pdfrwt beam="1">  1       -2 0.33018647E-02 0.34177661E+03</pdfrwt>
<totfact> 0.59782924E+03</totfact>
</mgrwt>
</event>
<event>
 7    1  0.3960685E-009  0.9116938E+02  0.7818608E-02  0.1300044E+00
         -2   -1    0    0    0  501 -0.00000000000E+00  0.00000000000E+00  0.42526864075E+03  0.42526864076E+03  0.25500000000E-02 0.  1.
          2   -1    0    0  501    0  0.00000000000E+00 -0.00000000000E+00 -0.48862377151E+01  0.48862383805E+01  0.25500000000E-02 0. -1.
         23    2    1    2    0    0 -0.17763568394E-14  0.35527136788E-14  0.42038240304E+03  0.43015487914E+03  0.91169376793E+02 0.  0.
    9000005    2    3    3    0    0  0.12957007364E+02 -0.21281274588E+02  0.38958820163E+03  0.39054352309E+03  0.11157951835E+02 0.  0.
         22    1    3    3    0    0 -0.12957007364E+02  0.21281274588E+02  0.30794201405E+02  0.39611356049E+02  0.00000000000E+00 0. -1.
         22    1    4    4    0    0  0.10172562261E+02 -0.21786961799E+02  0.36541358767E+03  0.36620382682E+03  0.00000000000E+00 0. -1.
         22    1    4    4    0    0  0.27844451031E+01  0.50568721096E+00  0.24174613965E+02  0.24339696269E+02  0.00000000000E+00 0. -1.
<mgrwt>
<rscale>  0 0.91169377E+02</rscale>
<asrwt>0</asrwt>
<pdfrwt beam="2">  1        2 0.75172905E-03 0.91169377E+02</pdfrwt>
<pdfrwt beam="1">  1       -2 0.65425935E-01 0.91169377E+02</pdfrwt>
<totfact> 0.40934761E+04</totfact>
</mgrwt>
</event>
<event>
 7    1  0.3960685E-009  0.9679151E+02  0.7818608E-02  0.1287191E+00
         -2   -1    0    0    0  501 -0.00000000000E+00  0.00000000000E+00  0.14733401902E+03  0.14733401904E+03  0.25500000000E-02 0.  1.
          2   -1    0    0  501    0  0.00000000000E+00 -0.00000000000E+00 -0.15896864246E+02  0.15896864451E+02  0.25500000000E-02 0. -1.
         23    2    1    2    0    0  0.00000000000E+00  0.00000000000E+00  0.13143715477E+03  0.16323088349E+03  0.96791506191E+02 0.  0.
    9000005    2    3    3    0    0 -0.12674431959E+02  0.23776811908E+02  0.12964830133E+01  0.30330272297E+02  0.13866021037E+02 0.  0.
         22    1    3    3    0    0  0.12674431959E+02 -0.23776811908E+02  0.13014067176E+03  0.13290061119E+03  0.00000000000E+00 0.  1.
         22    1    4    4    0    0  0.16981388850E+01 -0.11671585831E+00 -0.15500664272E+01  0.23021737973E+01  0.00000000000E+00 0. -1.
         22    1    4    4    0    0 -0.14372570844E+02  0.23893527766E+02  0.28465494405E+01  0.28028098499E+02  0.00000000000E+00 0. -1.
<mgrwt>
<rscale>  0 0.96791506E+02</rscale>
<asrwt>0</asrwt>
<pdfrwt beam="2">  1        2 0.24456715E-02 0.96791506E+02</pdfrwt>
<pdfrwt beam="1">  1       -2 0.22666772E-01 0.96791506E+02</pdfrwt>
<totfact> 0.60437261E+04</totfact>
</mgrwt>
</event>
<event>
 7    1  0.3960685E-009  0.9112390E+02  0.7818608E-02  0.1300153E+00
          2   -1    0    0  501    0  0.00000000000E+00  0.00000000000E+00  0.27579975446E+03  0.27579975447E+03  0.25500000000E-02 0. -1.
         -2   -1    0    0    0  501 -0.00000000000E+00 -0.00000000000E+00 -0.75268058518E+01  0.75268062838E+01  0.25500000000E-02 0.  1.
         23    2    1    2    0    0  0.00000000000E+00  0.00000000000E+00  0.26827294861E+03  0.28332656075E+03  0.91123899580E+02 0.  0.
    9000005    2    3    3    0    0 -0.89650098989E+01  0.16009301780E+02  0.26354924692E+03  0.26437972715E+03  0.10087885229E+02 0.  0.
         22    1    3    3    0    0  0.89650098989E+01 -0.16009301780E+02  0.47237016824E+01  0.18946833603E+02  0.00000000000E+00 0.  1.
         22    1    4    4    0    0 -0.53904109364E+01  0.78088940467E+01  0.19745349911E+03  0.19768135893E+03  0.00000000000E+00 0.  1.
         22    1    4    4    0    0 -0.35745989625E+01  0.82004077335E+01  0.66095747813E+02  0.66698368224E+02  0.00000000000E+00 0.  1.
<mgrwt>
<rscale>  0 0.91123900E+02</rscale>
<asrwt>0</asrwt>
<pdfrwt beam="1">  1        2 0.42430729E-01 0.91123900E+02</pdfrwt>
<pdfrwt beam="2">  1       -2 0.11579702E-02 0.91123900E+02</pdfrwt>
<totfact> 0.17438274E+05</totfact>
</mgrwt>
</event>
<event>
 7    1  0.3960685E-009  0.8633516E+02  0.7818608E-02  0.1311977E+00
         -2   -1    0    0    0  501 -0.00000000000E+00  0.00000000000E+00  0.25514246269E+02  0.25514246396E+02  0.25500000000E-02 0.  1.
          2   -1    0    0  501    0  0.00000000000E+00 -0.00000000000E+00 -0.73035267369E+02  0.73035267414E+02  0.25500000000E-02 0. -1.
         23    2    1    2    0    0 -0.35527136788E-14  0.35527136788E-14 -0.47521021101E+02  0.98549513810E+02  0.86335156372E+02 0.  0.
    9000005    2    3    3    0    0 -0.22448606660E+02  0.20841967253E+02  0.78732657266E+01  0.35249793802E+02  0.15563807693E+02 0.  0.
         22    1    3    3    0    0  0.22448606660E+02 -0.20841967253E+02 -0.55394286827E+02  0.63299720008E+02  0.00000000000E+00 0.  1.
         22    1    4    4    0    0 -0.22012787145E+02  0.15409660424E+02  0.15685696374E+01  0.26916181805E+02  0.00000000000E+00 0.  1.
         22    1    4    4    0    0 -0.43581951537E+00  0.54323068295E+01  0.63046960892E+01  0.83336119970E+01  0.00000000000E+00 0.  1.
<mgrwt>
<rscale>  0 0.86335156E+02</rscale>
<asrwt>0</asrwt>
<pdfrwt beam="2">  1        2 0.11236195E-01 0.86335156E+02</pdfrwt>
<pdfrwt beam="1">  1       -2 0.39252687E-02 0.86335156E+02</pdfrwt>
<totfact> 0.13024606E+05</totfact>
</mgrwt>
</event>
<event>
 7    1  0.3960685E-009  0.9289905E+02  0.7818608E-02  0.1295979E+00
         -2   -1    0    0    0  501 -0.00000000000E+00  0.00000000000E+00  0.13876892809E+02  0.13876893044E+02  0.25500000000E-02 0.  1.
          2   -1    0    0  501    0  0.00000000000E+00 -0.00000000000E+00 -0.15547849951E+03  0.15547849953E+03  0.25500000000E-02 0. -1.
         23    2    1    2    0    0 -0.71054273576E-14  0.00000000000E+00 -0.14160160670E+03  0.16935539257E+03  0.92899052598E+02 0.  0.
    9000005    2    3    3    0    0 -0.43429979480E+02 -0.12048034125E+02 -0.74297926337E+02  0.88354752858E+02  0.15970668448E+02 0.  0.
         22    1    3    3    0    0  0.43429979480E+02  0.12048034125E+02 -0.67303680361E+02  0.81000639714E+02  0.00000000000E+00 0. -1.
         22    1    4    4    0    0 -0.17054926068E+02  0.29680385870E+01 -0.30468986235E+02  0.35043385659E+02  0.00000000000E+00 0. -1.
         22    1    4    4    0    0 -0.26375053412E+02 -0.15016072712E+02 -0.43828940101E+02  0.53311367199E+02  0.00000000000E+00 0. -1.
<mgrwt>
<rscale>  0 0.92899053E+02</rscale>
<asrwt>0</asrwt>
<pdfrwt beam="2">  1        2 0.23919768E-01 0.92899053E+02</pdfrwt>
<pdfrwt beam="1">  1       -2 0.21349067E-02 0.92899053E+02</pdfrwt>
<totfact> 0.13451808E+05</totfact>
</mgrwt>
</event>
<event>
 7    1  0.3960685E-009  0.9246650E+02  0.7818608E-02  0.1296986E+00
         -2   -1    0    0    0  501 -0.00000000000E+00  0.00000000000E+00  0.58851932801E+02  0.58851932857E+02  0.25500000000E-02 0.  1.
          2   -1    0    0  501    0  0.00000000000E+00 -0.00000000000E+00 -0.36320191293E+02  0.36320191382E+02  0.25500000000E-02 0. -1.
         23    2    1    2    0    0  0.00000000000E+00  0.00000000000E+00  0.22531741509E+02  0.95172124239E+02  0.92466501268E+02 0.  0.
    9000005    2    3    3    0    0 -0.38708148868E+01 -0.44668197631E+02 -0.27746217102E+00  0.44868139705E+02  0.16857899742E+01 0.  0.
         22    1    3    3    0    0  0.38708148868E+01  0.44668197631E+02  0.22809203680E+02  0.50303984534E+02  0.00000000000E+00 0. -1.
         22    1    4    4    0    0 -0.42519069779E-01 -0.78484109461E+01 -0.12759994516E+00  0.78495632997E+01  0.00000000000E+00 0.  1.
         22    1    4    4    0    0 -0.38282958170E+01 -0.36819786685E+02 -0.14986222586E+00  0.37018576405E+02  0.00000000000E+00 0.  1.
<mgrwt>
<rscale>  0 0.92466501E+02</rscale>
<asrwt>0</asrwt>
<pdfrwt beam="2">  1        2 0.55877218E-02 0.92466501E+02</pdfrwt>
<pdfrwt beam="1">  1       -2 0.90541435E-02 0.92466501E+02</pdfrwt>
<totfact> 0.89284920E+04</totfact>
</mgrwt>
</event>
<event>
 7    1  0.3960685E-009  0.9702172E+02  0.7818608E-02  0.1286687E+00
          2   -1    0    0  501    0  0.00000000000E+00  0.00000000000E+00  0.14719858977E+02  0.14719859198E+02  0.25500000000E-02 0. -1.
         -2   -1    0    0    0  501 -0.00000000000E+00 -0.00000000000E+00 -0.15987269716E+03  0.15987269718E+03  0.25500000000E-02 0.  1.
         23    2    1    2    0    0  0.35527136788E-14  0.00000000000E+00 -0.14515283819E+03  0.17459255638E+03  0.97021720815E+02 0.  0.
    9000005    2    3    3    0    0  0.24826732426E+02  0.68143271396E+01 -0.14599899238E+03  0.14883371956E+03  0.13151752976E+02 0.  0.
         22    1    3    3    0    0 -0.24826732426E+02 -0.68143271396E+01  0.84615419082E+00  0.25758836818E+02  0.00000000000E+00 0. -1.
         22    1    4    4    0    0 -0.19591033110E+00  0.36788977469E+01 -0.19750345856E+02  0.20091013686E+02  0.00000000000E+00 0. -1.
         22    1    4    4    0    0  0.25022642757E+02  0.31354293927E+01 -0.12624864652E+03  0.12874270588E+03  0.00000000000E+00 0. -1.
<mgrwt>
<rscale>  0 0.97021721E+02</rscale>
<asrwt>0</asrwt>
<pdfrwt beam="1">  1        2 0.22645938E-02 0.97021721E+02</pdfrwt>
<pdfrwt beam="2">  1       -2 0.24595798E-01 0.97021721E+02</pdfrwt>
<totfact> 0.58264985E+04</totfact>
</mgrwt>
</event>
<event>
 7    1  0.3960685E-009  0.8045076E+02  0.7818608E-02  0.1327777E+00
          2   -1    0    0  501    0  0.00000000000E+00  0.00000000000E+00  0.26337036775E+02  0.26337036899E+02  0.25500000000E-02 0. -1.
         -2   -1    0    0    0  501 -0.00000000000E+00 -0.00000000000E+00 -0.61437486147E+02  0.61437486200E+02  0.25500000000E-02 0.  1.
         23    2    1    2    0    0  0.00000000000E+00 -0.35527136788E-14 -0.35100449371E+02  0.87774523098E+02  0.80450763571E+02 0.  0.
    9000005    2    3    3    0    0  0.33606498276E+02 -0.19948182487E+02 -0.15474169873E+02  0.44042183145E+02  0.13150560900E+02 0.  0.
         22    1    3    3    0    0 -0.33606498276E+02  0.19948182487E+02 -0.19626279498E+02  0.43732339954E+02  0.00000000000E+00 0. -1.
         22    1    4    4    0    0  0.16772266719E+02 -0.72521275964E+01 -0.68177774356E+00  0.18285707710E+02  0.00000000000E+00 0. -1.
         22    1    4    4    0    0  0.16834231557E+02 -0.12696054890E+02 -0.14792392130E+02  0.25756475434E+02  0.00000000000E+00 0. -1.
<mgrwt>
<rscale>  0 0.80450764E+02</rscale>
<asrwt>0</asrwt>
<pdfrwt beam="1">  1        2 0.40518518E-02 0.80450764E+02</pdfrwt>
<pdfrwt beam="2">  1       -2 0.94519209E-02 0.80450764E+02</pdfrwt>
<totfact> 0.12362330E+05</totfact>
</mgrwt>
</event>
<event>
 7    1  0.3960685E-009  0.8314460E+02  0.7818608E-02  0.1320357E+00
          2   -1    0    0  501    0  0.00000000000E+00  0.00000000000E+00  0.81543384090E+02  0.81543384130E+02  0.25500000000E-02 0.  1.
         -2   -1    0    0    0  501 -0.00000000000E+00 -0.00000000000E+00 -0.21194316736E+02  0.21194316890E+02  0.25500000000E-02 0. -1.
         23    2    1    2    0    0  0.00000000000E+00  0.00000000000E+00  0.60349067354E+02  0.10273770102E+03  0.83144604638E+02 0.  0.
    9000005    2    3    3    0    0 -0.32810250717E+02  0.25282471223E+02  0.25947100895E+02  0.48893377275E+02  0.12626928606E+01 0.  0.
         22    1    3    3    0    0  0.32810250717E+02 -0.25282471223E+02  0.34401966460E+02  0.53844323745E+02  0.00000000000E+00 0. -1.
         22    1    4    4    0    0 -0.21341683509E+02  0.15769634208E+02  0.16951211632E+02  0.31487972209E+02  0.00000000000E+00 0.  1.
         22    1    4    4    0    0 -0.11468567209E+02  0.95128370151E+01  0.89958892623E+01  0.17405405066E+02  0.00000000000E+00 0.  1.
<mgrwt>
<rscale>  0 0.83144605E+02</rscale>
<asrwt>0</asrwt>
<pdfrwt beam="1">  1        2 0.12545136E-01 0.83144605E+02</pdfrwt>
<pdfrwt beam="2">  1       -2 0.32606642E-02 0.83144605E+02</pdfrwt>
<totfact> 0.14889280E+05</totfact>
</mgrwt>
</event>
<event>
 7    1  0.3960685E-009  0.8921315E+02  0.7818608E-02  0.1304768E+00
          2   -1    0    0  501    0  0.00000000000E+00  0.00000000000E+00  0.20783853885E+03  0.20783853886E+03  0.25500000000E-02 0. -1.
         -2   -1    0    0    0  501 -0.00000000000E+00 -0.00000000000E+00 -0.95735202847E+01  0.95735206243E+01  0.25500000000E-02 0.  1.
         23    2    1    2    0    0  0.00000000000E+00 -0.88817841970E-15  0.19826501856E+03  0.21741205949E+03  0.89213149394E+02 0.  0.
    9000005    2    3    3    0    0  0.40300319632E+02 -0.67941015344E+01  0.58445005098E+02  0.71741500542E+02  0.77941453022E+01 0.  0.
         22    1    3    3    0    0 -0.40300319632E+02  0.67941015344E+01  0.13982001346E+03  0.14567055894E+03  0.00000000000E+00 0.  1.
         22    1    4    4    0    0  0.28476603869E+02 -0.46241662740E+01  0.34695325493E+02  0.45122782413E+02  0.00000000000E+00 0.  1.
         22    1    4    4    0    0  0.11823715764E+02 -0.21699352605E+01  0.23749679605E+02  0.26618718129E+02  0.00000000000E+00 0.  1.
<mgrwt>
<rscale>  0 0.89213149E+02</rscale>
<asrwt>0</asrwt>
<pdfrwt beam="1">  1        2 0.31975157E-01 0.89213149E+02</pdfrwt>
<pdfrwt beam="2">  1       -2 0.14728494E-02 0.89213149E+02</pdfrwt>
<totfact> 0.16629235E+05</totfact>
</mgrwt>
</event>
<event>
 7    1  0.3960685E-009  0.8992310E+02  0.7818608E-02  0.1303038E+00
         -2   -1    0    0    0  501 -0.00000000000E+00  0.00000000000E+00  0.42180439148E+01  0.42180446856E+01  0.25500000000E-02 0.  1.
          2   -1    0    0  501    0  0.00000000000E+00 -0.00000000000E+00 -0.47926025060E+03  0.47926025061E+03  0.25500000000E-02 0. -1.
         23    2    1    2    0    0  0.00000000000E+00  0.00000000000E+00 -0.47504220669E+03  0.48347829530E+03  0.89923099849E+02 0.  0.
    9000005    2    3    3    0    0 -0.15032754712E+02 -0.21585814938E+02 -0.43285401716E+03  0.43376135194E+03  0.97148929846E+01 0.  0.
         22    1    3    3    0    0  0.15032754712E+02  0.21585814938E+02 -0.42188189528E+02  0.49716943353E+02  0.00000000000E+00 0.  1.
         22    1    4    4    0    0 -0.11873935921E+02 -0.16753427209E+02 -0.38714245712E+03  0.38768666444E+03  0.00000000000E+00 0.  1.
         22    1    4    4    0    0 -0.31588187909E+01 -0.48323877298E+01 -0.45711560041E+02  0.46074687505E+02  0.00000000000E+00 0.  1.
<mgrwt>
<rscale>  0 0.89923100E+02</rscale>
<asrwt>0</asrwt>
<pdfrwt beam="2">  1        2 0.73732303E-01 0.89923100E+02</pdfrwt>
<pdfrwt beam="1">  1       -2 0.64893027E-03 0.89923100E+02</pdfrwt>
<totfact> 0.22044314E+05</totfact>
</mgrwt>
</event>
<event>
 7    1  0.3960685E-009  0.9113133E+02  0.7818608E-02  0.1300135E+00
         -2   -1    0    0    0  501 -0.00000000000E+00  0.00000000000E+00  0.23599912708E+01  0.23599926484E+01  0.25500000000E-02 0.  1.
          2   -1    0    0  501    0  0.00000000000E+00 -0.00000000000E+00 -0.87976145493E+03  0.87976145493E+03  0.25500000000E-02 0. -1.
         23    2    1    2    0    0  0.00000000000E+00  0.00000000000E+00 -0.87740146365E+03  0.88212144758E+03  0.91131332993E+02 0.  0.
    9000005    2    3    3    0    0  0.13752216159E+02  0.75840418477E+01 -0.85265843547E+03  0.85281515843E+03  0.45437567066E+01 0.  0.
         22    1    3    3    0    0 -0.13752216159E+02 -0.75840418477E+01 -0.24743028185E+02  0.29306289150E+02  0.00000000000E+00 0.  1.
         22    1    4    4    0    0  0.88886435061E+01  0.71841973843E+01 -0.56937826453E+03  0.56949295763E+03  0.00000000000E+00 0.  1.
         22    1    4    4    0    0  0.48635726525E+01  0.39984446339E+00 -0.28328017094E+03  0.28332220080E+03  0.00000000000E+00 0.  1.
<mgrwt>
<rscale>  0 0.91131333E+02</rscale>
<asrwt>0</asrwt>
<pdfrwt beam="2">  1        2 0.13534765E+00 0.91131333E+02</pdfrwt>
<pdfrwt beam="1">  1       -2 0.36307639E-03 0.91131333E+02</pdfrwt>
<totfact> 0.24759639E+05</totfact>
</mgrwt>
</event>
<event>
 7    1  0.3960685E-009  0.9176223E+02  0.7818608E-02  0.1298639E+00
         -2   -1    0    0    0  501 -0.00000000000E+00  0.00000000000E+00  0.25137923827E+03  0.25137923828E+03  0.25500000000E-02 0.  1.
          2   -1    0    0  501    0  0.00000000000E+00 -0.00000000000E+00 -0.83741076330E+01  0.83741080212E+01  0.25500000000E-02 0. -1.
         23    2    1    2    0    0  0.00000000000E+00  0.17763568394E-14  0.24300513064E+03  0.25975334631E+03  0.91762232974E+02 0.  0.
    9000005    2    3    3    0    0 -0.33003144968E+02 -0.13738695379E+02  0.20100657227E+03  0.20460048388E+03  0.13407333097E+02 0.  0.
         22    1    3    3    0    0  0.33003144968E+02  0.13738695379E+02  0.41998558373E+02  0.55152862428E+02  0.00000000000E+00 0. -1.
         22    1    4    4    0    0 -0.23012699158E+02 -0.11546758713E+02  0.17029896353E+03  0.17223428503E+03  0.00000000000E+00 0.  1.
         22    1    4    4    0    0 -0.99904458106E+01 -0.21919366661E+01  0.30707608737E+02  0.32366198853E+02  0.00000000000E+00 0.  1.
<mgrwt>
<rscale>  0 0.91762233E+02</rscale>
<asrwt>0</asrwt>
<pdfrwt beam="2">  1        2 0.12883243E-02 0.91762233E+02</pdfrwt>
<pdfrwt beam="1">  1       -2 0.38673729E-01 0.91762233E+02</pdfrwt>
<totfact> 0.55109065E+04</totfact>
</mgrwt>
</event>
<event>
 7    1  0.3960685E-009  0.9095582E+02  0.7818608E-02  0.1300553E+00
          2   -1    0    0  501    0  0.00000000000E+00  0.00000000000E+00  0.56220391689E+03  0.56220391690E+03  0.25500000000E-02 0. -1.
         -2   -1    0    0    0  501 -0.00000000000E+00 -0.00000000000E+00 -0.36788076767E+01  0.36788085605E+01  0.25500000000E-02 0.  1.
         23    2    1    2    0    0 -0.17763568394E-14  0.71054273576E-14  0.55852510922E+03  0.56588272546E+03  0.90955820859E+02 0.  0.
    9000005    2    3    3    0    0 -0.91956642959E+01  0.42352712913E+02  0.36216453320E+03  0.36479620591E+03  0.59000171029E+01 0.  0.
         22    1    3    3    0    0  0.91956642959E+01 -0.42352712913E+02  0.19636057602E+03  0.20108651955E+03  0.00000000000E+00 0.  1.
         22    1    4    4    0    0 -0.52800524800E+01  0.28627734281E+02  0.26386129220E+03  0.26546225277E+03  0.00000000000E+00 0. -1.
         22    1    4    4    0    0 -0.39156118159E+01  0.13724978632E+02  0.98303241007E+02  0.99333953142E+02  0.00000000000E+00 0. -1.
<mgrwt>
<rscale>  0 0.90955821E+02</rscale>
<asrwt>0</asrwt>
<pdfrwt beam="1">  1        2 0.86493007E-01 0.90955821E+02</pdfrwt>
<pdfrwt beam="2">  1       -2 0.56596985E-03 0.90955821E+02</pdfrwt>
<totfact> 0.22499739E+05</totfact>
</mgrwt>
</event>
<event>
 7    1  0.3960685E-009  0.9248604E+02  0.7818608E-02  0.1296941E+00
         -2   -1    0    0    0  501 -0.00000000000E+00  0.00000000000E+00  0.25882146324E+02  0.25882146450E+02  0.25500000000E-02 0.  1.
          2   -1    0    0  501    0  0.00000000000E+00 -0.00000000000E+00 -0.82621308336E+02  0.82621308375E+02  0.25500000000E-02 0. -1.
         23    2    1    2    0    0  0.00000000000E+00  0.00000000000E+00 -0.56739162011E+02  0.10850345483E+03  0.92486037883E+02 0.  0.
    9000005    2    3    3    0    0 -0.31534692137E+02  0.33220379841E+02 -0.33967610759E+02  0.57350996513E+02  0.61080091141E+01 0.  0.
         22    1    3    3    0    0  0.31534692137E+02 -0.33220379841E+02 -0.22771551252E+02  0.51152458312E+02  0.00000000000E+00 0.  1.
         22    1    4    4    0    0 -0.13219508337E+02  0.13944456651E+02 -0.10555303741E+02  0.21922994983E+02  0.00000000000E+00 0. -1.
         22    1    4    4    0    0 -0.18315183800E+02  0.19275923190E+02 -0.23412307019E+02  0.35428001530E+02  0.00000000000E+00 0. -1.
<mgrwt>
<rscale>  0 0.92486038E+02</rscale>
<asrwt>0</asrwt>
<pdfrwt beam="2">  1        2 0.12710970E-01 0.92486038E+02</pdfrwt>
<pdfrwt beam="1">  1       -2 0.39818687E-02 0.92486038E+02</pdfrwt>
<totfact> 0.11141830E+05</totfact>
</mgrwt>
</event>
<event>
 7    1  0.3960685E-009  0.9023085E+02  0.7818608E-02  0.1302294E+00
          2   -1    0    0  501    0  0.00000000000E+00  0.00000000000E+00  0.26576179724E+02  0.26576179846E+02  0.25500000000E-02 0. -1.
         -2   -1    0    0    0  501 -0.00000000000E+00 -0.00000000000E+00 -0.76587433171E+02  0.76587433213E+02  0.25500000000E-02 0.  1.
         23    2    1    2    0    0  0.00000000000E+00  0.00000000000E+00 -0.50011253447E+02  0.10316361306E+03  0.90230846101E+02 0.  0.
    9000005    2    3    3    0    0  0.28187425304E+02 -0.12705248759E+02  0.10354150733E+02  0.35340782736E+02  0.13631147996E+02 0.  0.
         22    1    3    3    0    0 -0.28187425304E+02  0.12705248759E+02 -0.60365404180E+02  0.67822830324E+02  0.00000000000E+00 0.  1.
         22    1    4    4    0    0  0.23784836472E+02 -0.74990806277E+01  0.12881453008E+02  0.28069315771E+02  0.00000000000E+00 0. -1.
         22    1    4    4    0    0  0.44025888323E+01 -0.52061681309E+01 -0.25273022747E+01  0.72714669649E+01  0.00000000000E+00 0. -1.
<mgrwt>
<rscale>  0 0.90230846E+02</rscale>
<asrwt>0</asrwt>
<pdfrwt beam="1">  1        2 0.40886431E-02 0.90230846E+02</pdfrwt>
<pdfrwt beam="2">  1       -2 0.11782682E-01 0.90230846E+02</pdfrwt>
<totfact> 0.88330575E+04</totfact>
</mgrwt>
</event>
<event>
 7    1  0.3960685E-009  0.9081896E+02  0.7818608E-02  0.1300880E+00
         -2   -1    0    0    0  501 -0.00000000000E+00  0.00000000000E+00  0.18240279528E+01  0.18240297353E+01  0.25500000000E-02 0.  1.
          2   -1    0    0  501    0  0.00000000000E+00 -0.00000000000E+00 -0.11304760778E+04  0.11304760778E+04  0.25500000000E-02 0. -1.
         23    2    1    2    0    0  0.00000000000E+00  0.35527136788E-14 -0.11286520498E+04  0.11323001075E+04  0.90818962262E+02 0.  0.
    9000005    2    3    3    0    0 -0.15492936270E+02 -0.29802345892E+02 -0.94214785028E+03  0.94279541802E+03  0.96134045859E+01 0.  0.
         22    1    3    3    0    0  0.15492936270E+02  0.29802345892E+02 -0.18650419954E+03  0.18950468949E+03  0.00000000000E+00 0.  1.
         22    1    4    4    0    0 -0.15170304053E+02 -0.24495174976E+02 -0.85514767532E+03  0.85563292265E+03  0.00000000000E+00 0. -1.
         22    1    4    4    0    0 -0.32263221650E+00 -0.53071709156E+01 -0.87000174959E+02  0.87162495361E+02  0.00000000000E+00 0. -1.
<mgrwt>
<rscale>  0 0.90818962E+02</rscale>
<asrwt>0</asrwt>
<pdfrwt beam="2">  1        2 0.17391884E+00 0.90818962E+02</pdfrwt>
<pdfrwt beam="1">  1       -2 0.28062072E-03 0.90818962E+02</pdfrwt>
<totfact> 0.25249979E+05</totfact>
</mgrwt>
</event>
<event>
 7    1  0.3960685E-009  0.9169637E+02  0.7818608E-02  0.1298795E+00
         -2   -1    0    0    0  501 -0.00000000000E+00  0.00000000000E+00  0.19400092241E+03  0.19400092243E+03  0.25500000000E-02 0.  1.
          2   -1    0    0  501    0  0.00000000000E+00 -0.00000000000E+00 -0.10835288879E+02  0.10835289179E+02  0.25500000000E-02 0. -1.
         23    2    1    2    0    0  0.00000000000E+00  0.88817841970E-15  0.18316563353E+03  0.20483621161E+03  0.91696370038E+02 0.  0.
    9000005    2    3    3    0    0 -0.12835042029E+02  0.66371200145E+01  0.18874820197E+03  0.18934573917E+03  0.41395081683E+01 0.  0.
         22    1    3    3    0    0  0.12835042029E+02 -0.66371200145E+01 -0.55825684395E+01  0.15490472438E+02  0.00000000000E+00 0. -1.
         22    1    4    4    0    0 -0.39345164958E+01  0.59771446367E+00  0.36000515191E+02  0.36219811936E+02  0.00000000000E+00 0. -1.
         22    1    4    4    0    0 -0.89005255331E+01  0.60394055509E+01  0.15274768678E+03  0.15312592723E+03  0.00000000000E+00 0. -1.
<mgrwt>
<rscale>  0 0.91696370E+02</rscale>
<asrwt>0</asrwt>
<pdfrwt beam="2">  1        2 0.16669674E-02 0.91696370E+02</pdfrwt>
<pdfrwt beam="1">  1       -2 0.29846298E-01 0.91696370E+02</pdfrwt>
<totfact> 0.62228983E+04</totfact>
</mgrwt>
</event>
<event>
 7    1  0.3960685E-009  0.9010917E+02  0.7818608E-02  0.1302588E+00
         -2   -1    0    0    0  501 -0.00000000000E+00  0.00000000000E+00  0.85214024942E+01  0.85214028757E+01  0.25500000000E-02 0. -1.
          2   -1    0    0  501    0  0.00000000000E+00 -0.00000000000E+00 -0.23821380357E+03  0.23821380358E+03  0.25500000000E-02 0.  1.
         23    2    1    2    0    0 -0.71054273576E-14  0.00000000000E+00 -0.22969240107E+03  0.24673520646E+03  0.90109172644E+02 0.  0.
    9000005    2    3    3    0    0 -0.36765583860E+02  0.16155600314E+01 -0.49257014432E+02  0.62585140090E+02  0.11675962420E+02 0.  0.
         22    1    3    3    0    0  0.36765583860E+02 -0.16155600314E+01 -0.18043538664E+03  0.18415006637E+03  0.00000000000E+00 0.  1.
         22    1    4    4    0    0 -0.49236525144E+01  0.10762814068E+01 -0.16399302575E+01  0.53000100942E+01  0.00000000000E+00 0. -1.
         22    1    4    4    0    0 -0.31841931346E+02  0.53927862465E+00 -0.47617084175E+02  0.57285129995E+02  0.00000000000E+00 0. -1.
<mgrwt>
<rscale>  0 0.90109173E+02</rscale>
<asrwt>0</asrwt>
<pdfrwt beam="2">  1        2 0.36648272E-01 0.90109173E+02</pdfrwt>
<pdfrwt beam="1">  1       -2 0.13109852E-02 0.90109173E+02</pdfrwt>
<totfact> 0.17017532E+05</totfact>
</mgrwt>
</event>
<event>
 7    1  0.3960685E-009  0.9247291E+02  0.7818608E-02  0.1296971E+00
          2   -1    0    0  501    0  0.00000000000E+00  0.00000000000E+00  0.76536446632E+03  0.76536446632E+03  0.25500000000E-02 0.  1.
         -2   -1    0    0    0  501 -0.00000000000E+00 -0.00000000000E+00 -0.27931914694E+01  0.27931926334E+01  0.25500000000E-02 0. -1.
         23    2    1    2    0    0  0.35527136788E-14  0.00000000000E+00  0.76257127485E+03  0.76815765896E+03  0.92472913808E+02 0.  0.
    9000005    2    3    3    0    0 -0.30592468948E+02 -0.20560089998E+02  0.60689668932E+03  0.60817893213E+03  0.14121102050E+02 0.  0.
         22    1    3    3    0    0  0.30592468948E+02  0.20560089998E+02  0.15567458553E+03  0.15997872683E+03  0.00000000000E+00 0. -1.
         22    1    4    4    0    0 -0.25712536277E+02 -0.18855934561E+02  0.41912482947E+03  0.42033594121E+03  0.00000000000E+00 0. -1.
         22    1    4    4    0    0 -0.48799326710E+01 -0.17041554367E+01  0.18777185985E+03  0.18784299093E+03  0.00000000000E+00 0. -1.
<mgrwt>
<rscale>  0 0.92472914E+02</rscale>
<asrwt>0</asrwt>
<pdfrwt beam="1">  1        2 0.11774846E+00 0.92472914E+02</pdfrwt>
<pdfrwt beam="2">  1       -2 0.42972155E-03 0.92472914E+02</pdfrwt>
<totfact> 0.23290383E+05</totfact>
</mgrwt>
</event>
<event>
 7    1  0.3960685E-009  0.9212829E+02  0.7818608E-02  0.1297778E+00
          2   -1    0    0  501    0  0.00000000000E+00  0.00000000000E+00  0.46448878324E+03  0.46448878325E+03  0.25500000000E-02 0. -1.
         -2   -1    0    0    0  501 -0.00000000000E+00 -0.00000000000E+00 -0.45682596678E+01  0.45682603795E+01  0.25500000000E-02 0.  1.
         23    2    1    2    0    0 -0.71054273576E-14  0.00000000000E+00  0.45992052357E+03  0.46905704362E+03  0.92128291923E+02 0.  0.
    9000005    2    3    3    0    0  0.37301728542E+02 -0.10100721508E+02  0.35196069798E+03  0.35438896843E+03  0.14891759316E+02 0.  0.
         22    1    3    3    0    0 -0.37301728542E+02  0.10100721508E+02  0.10795982559E+03  0.11466807519E+03  0.00000000000E+00 0. -1.
         22    1    4    4    0    0  0.24485871696E+02 -0.88632263399E+01  0.28602155969E+03  0.28720453913E+03  0.00000000000E+00 0.  1.
         22    1    4    4    0    0  0.12815856846E+02 -0.12374951682E+01  0.65939138298E+02  0.67184429300E+02  0.00000000000E+00 0.  1.
<mgrwt>
<rscale>  0 0.92128292E+02</rscale>
<asrwt>0</asrwt>
<pdfrwt beam="1">  1        2 0.71459783E-01 0.92128292E+02</pdfrwt>
<pdfrwt beam="2">  1       -2 0.70280953E-03 0.92128292E+02</pdfrwt>
<totfact> 0.20458561E+05</totfact>
</mgrwt>
</event>
<event>
 7    1  0.3960685E-009  0.8843818E+02  0.7818608E-02  0.1306679E+00
          2   -1    0    0  501    0  0.00000000000E+00  0.00000000000E+00  0.20150485920E+03  0.20150485922E+03  0.25500000000E-02 0. -1.
         -2   -1    0    0    0  501 -0.00000000000E+00 -0.00000000000E+00 -0.97036262737E+01  0.97036266087E+01  0.25500000000E-02 0.  1.
         23    2    1    2    0    0  0.00000000000E+00  0.17763568394E-14  0.19180123293E+03  0.21120848582E+03  0.88438179156E+02 0.  0.
    9000005    2    3    3    0    0 -0.12519105738E+02  0.88157920828E+01  0.19464151753E+03  0.19563564359E+03  0.12391065391E+02 0.  0.
         22    1    3    3    0    0  0.12519105738E+02 -0.88157920828E+01 -0.28402845993E+01  0.15572842230E+02  0.00000000000E+00 0.  1.
         22    1    4    4    0    0 -0.34358839089E+01  0.82663430343E+01  0.13578986264E+03  0.13608462264E+03  0.00000000000E+00 0.  1.
         22    1    4    4    0    0 -0.90832218288E+01  0.54944904855E+00  0.58851654888E+02  0.59551020950E+02  0.00000000000E+00 0.  1.
<mgrwt>
<rscale>  0 0.88438179E+02</rscale>
<asrwt>0</asrwt>
<pdfrwt beam="1">  1        2 0.31000746E-01 0.88438179E+02</pdfrwt>
<pdfrwt beam="2">  1       -2 0.14928657E-02 0.88438179E+02</pdfrwt>
<totfact> 0.16833546E+05</totfact>
</mgrwt>
</event>
<event>
 7    1  0.3960685E-009  0.9226178E+02  0.7818608E-02  0.1297465E+00
          2   -1    0    0  501    0  0.00000000000E+00  0.00000000000E+00  0.15316825096E+02  0.15316825308E+02  0.25500000000E-02 0. -1.
         -2   -1    0    0    0  501 -0.00000000000E+00 -0.00000000000E+00 -0.13893605159E+03  0.13893605161E+03  0.25500000000E-02 0.  1.
         23    2    1    2    0    0  0.00000000000E+00  0.00000000000E+00 -0.12361922650E+03  0.15425287692E+03  0.92261784502E+02 0.  0.
    9000005    2    3    3    0    0  0.39475353074E+02 -0.14211878234E+02 -0.92024025193E+02  0.10173109355E+03  0.10977850372E+02 0.  0.
         22    1    3    3    0    0 -0.39475353074E+02  0.14211878234E+02 -0.31595201303E+02  0.52521783373E+02  0.00000000000E+00 0. -1.
         22    1    4    4    0    0  0.19711445636E+02 -0.40258199756E+01 -0.54748881096E+02  0.58328280420E+02  0.00000000000E+00 0.  1.
         22    1    4    4    0    0  0.19763907438E+02 -0.10186058259E+02 -0.37275144097E+02  0.43402813129E+02  0.00000000000E+00 0.  1.
<mgrwt>
<rscale>  0 0.92261785E+02</rscale>
<asrwt>0</asrwt>
<pdfrwt beam="1">  1        2 0.23564347E-02 0.92261785E+02</pdfrwt>
<pdfrwt beam="2">  1       -2 0.21374776E-01 0.92261785E+02</pdfrwt>
<totfact> 0.69676844E+04</totfact>
</mgrwt>
</event>
<event>
 7    1  0.3960685E-009  0.9139074E+02  0.7818608E-02  0.1299518E+00
         -2   -1    0    0    0  501 -0.00000000000E+00  0.00000000000E+00  0.12707004673E+03  0.12707004676E+03  0.25500000000E-02 0. -1.
          2   -1    0    0  501    0  0.00000000000E+00 -0.00000000000E+00 -0.16432408606E+02  0.16432408804E+02  0.25500000000E-02 0.  1.
         23    2    1    2    0    0 -0.17763568394E-14  0.00000000000E+00  0.11063763812E+03  0.14350245556E+03  0.91390742320E+02 0.  0.
    9000005    2    3    3    0    0 -0.90752342555E+01  0.34672309831E+02  0.98192761566E+02  0.10556297878E+03  0.14737541137E+02 0.  0.
         22    1    3    3    0    0  0.90752342555E+01 -0.34672309831E+02  0.12444876557E+02  0.37939476780E+02  0.00000000000E+00 0.  1.
         22    1    4    4    0    0 -0.82284307937E+01  0.15083674674E+02  0.29626259076E+02  0.34248204943E+02  0.00000000000E+00 0.  1.
         22    1    4    4    0    0 -0.84680346185E+00  0.19588635158E+02  0.68566502491E+02  0.71314773836E+02  0.00000000000E+00 0.  1.
<mgrwt>
<rscale>  0 0.91390742E+02</rscale>
<asrwt>0</asrwt>
<pdfrwt beam="2">  1        2 0.25280629E-02 0.91390742E+02</pdfrwt>
<pdfrwt beam="1">  1       -2 0.19549238E-01 0.91390742E+02</pdfrwt>
<totfact> 0.73576115E+04</totfact>
</mgrwt>
</event>
<event>
 7    1  0.3960685E-009  0.9063129E+02  0.7818608E-02  0.1301330E+00
          2   -1    0    0  501    0  0.00000000000E+00  0.00000000000E+00  0.59155323710E+03  0.59155323710E+03  0.25500000000E-02 0.  1.
         -2   -1    0    0    0  501 -0.00000000000E+00 -0.00000000000E+00 -0.34713823000E+01  0.34713832366E+01  0.25500000000E-02 0. -1.
         23    2    1    2    0    0  0.00000000000E+00 -0.35527136788E-14  0.58808185480E+03  0.59502462034E+03  0.90631290778E+02 0.  0.
    9000005    2    3    3    0    0 -0.23305579705E+02  0.19624386324E+02  0.51264357670E+03  0.51366615190E+03  0.11009645564E+02 0.  0.
         22    1    3    3    0    0  0.23305579705E+02 -0.19624386324E+02  0.75438278098E+02  0.81358468437E+02  0.00000000000E+00 0. -1.
         22    1    4    4    0    0 -0.50145600032E+01  0.98015392674E+00  0.44067247082E+02  0.44362470391E+02  0.00000000000E+00 0. -1.
         22    1    4    4    0    0 -0.18291019701E+02  0.18644232397E+02  0.46857632962E+03  0.46930368151E+03  0.00000000000E+00 0. -1.
<mgrwt>
<rscale>  0 0.90631291E+02</rscale>
<asrwt>0</asrwt>
<pdfrwt beam="1">  1        2 0.91008136E-01 0.90631291E+02</pdfrwt>
<pdfrwt beam="2">  1       -2 0.53405920E-03 0.90631291E+02</pdfrwt>
<totfact> 0.23055426E+05</totfact>
</mgrwt>
</event>
<event>
 7    1  0.3960685E-009  0.9090631E+02  0.7818608E-02  0.1300672E+00
         -2   -1    0    0    0  501 -0.00000000000E+00  0.00000000000E+00  0.20377476502E+03  0.20377476503E+03  0.25500000000E-02 0.  1.
          2   -1    0    0  501    0  0.00000000000E+00 -0.00000000000E+00 -0.10138591637E+02  0.10138591957E+02  0.25500000000E-02 0. -1.
         23    2    1    2    0    0  0.35527136788E-14  0.00000000000E+00  0.19363617338E+03  0.21391335699E+03  0.90906307028E+02 0.  0.
    9000005    2    3    3    0    0 -0.29461288221E+02 -0.10085331026E+02  0.17409296161E+03  0.17714899201E+03  0.10184531689E+02 0.  0.
         22    1    3    3    0    0  0.29461288221E+02  0.10085331026E+02  0.19543211773E+02  0.36764364974E+02  0.00000000000E+00 0. -1.
         22    1    4    4    0    0 -0.20148970638E+01  0.10162787442E+01  0.50273012813E+01  0.55105708267E+01  0.00000000000E+00 0. -1.
         22    1    4    4    0    0 -0.27446391157E+02 -0.11101609771E+02  0.16906566032E+03  0.17163842119E+03  0.00000000000E+00 0. -1.
<mgrwt>
<rscale>  0 0.90906307E+02</rscale>
<asrwt>0</asrwt>
<pdfrwt beam="2">  1        2 0.15597834E-02 0.90906307E+02</pdfrwt>
<pdfrwt beam="1">  1       -2 0.31349962E-01 0.90906307E+02</pdfrwt>
<totfact> 0.62284883E+04</totfact>
</mgrwt>
</event>
<event>
 7    1  0.3960685E-009  0.8933570E+02  0.7818608E-02  0.1304468E+00
          2   -1    0    0  501    0  0.00000000000E+00  0.00000000000E+00  0.62304550519E+02  0.62304550571E+02  0.25500000000E-02 0. -1.
         -2   -1    0    0    0  501 -0.00000000000E+00 -0.00000000000E+00 -0.32023612638E+02  0.32023612739E+02  0.25500000000E-02 0.  1.
         23    2    1    2    0    0  0.00000000000E+00  0.00000000000E+00  0.30280937881E+02  0.94328163310E+02  0.89335699440E+02 0.  0.
    9000005    2    3    3    0    0  0.11109546126E+02 -0.41991865154E+02  0.13381917793E+02  0.47720056352E+02  0.14539233136E+02 0.  0.
         22    1    3    3    0    0 -0.11109546126E+02  0.41991865154E+02  0.16899020088E+02  0.46608106958E+02  0.00000000000E+00 0. -1.
         22    1    4    4    0    0  0.72701248903E+01 -0.92042421673E+01  0.81829486187E+01  0.14301518727E+02  0.00000000000E+00 0.  1.
         22    1    4    4    0    0  0.38394212358E+01 -0.32787622987E+02  0.51989691740E+01  0.33418537625E+02  0.00000000000E+00 0.  1.
<mgrwt>
<rscale>  0 0.89335699E+02</rscale>
<asrwt>0</asrwt>
<pdfrwt beam="1">  1        2 0.95853155E-02 0.89335699E+02</pdfrwt>
<pdfrwt beam="2">  1       -2 0.49267096E-02 0.89335699E+02</pdfrwt>
<totfact> 0.11346706E+05</totfact>
</mgrwt>
</event>
<event>
 7    1  0.3960685E-009  0.1209906E+03  0.7818608E-02  0.1241472E+00
          2   -1    0    0  501    0  0.00000000000E+00  0.00000000000E+00  0.17898193638E+03  0.17898193640E+03  0.25500000000E-02 0. -1.
         -2   -1    0    0    0  501 -0.00000000000E+00 -0.00000000000E+00 -0.20447211231E+02  0.20447211390E+02  0.25500000000E-02 0.  1.
         23    2    1    2    0    0  0.00000000000E+00  0.00000000000E+00  0.15853472515E+03  0.19942914779E+03  0.12099060257E+03 0.  0.
    9000005    2    3    3    0    0 -0.43736423064E+02 -0.28828963762E+02  0.33171547220E+02  0.63561895536E+02  0.13992110819E+02 0.  0.
         22    1    3    3    0    0  0.43736423064E+02  0.28828963762E+02  0.12536317793E+03  0.13586725225E+03  0.00000000000E+00 0. -1.
         22    1    4    4    0    0 -0.17764771878E+02 -0.14486041393E+02  0.69138695177E+01  0.23942307884E+02  0.00000000000E+00 0. -1.
         22    1    4    4    0    0 -0.25971651187E+02 -0.14342922369E+02  0.26257677702E+02  0.39619587653E+02  0.00000000000E+00 0. -1.
<mgrwt>
<rscale>  0 0.12099060E+03</rscale>
<asrwt>0</asrwt>
<pdfrwt beam="1">  1        2 0.27535682E-01 0.12099060E+03</pdfrwt>
<pdfrwt beam="2">  1       -2 0.31457249E-02 0.12099060E+03</pdfrwt>
<totfact> 0.68249459E+04</totfact>
</mgrwt>
</event>
<event>
 7    1  0.3960685E-009  0.9051024E+02  0.7818608E-02  0.1301621E+00
         -2   -1    0    0    0  501 -0.00000000000E+00  0.00000000000E+00  0.92551409918E+01  0.92551413431E+01  0.25500000000E-02 0. -1.
          2   -1    0    0  501    0  0.00000000000E+00 -0.00000000000E+00 -0.22128523539E+03  0.22128523541E+03  0.25500000000E-02 0.  1.
         23    2    1    2    0    0  0.00000000000E+00  0.00000000000E+00 -0.21203009440E+03  0.23054037675E+03  0.90510244617E+02 0.  0.
    9000005    2    3    3    0    0  0.32663995752E+02 -0.20808462545E+02 -0.49946774770E+02  0.63894250979E+02  0.93737007789E+01 0.  0.
         22    1    3    3    0    0 -0.32663995752E+02  0.20808462545E+02 -0.16208331963E+03  0.16664612577E+03  0.00000000000E+00 0.  1.
         22    1    4    4    0    0  0.16333332315E+02 -0.49936103708E+01 -0.22744502050E+02  0.28443386974E+02  0.00000000000E+00 0. -1.
         22    1    4    4    0    0  0.16330663437E+02 -0.15814852174E+02 -0.27202272719E+02  0.35450864005E+02  0.00000000000E+00 0. -1.
<mgrwt>
<rscale>  0 0.90510245E+02</rscale>
<asrwt>0</asrwt>
<pdfrwt beam="2">  1        2 0.34043878E-01 0.90510245E+02</pdfrwt>
<pdfrwt beam="1">  1       -2 0.14238680E-02 0.90510245E+02</pdfrwt>
<totfact> 0.16367359E+05</totfact>
</mgrwt>
</event>
<event>
 7    1  0.3960685E-009  0.9298075E+02  0.7818608E-02  0.1295790E+00
          2   -1    0    0  501    0  0.00000000000E+00  0.00000000000E+00  0.10914253705E+03  0.10914253708E+03  0.25500000000E-02 0.  1.
         -2   -1    0    0    0  501 -0.00000000000E+00 -0.00000000000E+00 -0.19803049736E+02  0.19803049900E+02  0.25500000000E-02 0. -1.
         23    2    1    2    0    0  0.00000000000E+00  0.00000000000E+00  0.89339487317E+02  0.12894558698E+03  0.92980752891E+02 0.  0.
    9000005    2    3    3    0    0  0.39713925525E+02  0.11256716613E+02  0.74307814265E+02  0.85015406648E+02  0.14347672922E+01 0.  0.
         22    1    3    3    0    0 -0.39713925525E+02 -0.11256716613E+02  0.15031673052E+02  0.43930180334E+02  0.00000000000E+00 0. -1.
         22    1    4    4    0    0  0.21588421518E+02  0.68478047347E+01  0.41025733359E+02  0.46862172069E+02  0.00000000000E+00 0.  1.
         22    1    4    4    0    0  0.18125504006E+02  0.44089118780E+01  0.33282080906E+02  0.38153234580E+02  0.00000000000E+00 0.  1.
<mgrwt>
<rscale>  0 0.92980753E+02</rscale>
<asrwt>0</asrwt>
<pdfrwt beam="1">  1        2 0.16791160E-01 0.92980753E+02</pdfrwt>
<pdfrwt beam="2">  1       -2 0.30466230E-02 0.92980753E+02</pdfrwt>
<totfact> 0.11941919E+05</totfact>
</mgrwt>
</event>
<event>
 7    1  0.3960685E-009  0.9048702E+02  0.7818608E-02  0.1301677E+00
          2   -1    0    0  501    0  0.00000000000E+00  0.00000000000E+00  0.62793215333E+01  0.62793220511E+01  0.25500000000E-02 0. -1.
         -2   -1    0    0    0  501 -0.00000000000E+00 -0.00000000000E+00 -0.32598668540E+03  0.32598668541E+03  0.25500000000E-02 0.  1.
         23    2    1    2    0    0  0.00000000000E+00  0.00000000000E+00 -0.31970736387E+03  0.33226600746E+03  0.90487022294E+02 0.  0.
    9000005    2    3    3    0    0  0.35183547438E+02  0.19238173145E+02 -0.97868783636E+02  0.10683232543E+03  0.15061793707E+02 0.  0.
         22    1    3    3    0    0 -0.35183547438E+02 -0.19238173145E+02 -0.22183858023E+03  0.22543368203E+03  0.00000000000E+00 0.  1.
         22    1    4    4    0    0  0.10625109213E+02 -0.14313392284E+01 -0.23294932150E+02  0.25643625751E+02  0.00000000000E+00 0. -1.
         22    1    4    4    0    0  0.24558438225E+02  0.20669512373E+02 -0.74573851486E+02  0.81188699677E+02  0.00000000000E+00 0. -1.
<mgrwt>
<rscale>  0 0.90487022E+02</rscale>
<asrwt>0</asrwt>
<pdfrwt beam="1">  1        2 0.96604976E-03 0.90487022E+02</pdfrwt>
<pdfrwt beam="2">  1       -2 0.50151785E-01 0.90487022E+02</pdfrwt>
<totfact> 0.49571544E+04</totfact>
</mgrwt>
</event>
<event>
 7    1  0.3960685E-009  0.9661680E+02  0.7818608E-02  0.1287576E+00
          2   -1    0    0  501    0  0.00000000000E+00  0.00000000000E+00  0.67078072408E+02  0.67078072456E+02  0.25500000000E-02 0. -1.
         -2   -1    0    0    0  501 -0.00000000000E+00 -0.00000000000E+00 -0.34790827505E+02  0.34790827599E+02  0.25500000000E-02 0.  1.
         23    2    1    2    0    0  0.00000000000E+00  0.00000000000E+00  0.32287244902E+02  0.10186890006E+03  0.96616802965E+02 0.  0.
    9000005    2    3    3    0    0  0.31868077830E+01 -0.32833220901E+02  0.51890357903E+02  0.63496277290E+02  0.15842722237E+02 0.  0.
         22    1    3    3    0    0 -0.31868077830E+01  0.32833220901E+02 -0.19603113000E+02  0.38372622765E+02  0.00000000000E+00 0. -1.
         22    1    4    4    0    0  0.29931585575E+01 -0.43572182385E+01  0.20248614912E+02  0.20927272989E+02  0.00000000000E+00 0. -1.
         22    1    4    4    0    0  0.19364922556E+00 -0.28476002663E+02  0.31641742991E+02  0.42569004301E+02  0.00000000000E+00 0. -1.
<mgrwt>
<rscale>  0 0.96616803E+02</rscale>
<asrwt>0</asrwt>
<pdfrwt beam="1">  1        2 0.10319703E-01 0.96616803E+02</pdfrwt>
<pdfrwt beam="2">  1       -2 0.53524351E-02 0.96616803E+02</pdfrwt>
<totfact> 0.92842666E+04</totfact>
</mgrwt>
</event>
<event>
 7    1  0.4745447E-009  0.9321531E+02  0.7818608E-02  0.1295247E+00
          2   -1    0    0  501    0  0.00000000000E+00  0.00000000000E+00  0.17093830799E+03  0.17093830801E+03  0.25500000000E-02 0. -1.
         -2   -1    0    0    0  501 -0.00000000000E+00 -0.00000000000E+00 -0.12707939154E+02  0.12707939410E+02  0.25500000000E-02 0.  1.
         23    2    1    2    0    0  0.00000000000E+00  0.44408920985E-15  0.15823036883E+03  0.18364624742E+03  0.93215312955E+02 0.  0.
    9000005    2    3    3    0    0  0.31213981269E+02 -0.39679123773E+01  0.14555683813E+03  0.14972464168E+03  0.15511874305E+02 0.  0.
         22    1    3    3    0    0 -0.31213981269E+02  0.39679123773E+01  0.12673530702E+02  0.33921605736E+02  0.00000000000E+00 0.  1.
         22    1    4    4    0    0  0.61230529368E+01  0.45189161898E+01  0.49550838932E+02  0.50131806468E+02  0.00000000000E+00 0.  1.
         22    1    4    4    0    0  0.25090928332E+02 -0.84868285671E+01  0.96005999198E+02  0.99592835212E+02  0.00000000000E+00 0.  1.
<mgrwt>
<rscale>  0 0.93215313E+02</rscale>
<asrwt>0</asrwt>
<pdfrwt beam="1">  1        2 0.26298201E-01 0.93215313E+02</pdfrwt>
<pdfrwt beam="2">  1       -2 0.19550676E-02 0.93215313E+02</pdfrwt>
<totfact> 0.13775508E+05</totfact>
</mgrwt>
</event>
<event>
 7    1  0.3960685E-009  0.9254503E+02  0.7818608E-02  0.1296803E+00
         -2   -1    0    0    0  501 -0.00000000000E+00  0.00000000000E+00  0.19099170757E+02  0.19099170928E+02  0.25500000000E-02 0.  1.
          2   -1    0    0  501    0  0.00000000000E+00 -0.00000000000E+00 -0.11210674099E+03  0.11210674102E+03  0.25500000000E-02 0. -1.
         23    2    1    2    0    0  0.35527136788E-14  0.00000000000E+00 -0.93007570233E+02  0.13120591195E+03  0.92545033412E+02 0.  0.
    9000005    2    3    3    0    0  0.26074194024E+02  0.89265604366E+01  0.28912620112E+01  0.31425487509E+02  0.14820755511E+02 0.  0.
         22    1    3    3    0    0 -0.26074194024E+02 -0.89265604366E+01 -0.95898832244E+02  0.99780424438E+02  0.00000000000E+00 0. -1.
         22    1    4    4    0    0  0.19097836743E+02  0.52834709869E+01 -0.48350220571E+01  0.20396565206E+02  0.00000000000E+00 0. -1.
         22    1    4    4    0    0  0.69763572815E+01  0.36430894497E+01  0.77262840683E+01  0.11028922303E+02  0.00000000000E+00 0. -1.
<mgrwt>
<rscale>  0 0.92545033E+02</rscale>
<asrwt>0</asrwt>
<pdfrwt beam="2">  1        2 0.17247191E-01 0.92545033E+02</pdfrwt>
<pdfrwt beam="1">  1       -2 0.29383340E-02 0.92545033E+02</pdfrwt>
<totfact> 0.12199804E+05</totfact>
</mgrwt>
</event>
<event>
 7    1  0.3960685E-009  0.9366563E+02  0.7818608E-02  0.1294210E+00
          2   -1    0    0  501    0  0.00000000000E+00  0.00000000000E+00  0.15708802382E+03  0.15708802384E+03  0.25500000000E-02 0. -1.
         -2   -1    0    0    0  501 -0.00000000000E+00 -0.00000000000E+00 -0.13962315949E+02  0.13962316182E+02  0.25500000000E-02 0.  1.
         23    2    1    2    0    0  0.00000000000E+00  0.00000000000E+00  0.14312570787E+03  0.17105034002E+03  0.93665631734E+02 0.  0.
    9000005    2    3    3    0    0  0.10403503562E+02 -0.39067209370E+02  0.30597603470E+02  0.51480051010E+02  0.89164219041E+01 0.  0.
         22    1    3    3    0    0 -0.10403503562E+02  0.39067209370E+02  0.11252810440E+03  0.11957028901E+03  0.00000000000E+00 0.  1.
         22    1    4    4    0    0  0.24645082471E+01 -0.16455237022E+02  0.17588501639E+02  0.24211650424E+02  0.00000000000E+00 0.  1.
         22    1    4    4    0    0  0.79389953148E+01 -0.22611972348E+02  0.13009101831E+02  0.27268400586E+02  0.00000000000E+00 0.  1.
<mgrwt>
<rscale>  0 0.93665632E+02</rscale>
<asrwt>0</asrwt>
<pdfrwt beam="1">  1        2 0.24167385E-01 0.93665632E+02</pdfrwt>
<pdfrwt beam="2">  1       -2 0.21480489E-02 0.93665632E+02</pdfrwt>
<totfact> 0.13201235E+05</totfact>
</mgrwt>
</event>
<event>
 7    1  0.3960685E-009  0.8707189E+02  0.7818608E-02  0.1310102E+00
          2   -1    0    0  501    0  0.00000000000E+00  0.00000000000E+00  0.31052449646E+02  0.31052449751E+02  0.25500000000E-02 0.  1.
         -2   -1    0    0    0  501 -0.00000000000E+00 -0.00000000000E+00 -0.61037969826E+02  0.61037969879E+02  0.25500000000E-02 0. -1.
         23    2    1    2    0    0  0.00000000000E+00  0.00000000000E+00 -0.29985520180E+02  0.92090419630E+02  0.87071889650E+02 0.  0.
    9000005    2    3    3    0    0 -0.39926093054E+01 -0.31073222457E+02 -0.45558212215E+02  0.57104782289E+02  0.14280034214E+02 0.  0.
         22    1    3    3    0    0  0.39926093054E+01  0.31073222457E+02  0.15572692035E+02  0.34985637341E+02  0.00000000000E+00 0.  1.
         22    1    4    4    0    0  0.38165229991E+01 -0.20264624608E+02 -0.22917189856E+02  0.30828857410E+02  0.00000000000E+00 0. -1.
         22    1    4    4    0    0 -0.78091323046E+01 -0.10808597849E+02 -0.22641022359E+02  0.26275924880E+02  0.00000000000E+00 0. -1.
<mgrwt>
<rscale>  0 0.87071890E+02</rscale>
<asrwt>0</asrwt>
<pdfrwt beam="1">  1        2 0.47773000E-02 0.87071890E+02</pdfrwt>
<pdfrwt beam="2">  1       -2 0.93904569E-02 0.87071890E+02</pdfrwt>
<totfact> 0.10222921E+05</totfact>
</mgrwt>
</event>
<event>
 7    1  0.3960685E-009  0.9221537E+02  0.7818608E-02  0.1297574E+00
         -2   -1    0    0    0  501 -0.00000000000E+00  0.00000000000E+00  0.28868452601E+02  0.28868452713E+02  0.25500000000E-02 0. -1.
          2   -1    0    0  501    0  0.00000000000E+00 -0.00000000000E+00 -0.73641588505E+02  0.73641588550E+02  0.25500000000E-02 0.  1.
         23    2    1    2    0    0  0.71054273576E-14  0.00000000000E+00 -0.44773135905E+02  0.10251004126E+03  0.92215372151E+02 0.  0.
    9000005    2    3    3    0    0  0.41255177291E+02 -0.19818350354E+02 -0.17073547375E+02  0.49012154681E+02  0.39910678403E+01 0.  0.
         22    1    3    3    0    0 -0.41255177291E+02  0.19818350354E+02 -0.27699588529E+02  0.53497886582E+02  0.00000000000E+00 0. -1.
         22    1    4    4    0    0  0.27597301592E+02 -0.11383396651E+02 -0.10164391325E+02  0.31535814965E+02  0.00000000000E+00 0.  1.
         22    1    4    4    0    0  0.13657875698E+02 -0.84349537030E+01 -0.69091560499E+01  0.17476339716E+02  0.00000000000E+00 0.  1.
<mgrwt>
<rscale>  0 0.92215372E+02</rscale>
<asrwt>0</asrwt>
<pdfrwt beam="2">  1        2 0.11329475E-01 0.92215372E+02</pdfrwt>
<pdfrwt beam="1">  1       -2 0.44413004E-02 0.92215372E+02</pdfrwt>
<totfact> 0.10869696E+05</totfact>
</mgrwt>
</event>
<event>
 7    1  0.3960685E-009  0.8852214E+02  0.7818608E-02  0.1306471E+00
          2   -1    0    0  501    0  0.00000000000E+00  0.00000000000E+00  0.59457059496E+02  0.59457059551E+02  0.25500000000E-02 0. -1.
         -2   -1    0    0    0  501 -0.00000000000E+00 -0.00000000000E+00 -0.32948860015E+02  0.32948860114E+02  0.25500000000E-02 0.  1.
         23    2    1    2    0    0  0.00000000000E+00  0.00000000000E+00  0.26508199481E+02  0.92405919664E+02  0.88522140447E+02 0.  0.
    9000005    2    3    3    0    0 -0.22968398583E+02  0.35499893773E+02  0.50821878388E+01  0.45004825097E+02  0.14553894924E+02 0.  0.
         22    1    3    3    0    0  0.22968398583E+02 -0.35499893773E+02  0.21426011642E+02  0.47401094568E+02  0.00000000000E+00 0. -1.
         22    1    4    4    0    0 -0.14945402416E+02  0.10270119749E+02  0.36058820064E+01  0.18488991268E+02  0.00000000000E+00 0. -1.
         22    1    4    4    0    0 -0.80229961666E+01  0.25229774023E+02  0.14763058324E+01  0.26515833829E+02  0.00000000000E+00 0. -1.
<mgrwt>
<rscale>  0 0.88522140E+02</rscale>
<asrwt>0</asrwt>
<pdfrwt beam="1">  1        2 0.91472398E-02 0.88522140E+02</pdfrwt>
<pdfrwt beam="2">  1       -2 0.50690555E-02 0.88522140E+02</pdfrwt>
<totfact> 0.11497951E+05</totfact>
</mgrwt>
</event>
<event>
 7    1  0.3960685E-009  0.9049594E+02  0.7818608E-02  0.1301655E+00
          2   -1    0    0  501    0  0.00000000000E+00  0.00000000000E+00  0.27815031588E+03  0.27815031590E+03  0.25500000000E-02 0.  1.
         -2   -1    0    0    0  501 -0.00000000000E+00 -0.00000000000E+00 -0.73606924730E+01  0.73606929147E+01  0.25500000000E-02 0. -1.
         23    2    1    2    0    0  0.00000000000E+00 -0.88817841970E-15  0.27078962341E+03  0.28551100881E+03  0.90495944687E+02 0.  0.
    9000005    2    3    3    0    0  0.43535042208E+02 -0.74096056987E+01  0.14531076625E+03  0.15248790649E+03  0.13679937158E+02 0.  0.
         22    1    3    3    0    0 -0.43535042208E+02  0.74096056987E+01  0.12547885716E+03  0.13302310232E+03  0.00000000000E+00 0.  1.
         22    1    4    4    0    0  0.41174652400E+02 -0.51302240319E+01  0.12012498355E+03  0.12708927127E+03  0.00000000000E+00 0.  1.
         22    1    4    4    0    0  0.23603898086E+01 -0.22793816668E+01  0.25185782700E+02  0.25398635220E+02  0.00000000000E+00 0.  1.
<mgrwt>
<rscale>  0 0.90495945E+02</rscale>
<asrwt>0</asrwt>
<pdfrwt beam="1">  1        2 0.42792358E-01 0.90495945E+02</pdfrwt>
<pdfrwt beam="2">  1       -2 0.11324142E-02 0.90495945E+02</pdfrwt>
<totfact> 0.17819529E+05</totfact>
</mgrwt>
</event>
<event>
 7    1  0.3960685E-009  0.8954181E+02  0.7818608E-02  0.1303965E+00
         -2   -1    0    0    0  501 -0.00000000000E+00  0.00000000000E+00  0.35403670152E+02  0.35403670243E+02  0.25500000000E-02 0.  1.
          2   -1    0    0  501    0  0.00000000000E+00 -0.00000000000E+00 -0.56616559773E+02  0.56616559831E+02  0.25500000000E-02 0. -1.
         23    2    1    2    0    0  0.00000000000E+00 -0.11102230246E-15 -0.21212889622E+02  0.92020230074E+02  0.89541811780E+02 0.  0.
    9000005    2    3    3    0    0  0.34562059607E+02 -0.39490074727E+00  0.17366710880E+02  0.40221798768E+02  0.11022637546E+02 0.  0.
         22    1    3    3    0    0 -0.34562059607E+02  0.39490074727E+00 -0.38579600501E+02  0.51798431306E+02  0.00000000000E+00 0. -1.
         22    1    4    4    0    0  0.27207570482E+02  0.18703242972E+01  0.86869819902E+01  0.28621908752E+02  0.00000000000E+00 0. -1.
         22    1    4    4    0    0  0.73544891255E+01 -0.22652250445E+01  0.86797288894E+01  0.11599890016E+02  0.00000000000E+00 0. -1.
<mgrwt>
<rscale>  0 0.89541812E+02</rscale>
<asrwt>0</asrwt>
<pdfrwt beam="2">  1        2 0.87102400E-02 0.89541812E+02</pdfrwt>
<pdfrwt beam="1">  1       -2 0.54467185E-02 0.89541812E+02</pdfrwt>
<totfact> 0.10991269E+05</totfact>
</mgrwt>
</event>
<event>
 7    1  0.3960685E-009  0.9114021E+02  0.7818608E-02  0.1300114E+00
         -2   -1    0    0    0  501 -0.00000000000E+00  0.00000000000E+00  0.16174389687E+03  0.16174389689E+03  0.25500000000E-02 0.  1.
          2   -1    0    0  501    0  0.00000000000E+00 -0.00000000000E+00 -0.12839029233E+02  0.12839029486E+02  0.25500000000E-02 0. -1.
         23    2    1    2    0    0  0.00000000000E+00  0.00000000000E+00  0.14890486763E+03  0.17458292637E+03  0.91140213823E+02 0.  0.
    9000005    2    3    3    0    0  0.11386458331E+02  0.19569688686E+02  0.14964226278E+03  0.15192971688E+03  0.13311946261E+02 0.  0.
         22    1    3    3    0    0 -0.11386458331E+02 -0.19569688686E+02 -0.73739514710E+00  0.22653209490E+02  0.00000000000E+00 0. -1.
         22    1    4    4    0    0  0.63734725976E+01  0.22683563809E+01  0.21825294329E+02  0.22849727924E+02  0.00000000000E+00 0. -1.
         22    1    4    4    0    0  0.50129857330E+01  0.17301332305E+02  0.12781696845E+03  0.12907998896E+03  0.00000000000E+00 0. -1.
<mgrwt>
<rscale>  0 0.91140214E+02</rscale>
<asrwt>0</asrwt>
<pdfrwt beam="2">  1        2 0.19752352E-02 0.91140214E+02</pdfrwt>
<pdfrwt beam="1">  1       -2 0.24883678E-01 0.91140214E+02</pdfrwt>
<totfact> 0.67994706E+04</totfact>
</mgrwt>
</event>
<event>
 7    1  0.3960685E-009  0.9229890E+02  0.7818608E-02  0.1297378E+00
         -2   -1    0    0    0  501 -0.00000000000E+00  0.00000000000E+00  0.11735168115E+02  0.11735168392E+02  0.25500000000E-02 0. -1.
          2   -1    0    0  501    0  0.00000000000E+00 -0.00000000000E+00 -0.18148624862E+03  0.18148624864E+03  0.25500000000E-02 0.  1.
         23    2    1    2    0    0  0.17763568394E-14  0.00000000000E+00 -0.16975108051E+03  0.19322141703E+03  0.92298898512E+02 0.  0.
    9000005    2    3    3    0    0  0.11991284559E+02  0.38100717127E+02 -0.13276775476E+03  0.13878593288E+03  0.62291983613E+01 0.  0.
         22    1    3    3    0    0 -0.11991284559E+02 -0.38100717127E+02 -0.36983325752E+02  0.54435484150E+02  0.00000000000E+00 0. -1.
         22    1    4    4    0    0  0.36175614242E+01  0.11947153812E+02 -0.52001174192E+02  0.53478438199E+02  0.00000000000E+00 0.  1.
         22    1    4    4    0    0  0.83737231344E+01  0.26153563315E+02 -0.80766580565E+02  0.85307494685E+02  0.00000000000E+00 0.  1.
<mgrwt>
<rscale>  0 0.92298899E+02</rscale>
<asrwt>0</asrwt>
<pdfrwt beam="2">  1        2 0.27920959E-01 0.92298899E+02</pdfrwt>
<pdfrwt beam="1">  1       -2 0.18054106E-02 0.92298899E+02</pdfrwt>
<totfact> 0.14452385E+05</totfact>
</mgrwt>
</event>
<event>
 7    1  0.3960685E-009  0.9095553E+02  0.7818608E-02  0.1300554E+00
          2   -1    0    0  501    0  0.00000000000E+00  0.00000000000E+00  0.10316274170E+03  0.10316274173E+03  0.25500000000E-02 0. -1.
         -2   -1    0    0    0  501 -0.00000000000E+00 -0.00000000000E+00 -0.20048198498E+02  0.20048198660E+02  0.25500000000E-02 0.  1.
         23    2    1    2    0    0  0.00000000000E+00  0.00000000000E+00  0.83114543200E+02  0.12321094039E+03  0.90955530564E+02 0.  0.
    9000005    2    3    3    0    0  0.30730901964E+02 -0.28229865390E+02  0.20683504283E+02  0.48118009591E+02  0.12092223211E+02 0.  0.
         22    1    3    3    0    0 -0.30730901964E+02  0.28229865390E+02  0.62431038918E+02  0.75092930798E+02  0.00000000000E+00 0. -1.
         22    1    4    4    0    0  0.16035494048E+02 -0.19825918170E+02  0.17409860146E+02  0.30875675393E+02  0.00000000000E+00 0.  1.
         22    1    4    4    0    0  0.14695407916E+02 -0.84039472199E+01  0.32736441366E+01  0.17242334199E+02  0.00000000000E+00 0.  1.
<mgrwt>
<rscale>  0 0.90955531E+02</rscale>
<asrwt>0</asrwt>
<pdfrwt beam="1">  1        2 0.15871191E-01 0.90955531E+02</pdfrwt>
<pdfrwt beam="2">  1       -2 0.30843383E-02 0.90955531E+02</pdfrwt>
<totfact> 0.12468048E+05</totfact>
</mgrwt>
</event>
<event>
 7    1  0.3960685E-009  0.9186605E+02  0.7818608E-02  0.1298395E+00
          2   -1    0    0  501    0  0.00000000000E+00  0.00000000000E+00  0.55468618708E+03  0.55468618708E+03  0.25500000000E-02 0. -1.
         -2   -1    0    0    0  501 -0.00000000000E+00 -0.00000000000E+00 -0.38036691231E+01  0.38036699778E+01  0.25500000000E-02 0.  1.
         23    2    1    2    0    0  0.00000000000E+00  0.00000000000E+00  0.55088251795E+03  0.55848985706E+03  0.91866053863E+02 0.  0.
    9000005    2    3    3    0    0  0.34998734474E+02  0.29322712202E+02  0.30113476687E+03  0.30460273246E+03  0.39929863018E+01 0.  0.
         22    1    3    3    0    0 -0.34998734474E+02 -0.29322712202E+02  0.24974775108E+03  0.25388712460E+03  0.00000000000E+00 0.  1.
         22    1    4    4    0    0  0.27012891865E+02  0.20814389231E+02  0.23108532318E+03  0.23358801706E+03  0.00000000000E+00 0.  1.
         22    1    4    4    0    0  0.79858426094E+01  0.85083229709E+01  0.70049443695E+02  0.71014715404E+02  0.00000000000E+00 0.  1.
<mgrwt>
<rscale>  0 0.91866054E+02</rscale>
<asrwt>0</asrwt>
<pdfrwt beam="1">  1        2 0.85336287E-01 0.91866054E+02</pdfrwt>
<pdfrwt beam="2">  1       -2 0.58518027E-03 0.91866054E+02</pdfrwt>
<totfact> 0.21825891E+05</totfact>
</mgrwt>
</event>
<event>
 7    1  0.3960685E-009  0.9163275E+02  0.7818608E-02  0.1298945E+00
         -2   -1    0    0    0  501 -0.00000000000E+00  0.00000000000E+00  0.63223803410E+02  0.63223803462E+02  0.25500000000E-02 0.  1.
          2   -1    0    0  501    0  0.00000000000E+00 -0.00000000000E+00 -0.33201736613E+02  0.33201736711E+02  0.25500000000E-02 0. -1.
         23    2    1    2    0    0  0.00000000000E+00  0.00000000000E+00  0.30022066797E+02  0.96425540173E+02  0.91632746891E+02 0.  0.
    9000005    2    3    3    0    0 -0.16631841979E+02  0.40162608367E+02  0.24493858237E+00  0.43734643016E+02  0.47964284930E+01 0.  0.
         22    1    3    3    0    0  0.16631841979E+02 -0.40162608367E+02  0.29777128215E+02  0.52690897157E+02  0.00000000000E+00 0.  1.
         22    1    4    4    0    0 -0.20953754710E+01  0.10149904133E+02  0.65203061971E+00  0.10384425656E+02  0.00000000000E+00 0.  1.
         22    1    4    4    0    0 -0.14536466508E+02  0.30012704234E+02 -0.40709203734E+00  0.33350217360E+02  0.00000000000E+00 0.  1.
<mgrwt>
<rscale>  0 0.91632747E+02</rscale>
<asrwt>0</asrwt>
<pdfrwt beam="2">  1        2 0.51079595E-02 0.91632747E+02</pdfrwt>
<pdfrwt beam="1">  1       -2 0.97267390E-02 0.91632747E+02</pdfrwt>
<totfact> 0.89547877E+04</totfact>
</mgrwt>
</event>
<event>
 7    1  0.3960685E-009  0.9104917E+02  0.7818608E-02  0.1300331E+00
         -2   -1    0    0    0  501 -0.00000000000E+00  0.00000000000E+00  0.42464064725E+01  0.42464072382E+01  0.25500000000E-02 0.  1.
          2   -1    0    0  501    0  0.00000000000E+00 -0.00000000000E+00 -0.48805686736E+03  0.48805686736E+03  0.25500000000E-02 0. -1.
         23    2    1    2    0    0  0.00000000000E+00 -0.35527136788E-14 -0.48381046088E+03  0.49230327460E+03  0.91049174199E+02 0.  0.
    9000005    2    3    3    0    0  0.38057316599E+02  0.23314806129E+02 -0.21855278544E+03  0.22331707809E+03  0.10642265346E+02 0.  0.
         22    1    3    3    0    0 -0.38057316599E+02 -0.23314806129E+02 -0.26525767544E+03  0.26898619651E+03  0.00000000000E+00 0.  1.
         22    1    4    4    0    0  0.89508469068E+01  0.39333957507E+01 -0.30121361381E+02  0.31668370244E+02  0.00000000000E+00 0.  1.
         22    1    4    4    0    0  0.29106469692E+02  0.19381410378E+02 -0.18843142406E+03  0.19164870785E+03  0.00000000000E+00 0.  1.
<mgrwt>
<rscale>  0 0.91049174E+02</rscale>
<asrwt>0</asrwt>
<pdfrwt beam="2">  1        2 0.75085628E-01 0.91049174E+02</pdfrwt>
<pdfrwt beam="1">  1       -2 0.65329375E-03 0.91049174E+02</pdfrwt>
<totfact> 0.21459376E+05</totfact>
</mgrwt>
</event>
<event>
 7    1  0.3960685E-009  0.8912839E+02  0.7818608E-02  0.1304976E+00
         -2   -1    0    0    0  501 -0.00000000000E+00  0.00000000000E+00  0.18103982034E+02  0.18103982214E+02  0.25500000000E-02 0.  1.
          2   -1    0    0  501    0  0.00000000000E+00 -0.00000000000E+00 -0.10969783422E+03  0.10969783425E+03  0.25500000000E-02 0. -1.
         23    2    1    2    0    0  0.00000000000E+00  0.00000000000E+00 -0.91593852181E+02  0.12780181646E+03  0.89128393528E+02 0.  0.
    9000005    2    3    3    0    0 -0.18972229951E+02  0.14381641796E+02  0.56989502019E+01  0.27638617001E+02  0.12831133475E+02 0.  0.
         22    1    3    3    0    0  0.18972229951E+02 -0.14381641796E+02 -0.97292802383E+02  0.10016319946E+03  0.00000000000E+00 0. -1.
         22    1    4    4    0    0 -0.79217112820E+01  0.10590446223E+02 -0.23755424381E+01  0.13437048140E+02  0.00000000000E+00 0. -1.
         22    1    4    4    0    0 -0.11050518669E+02  0.37911955734E+01  0.80744926400E+01  0.14201568861E+02  0.00000000000E+00 0. -1.
<mgrwt>
<rscale>  0 0.89128394E+02</rscale>
<asrwt>0</asrwt>
<pdfrwt beam="2">  1        2 0.16876590E-01 0.89128394E+02</pdfrwt>
<pdfrwt beam="1">  1       -2 0.27852281E-02 0.89128394E+02</pdfrwt>
<totfact> 0.13432714E+05</totfact>
</mgrwt>
</event>
<event>
 7    1  0.3960685E-009  0.9406527E+02  0.7818608E-02  0.1293295E+00
          2   -1    0    0  501    0  0.00000000000E+00  0.00000000000E+00  0.66732046722E+02  0.66732046771E+02  0.25500000000E-02 0. -1.
         -2   -1    0    0    0  501 -0.00000000000E+00 -0.00000000000E+00 -0.33148523992E+02  0.33148524090E+02  0.25500000000E-02 0.  1.
         23    2    1    2    0    0  0.35527136788E-14  0.00000000000E+00  0.33583522731E+02  0.99880570861E+02  0.94065272213E+02 0.  0.
    9000005    2    3    3    0    0  0.21389425817E+02 -0.11220310252E+02 -0.25616183850E+02  0.35943037610E+02  0.72325775971E+01 0.  0.
         22    1    3    3    0    0 -0.21389425817E+02  0.11220310252E+02  0.59199706581E+02  0.63937533250E+02  0.00000000000E+00 0. -1.
         22    1    4    4    0    0  0.59036558996E+01 -0.20048136018E+01 -0.27104636314E+01  0.67984589177E+01  0.00000000000E+00 0.  1.
         22    1    4    4    0    0  0.15485769917E+02 -0.92154966499E+01 -0.22905720219E+02  0.29144578693E+02  0.00000000000E+00 0.  1.
<mgrwt>
<rscale>  0 0.94065272E+02</rscale>
<asrwt>0</asrwt>
<pdfrwt beam="1">  1        2 0.10266469E-01 0.94065272E+02</pdfrwt>
<pdfrwt beam="2">  1       -2 0.50997730E-02 0.94065272E+02</pdfrwt>
<totfact> 0.99997059E+04</totfact>
</mgrwt>
</event>
<event>
 7    1  0.3960685E-009  0.8942968E+02  0.7818608E-02  0.1304239E+00
          2   -1    0    0  501    0  0.00000000000E+00  0.00000000000E+00  0.22698199918E+03  0.22698199920E+03  0.25500000000E-02 0. -1.
         -2   -1    0    0    0  501 -0.00000000000E+00 -0.00000000000E+00 -0.88087019989E+01  0.88087023680E+01  0.25500000000E-02 0.  1.
         23    2    1    2    0    0  0.00000000000E+00  0.00000000000E+00  0.21817329718E+03  0.23579070156E+03  0.89429678186E+02 0.  0.
    9000005    2    3    3    0    0 -0.61582381311E+01 -0.99748414935E+01  0.22284239555E+03  0.22317238792E+03  0.31241185717E+01 0.  0.
         22    1    3    3    0    0  0.61582381311E+01  0.99748414935E+01 -0.46690983642E+01  0.12618313645E+02  0.00000000000E+00 0.  1.
         22    1    4    4    0    0 -0.33941863705E+01 -0.47117602775E+01  0.13790672386E+03  0.13802893056E+03  0.00000000000E+00 0. -1.
         22    1    4    4    0    0 -0.27640517606E+01 -0.52630812159E+01  0.84935671688E+02  0.85143457359E+02  0.00000000000E+00 0. -1.
<mgrwt>
<rscale>  0 0.89429678E+02</rscale>
<asrwt>0</asrwt>
<pdfrwt beam="1">  1        2 0.34920306E-01 0.89429678E+02</pdfrwt>
<pdfrwt beam="2">  1       -2 0.13551850E-02 0.89429678E+02</pdfrwt>
<totfact> 0.17060486E+05</totfact>
</mgrwt>
</event>
<event>
 7    1  0.3960685E-009  0.9160496E+02  0.7818608E-02  0.1299011E+00
          2   -1    0    0  501    0  0.00000000000E+00  0.00000000000E+00  0.15100898351E+02  0.15100898566E+02  0.25500000000E-02 0. -1.
         -2   -1    0    0    0  501 -0.00000000000E+00 -0.00000000000E+00 -0.13892334068E+03  0.13892334070E+03  0.25500000000E-02 0.  1.
         23    2    1    2    0    0  0.00000000000E+00  0.00000000000E+00 -0.12382244233E+03  0.15402423927E+03  0.91604961973E+02 0.  0.
    9000005    2    3    3    0    0 -0.34252156603E+02 -0.11572685775E+02 -0.16375389156E+02  0.40657548731E+02  0.88173471522E+01 0.  0.
         22    1    3    3    0    0  0.34252156603E+02  0.11572685775E+02 -0.10744705317E+03  0.11336669054E+03  0.00000000000E+00 0.  1.
         22    1    4    4    0    0 -0.28163458935E+02 -0.64038886034E+01 -0.15027295388E+02  0.32557791926E+02  0.00000000000E+00 0. -1.
         22    1    4    4    0    0 -0.60886976680E+01 -0.51687971711E+01 -0.13480937679E+01  0.80997568047E+01  0.00000000000E+00 0. -1.
<mgrwt>
<rscale>  0 0.91604962E+02</rscale>
<asrwt>0</asrwt>
<pdfrwt beam="1">  1        2 0.23232152E-02 0.91604962E+02</pdfrwt>
<pdfrwt beam="2">  1       -2 0.21372821E-01 0.91604962E+02</pdfrwt>
<totfact> 0.70948550E+04</totfact>
</mgrwt>
</event>
<event>
 7    1  0.3960685E-009  0.9744886E+02  0.7818608E-02  0.1285754E+00
         -2   -1    0    0    0  501 -0.00000000000E+00  0.00000000000E+00  0.73036407620E+01  0.73036412072E+01  0.25500000000E-02 0.  1.
          2   -1    0    0  501    0  0.00000000000E+00 -0.00000000000E+00 -0.32505298587E+03  0.32505298588E+03  0.25500000000E-02 0. -1.
         23    2    1    2    0    0  0.00000000000E+00  0.00000000000E+00 -0.31774934511E+03  0.33235662709E+03  0.97448864807E+02 0.  0.
    9000005    2    3    3    0    0 -0.38560696637E+02 -0.21274342577E+02 -0.22385361622E+03  0.22864581337E+03  0.15130813022E+02 0.  0.
         22    1    3    3    0    0  0.38560696637E+02  0.21274342577E+02 -0.93895728893E+02  0.10371081372E+03  0.00000000000E+00 0.  1.
         22    1    4    4    0    0 -0.16390724857E+02 -0.83492844900E+00 -0.78344817618E+02  0.80045383468E+02  0.00000000000E+00 0. -1.
         22    1    4    4    0    0 -0.22169971780E+02 -0.20439414128E+02 -0.14550879860E+03  0.14860042990E+03  0.00000000000E+00 0. -1.
<mgrwt>
<rscale>  0 0.97448865E+02</rscale>
<asrwt>0</asrwt>
<pdfrwt beam="2">  1        2 0.50008141E-01 0.97448865E+02</pdfrwt>
<pdfrwt beam="1">  1       -2 0.11236373E-02 0.97448865E+02</pdfrwt>
<totfact> 0.15491387E+05</totfact>
</mgrwt>
</event>
<event>
 7    1  0.3960685E-009  0.9083018E+02  0.7818608E-02  0.1300854E+00
          2   -1    0    0  501    0  0.00000000000E+00  0.00000000000E+00  0.69182009393E+03  0.69182009394E+03  0.25500000000E-02 0.  1.
         -2   -1    0    0    0  501 -0.00000000000E+00 -0.00000000000E+00 -0.29813096863E+01  0.29813107768E+01  0.25500000000E-02 0. -1.
         23    2    1    2    0    0  0.00000000000E+00  0.00000000000E+00  0.68883878425E+03  0.69480140471E+03  0.90830178414E+02 0.  0.
    9000005    2    3    3    0    0  0.16722535746E+02 -0.17853681829E+02  0.63599989131E+03  0.63657472901E+03  0.11538054992E+02 0.  0.
         22    1    3    3    0    0 -0.16722535746E+02  0.17853681829E+02  0.52838892934E+02  0.58226675700E+02  0.00000000000E+00 0. -1.
         22    1    4    4    0    0  0.17832083929E+02 -0.13019232185E+02  0.51340571621E+03  0.51388025168E+03  0.00000000000E+00 0.  1.
         22    1    4    4    0    0 -0.11095481832E+01 -0.48344496439E+01  0.12259417510E+03  0.12269447733E+03  0.00000000000E+00 0.  1.
<mgrwt>
<rscale>  0 0.90830178E+02</rscale>
<asrwt>0</asrwt>
<pdfrwt beam="1">  1        2 0.10643390E+00 0.90830178E+02</pdfrwt>
<pdfrwt beam="2">  1       -2 0.45866294E-03 0.90830178E+02</pdfrwt>
<totfact> 0.23887668E+05</totfact>
</mgrwt>
</event>
<event>
 7    1  0.3960685E-009  0.9097718E+02  0.7818608E-02  0.1300502E+00
          2   -1    0    0  501    0  0.00000000000E+00  0.00000000000E+00  0.33032372172E+01  0.33032382014E+01  0.25500000000E-02 0. -1.
         -2   -1    0    0    0  501 -0.00000000000E+00 -0.00000000000E+00 -0.62641925798E+03  0.62641925798E+03  0.25500000000E-02 0.  1.
         23    2    1    2    0    0  0.00000000000E+00  0.00000000000E+00 -0.62311602076E+03  0.62972249618E+03  0.90977177754E+02 0.  0.
    9000005    2    3    3    0    0 -0.76395250530E+01 -0.39245680062E+02 -0.45536648072E+03  0.45727397073E+03  0.11927564709E+02 0.  0.
         22    1    3    3    0    0  0.76395250530E+01  0.39245680062E+02 -0.16774954005E+03  0.17244852546E+03  0.00000000000E+00 0. -1.
         22    1    4    4    0    0  0.18493644459E+01 -0.51796701795E+01 -0.35818576386E+02  0.36238371187E+02  0.00000000000E+00 0.  1.
         22    1    4    4    0    0 -0.94888894989E+01 -0.34066009883E+02 -0.41954790433E+03  0.42103559954E+03  0.00000000000E+00 0.  1.
<mgrwt>
<rscale>  0 0.90977178E+02</rscale>
<asrwt>0</asrwt>
<pdfrwt beam="1">  1        2 0.50819091E-03 0.90977178E+02</pdfrwt>
<pdfrwt beam="2">  1       -2 0.96372099E-01 0.90977178E+02</pdfrwt>
<totfact> 0.30277171E+04</totfact>
</mgrwt>
</event>
<event>
 7    1  0.3960685E-009  0.9245285E+02  0.7818608E-02  0.1297018E+00
         -2   -1    0    0    0  501 -0.00000000000E+00  0.00000000000E+00  0.34100031895E+03  0.34100031896E+03  0.25500000000E-02 0.  1.
          2   -1    0    0  501    0  0.00000000000E+00 -0.00000000000E+00 -0.62665117092E+01  0.62665122281E+01  0.25500000000E-02 0. -1.
         23    2    1    2    0    0  0.00000000000E+00  0.00000000000E+00  0.33473380724E+03  0.34726683119E+03  0.92452854652E+02 0.  0.
    9000005    2    3    3    0    0 -0.15528838556E+02 -0.30727466480E+02  0.28243587030E+03  0.28465376361E+03  0.85101282413E+01 0.  0.
         22    1    3    3    0    0  0.15528838556E+02  0.30727466480E+02  0.52297936947E+02  0.62613067583E+02  0.00000000000E+00 0. -1.
         22    1    4    4    0    0 -0.13456320660E+02 -0.28790068520E+02  0.27158948766E+03  0.27344248101E+03  0.00000000000E+00 0. -1.
         22    1    4    4    0    0 -0.20725178959E+01 -0.19373979602E+01  0.10846382635E+02  0.11211282601E+02  0.00000000000E+00 0. -1.
<mgrwt>
<rscale>  0 0.92452855E+02</rscale>
<asrwt>0</asrwt>
<pdfrwt beam="2">  1        2 0.96407860E-03 0.92452855E+02</pdfrwt>
<pdfrwt beam="1">  1       -2 0.52461596E-01 0.92452855E+02</pdfrwt>
<totfact> 0.45641884E+04</totfact>
</mgrwt>
</event>
<event>
 7    1  0.3960685E-009  0.9813028E+02  0.7818608E-02  0.1284278E+00
          2   -1    0    0  501    0  0.00000000000E+00  0.00000000000E+00  0.14085652458E+02  0.14085652689E+02  0.25500000000E-02 0. -1.
         -2   -1    0    0    0  501 -0.00000000000E+00 -0.00000000000E+00 -0.17091064164E+03  0.17091064166E+03  0.25500000000E-02 0.  1.
         23    2    1    2    0    0  0.00000000000E+00 -0.35527136788E-14 -0.15682498918E+03  0.18499629435E+03  0.98130279172E+02 0.  0.
    9000005    2    3    3    0    0  0.41699646555E+02 -0.16694399654E+02 -0.44306343144E+02  0.63843460254E+02  0.97658523311E+01 0.  0.
         22    1    3    3    0    0 -0.41699646555E+02  0.16694399654E+02 -0.11251864604E+03  0.12115283409E+03  0.00000000000E+00 0. -1.
         22    1    4    4    0    0  0.10207002498E+02 -0.37492440875E+00 -0.71015868986E+01  0.12440096655E+02  0.00000000000E+00 0.  1.
         22    1    4    4    0    0  0.31492644057E+02 -0.16319475245E+02 -0.37204756245E+02  0.51403363599E+02  0.00000000000E+00 0.  1.
<mgrwt>
<rscale>  0 0.98130279E+02</rscale>
<asrwt>0</asrwt>
<pdfrwt beam="1">  1        2 0.21670236E-02 0.98130279E+02</pdfrwt>
<pdfrwt beam="2">  1       -2 0.26293943E-01 0.98130279E+02</pdfrwt>
<totfact> 0.55148543E+04</totfact>
</mgrwt>
</event>
<event>
 7    1  0.3960685E-009  0.9090735E+02  0.7818608E-02  0.1300669E+00
         -2   -1    0    0    0  501 -0.00000000000E+00  0.00000000000E+00  0.36156762766E+01  0.36156771758E+01  0.25500000000E-02 0. -1.
          2   -1    0    0  501    0  0.00000000000E+00 -0.00000000000E+00 -0.57141074710E+03  0.57141074711E+03  0.25500000000E-02 0.  1.
         23    2    1    2    0    0  0.00000000000E+00  0.00000000000E+00 -0.56779507083E+03  0.57502642429E+03  0.90907349377E+02 0.  0.
    9000005    2    3    3    0    0  0.40321116407E+02  0.99018242317E+01 -0.39784850642E+03  0.40008165213E+03  0.76194328665E+01 0.  0.
         22    1    3    3    0    0 -0.40321116407E+02 -0.99018242317E+01 -0.16994656441E+03  0.17494477216E+03  0.00000000000E+00 0. -1.
         22    1    4    4    0    0  0.10844507505E+01 -0.35525217946E+00 -0.26624689641E+02  0.26649133870E+02  0.00000000000E+00 0. -1.
         22    1    4    4    0    0  0.39236665657E+02  0.10257076411E+02 -0.37122381678E+03  0.37343251826E+03  0.00000000000E+00 0. -1.
<mgrwt>
<rscale>  0 0.90907349E+02</rscale>
<asrwt>0</asrwt>
<pdfrwt beam="2">  1        2 0.87909274E-01 0.90907349E+02</pdfrwt>
<pdfrwt beam="1">  1       -2 0.55625841E-03 0.90907349E+02</pdfrwt>
<totfact> 0.22640951E+05</totfact>
</mgrwt>
</event>
<event>
 7    1  0.3960685E-009  0.9086013E+02  0.7818608E-02  0.1300782E+00
          2   -1    0    0  501    0  0.00000000000E+00  0.00000000000E+00  0.47959689166E+03  0.47959689167E+03  0.25500000000E-02 0. -1.
         -2   -1    0    0    0  501 -0.00000000000E+00 -0.00000000000E+00 -0.43033858586E+01  0.43033866141E+01  0.25500000000E-02 0.  1.
         23    2    1    2    0    0  0.00000000000E+00  0.00000000000E+00  0.47529350580E+03  0.48390027828E+03  0.90860126917E+02 0.  0.
    9000005    2    3    3    0    0  0.10885013701E+02 -0.39807037481E+02  0.33410204378E+03  0.33680128881E+03  0.10385024229E+02 0.  0.
         22    1    3    3    0    0 -0.10885013701E+02  0.39807037481E+02  0.14119146202E+03  0.14709898947E+03  0.00000000000E+00 0.  1.
         22    1    4    4    0    0  0.62959140269E+01 -0.86161928438E+01  0.66893532313E+02  0.67739368006E+02  0.00000000000E+00 0.  1.
         22    1    4    4    0    0  0.45890996740E+01 -0.31190844638E+02  0.26720851147E+03  0.26906192081E+03  0.00000000000E+00 0.  1.
<mgrwt>
<rscale>  0 0.90860127E+02</rscale>
<asrwt>0</asrwt>
<pdfrwt beam="1">  1        2 0.73784143E-01 0.90860127E+02</pdfrwt>
<pdfrwt beam="2">  1       -2 0.66205937E-03 0.90860127E+02</pdfrwt>
<totfact> 0.21453233E+05</totfact>
</mgrwt>
</event>
<event>
 7    1  0.3960685E-009  0.9622419E+02  0.7818608E-02  0.1288442E+00
          2   -1    0    0  501    0  0.00000000000E+00  0.00000000000E+00  0.41572408856E+03  0.41572408857E+03  0.25500000000E-02 0. -1.
         -2   -1    0    0    0  501 -0.00000000000E+00 -0.00000000000E+00 -0.55680520879E+01  0.55680526718E+01  0.25500000000E-02 0.  1.
         23    2    1    2    0    0  0.00000000000E+00  0.00000000000E+00  0.41015603647E+03  0.42129214124E+03  0.96224186231E+02 0.  0.
    9000005    2    3    3    0    0 -0.25217659551E+02  0.39809394860E+02  0.20999387459E+03  0.21565749114E+03  0.13784333395E+02 0.  0.
         22    1    3    3    0    0  0.25217659551E+02 -0.39809394860E+02  0.20016216188E+03  0.20563465010E+03  0.00000000000E+00 0. -1.
         22    1    4    4    0    0 -0.75931633539E+01  0.12628752808E+02  0.96954075003E+02  0.98067498117E+02  0.00000000000E+00 0.  1.
         22    1    4    4    0    0 -0.17624496197E+02  0.27180642051E+02  0.11303979959E+03  0.11758999303E+03  0.00000000000E+00 0.  1.
<mgrwt>
<rscale>  0 0.96224186E+02</rscale>
<asrwt>0</asrwt>
<pdfrwt beam="1">  1        2 0.63957541E-01 0.96224186E+02</pdfrwt>
<pdfrwt beam="2">  1       -2 0.85662359E-03 0.96224186E+02</pdfrwt>
<totfact> 0.17533779E+05</totfact>
</mgrwt>
</event>
<event>
 7    1  0.3960685E-009  0.8864882E+02  0.7818608E-02  0.1306157E+00
          2   -1    0    0  501    0  0.00000000000E+00  0.00000000000E+00  0.91766399457E+03  0.91766399457E+03  0.25500000000E-02 0. -1.
         -2   -1    0    0    0  501 -0.00000000000E+00 -0.00000000000E+00 -0.21409281902E+01  0.21409297088E+01  0.25500000000E-02 0.  1.
         23    2    1    2    0    0  0.00000000000E+00  0.00000000000E+00  0.91552306638E+03  0.91980492428E+03  0.88648822104E+02 0.  0.
    9000005    2    3    3    0    0  0.78535555088E+01  0.10160147952E+02  0.89755805537E+03  0.89772215813E+03  0.11388743876E+02 0.  0.
         22    1    3    3    0    0 -0.78535555088E+01 -0.10160147952E+02  0.17965011001E+02  0.22082766149E+02  0.00000000000E+00 0.  1.
         22    1    4    4    0    0  0.27805616863E+01  0.28861554507E+01  0.63810551141E+03  0.63811809652E+03  0.00000000000E+00 0. -1.
         22    1    4    4    0    0  0.50729938225E+01  0.72739925015E+01  0.25945254396E+03  0.25960406160E+03  0.00000000000E+00 0. -1.
<mgrwt>
<rscale>  0 0.88648822E+02</rscale>
<asrwt>0</asrwt>
<pdfrwt beam="1">  1        2 0.14117901E+00 0.88648822E+02</pdfrwt>
<pdfrwt beam="2">  1       -2 0.32937384E-03 0.88648822E+02</pdfrwt>
<totfact> 0.26752407E+05</totfact>
</mgrwt>
</event>
<event>
 7    1  0.3960685E-009  0.8957575E+02  0.7818608E-02  0.1303882E+00
         -2   -1    0    0    0  501 -0.00000000000E+00  0.00000000000E+00  0.36631279373E+01  0.36631288249E+01  0.25500000000E-02 0.  1.
          2   -1    0    0  501    0  0.00000000000E+00 -0.00000000000E+00 -0.54760669535E+03  0.54760669536E+03  0.25500000000E-02 0. -1.
         23    2    1    2    0    0  0.00000000000E+00  0.00000000000E+00 -0.54394356741E+03  0.55126982418E+03  0.89575747403E+02 0.  0.
    9000005    2    3    3    0    0 -0.18618668361E+02  0.27447157145E+02 -0.45417786465E+03  0.45557299749E+03  0.13008537731E+02 0.  0.
         22    1    3    3    0    0  0.18618668361E+02 -0.27447157145E+02 -0.89765702761E+02  0.95696826693E+02  0.00000000000E+00 0.  1.
         22    1    4    4    0    0  0.11089774407E+00  0.94531106058E+01 -0.14372134525E+03  0.14403193631E+03  0.00000000000E+00 0. -1.
         22    1    4    4    0    0 -0.18729566105E+02  0.17994046539E+02 -0.31045651940E+03  0.31154106117E+03  0.00000000000E+00 0. -1.
<mgrwt>
<rscale>  0 0.89575747E+02</rscale>
<asrwt>0</asrwt>
<pdfrwt beam="2">  1        2 0.84247119E-01 0.89575747E+02</pdfrwt>
<pdfrwt beam="1">  1       -2 0.56355865E-03 0.89575747E+02</pdfrwt>
<totfact> 0.23240014E+05</totfact>
</mgrwt>
</event>
<event>
 7    1  0.3960685E-009  0.9168515E+02  0.7818608E-02  0.1298821E+00
         -2   -1    0    0    0  501 -0.00000000000E+00  0.00000000000E+00  0.18783670108E+02  0.18783670281E+02  0.25500000000E-02 0.  1.
          2   -1    0    0  501    0  0.00000000000E+00 -0.00000000000E+00 -0.11188132000E+03  0.11188132003E+03  0.25500000000E-02 0. -1.
         23    2    1    2    0    0  0.88817841970E-15  0.00000000000E+00 -0.93097649889E+02  0.13066499031E+03  0.91685152980E+02 0.  0.
    9000005    2    3    3    0    0  0.78278064371E+01 -0.39422098284E+02 -0.77604617461E+02  0.87590514795E+02  0.58519436132E+01 0.  0.
         22    1    3    3    0    0 -0.78278064371E+01  0.39422098284E+02 -0.15493032427E+02  0.43074475511E+02  0.00000000000E+00 0.  1.
         22    1    4    4    0    0  0.38502502071E+01 -0.29319071139E+02 -0.60322456666E+02  0.67180586015E+02  0.00000000000E+00 0. -1.
         22    1    4    4    0    0  0.39775562300E+01 -0.10103027145E+02 -0.17282160795E+02  0.20409928780E+02  0.00000000000E+00 0. -1.
<mgrwt>
<rscale>  0 0.91685153E+02</rscale>
<asrwt>0</asrwt>
<pdfrwt beam="2">  1        2 0.17212510E-01 0.91685153E+02</pdfrwt>
<pdfrwt beam="1">  1       -2 0.28897955E-02 0.91685153E+02</pdfrwt>
<totfact> 0.12508782E+05</totfact>
</mgrwt>
</event>
<event>
 7    1  0.3960685E-009  0.9160806E+02  0.7818608E-02  0.1299004E+00
         -2   -1    0    0    0  501 -0.00000000000E+00  0.00000000000E+00  0.58798776032E+02  0.58798776087E+02  0.25500000000E-02 0.  1.
          2   -1    0    0  501    0  0.00000000000E+00 -0.00000000000E+00 -0.35681171456E+02  0.35681171547E+02  0.25500000000E-02 0. -1.
         23    2    1    2    0    0  0.00000000000E+00  0.00000000000E+00  0.23117604577E+02  0.94479947634E+02  0.91608061128E+02 0.  0.
    9000005    2    3    3    0    0  0.35661332793E+02 -0.14529121335E+02  0.35696344863E+02  0.53970063278E+02  0.12478488302E+02 0.  0.
         22    1    3    3    0    0 -0.35661332793E+02  0.14529121335E+02 -0.12578740287E+02  0.40509884356E+02  0.00000000000E+00 0. -1.
         22    1    4    4    0    0  0.16110326527E+02 -0.60249937525E+01  0.78705782545E+01  0.18915315821E+02  0.00000000000E+00 0.  1.
         22    1    4    4    0    0  0.19551006265E+02 -0.85041275822E+01  0.27825766609E+02  0.35054747457E+02  0.00000000000E+00 0.  1.
<mgrwt>
<rscale>  0 0.91608061E+02</rscale>
<asrwt>0</asrwt>
<pdfrwt beam="2">  1        2 0.54894110E-02 0.91608061E+02</pdfrwt>
<pdfrwt beam="1">  1       -2 0.90459656E-02 0.91608061E+02</pdfrwt>
<totfact> 0.91331864E+04</totfact>
</mgrwt>
</event>
<event>
 7    1  0.3960685E-009  0.9090992E+02  0.7818608E-02  0.1300663E+00
         -2   -1    0    0    0  501 -0.00000000000E+00  0.00000000000E+00  0.13466786474E+02  0.13466786716E+02  0.25500000000E-02 0.  1.
          2   -1    0    0  501    0  0.00000000000E+00 -0.00000000000E+00 -0.15342585579E+03  0.15342585581E+03  0.25500000000E-02 0. -1.
         23    2    1    2    0    0  0.00000000000E+00  0.00000000000E+00 -0.13995906931E+03  0.16689264253E+03  0.90909917202E+02 0.  0.
    9000005    2    3    3    0    0 -0.13483883923E+02  0.42609394640E+02 -0.83701220477E+02  0.95043347518E+02  0.54743000402E+01 0.  0.
         22    1    3    3    0    0  0.13483883923E+02 -0.42609394640E+02 -0.56257848838E+02  0.71849295007E+02  0.00000000000E+00 0.  1.
         22    1    4    4    0    0 -0.32144421326E+01  0.79127480858E+01 -0.11999486924E+02  0.14728608452E+02  0.00000000000E+00 0.  1.
         22    1    4    4    0    0 -0.10269441790E+02  0.34696646554E+02 -0.71701733553E+02  0.80314739066E+02  0.00000000000E+00 0.  1.
<mgrwt>
<rscale>  0 0.90909917E+02</rscale>
<asrwt>0</asrwt>
<pdfrwt beam="2">  1        2 0.23603977E-01 0.90909917E+02</pdfrwt>
<pdfrwt beam="1">  1       -2 0.20718134E-02 0.90909917E+02</pdfrwt>
<totfact> 0.14201533E+05</totfact>
</mgrwt>
</event>
<event>
 7    1  0.4187591E-009  0.9059531E+02  0.7818608E-02  0.1301416E+00
         -2   -1    0    0    0  501 -0.00000000000E+00  0.00000000000E+00  0.79634230889E+01  0.79634234972E+01  0.25500000000E-02 0.  1.
          2   -1    0    0  501    0  0.00000000000E+00 -0.00000000000E+00 -0.25766274760E+03  0.25766274761E+03  0.25500000000E-02 0. -1.
         23    2    1    2    0    0  0.00000000000E+00  0.00000000000E+00 -0.24969932451E+03  0.26562617110E+03  0.90595309575E+02 0.  0.
    9000005    2    3    3    0    0  0.13051158388E+02  0.41249879682E+02 -0.10547455899E+03  0.11505171013E+03  0.15496067278E+02 0.  0.
         22    1    3    3    0    0 -0.13051158388E+02 -0.41249879682E+02 -0.14422476552E+03  0.15057446098E+03  0.00000000000E+00 0.  1.
         22    1    4    4    0    0  0.89010536844E+01  0.31924048522E+02 -0.94114575176E+02  0.99779391115E+02  0.00000000000E+00 0. -1.
         22    1    4    4    0    0  0.41501047039E+01  0.93258311595E+01 -0.11359983809E+02  0.15272319012E+02  0.00000000000E+00 0. -1.
<mgrwt>
<rscale>  0 0.90595310E+02</rscale>
<asrwt>0</asrwt>
<pdfrwt beam="2">  1        2 0.39640416E-01 0.90595310E+02</pdfrwt>
<pdfrwt beam="1">  1       -2 0.12251422E-02 0.90595310E+02</pdfrwt>
<totfact> 0.17267935E+05</totfact>
</mgrwt>
</event>
<event>
 7    1  0.3960685E-009  0.9183511E+02  0.7818608E-02  0.1298468E+00
         -2   -1    0    0    0  501 -0.00000000000E+00  0.00000000000E+00  0.15024733185E+02  0.15024733402E+02  0.25500000000E-02 0.  1.
          2   -1    0    0  501    0  0.00000000000E+00 -0.00000000000E+00 -0.14033005630E+03  0.14033005633E+03  0.25500000000E-02 0. -1.
         23    2    1    2    0    0  0.00000000000E+00 -0.35527136788E-14 -0.12530532312E+03  0.15535478973E+03  0.91835105977E+02 0.  0.
    9000005    2    3    3    0    0  0.85310084064E+01  0.29229958022E+02 -0.12036320121E+03  0.12450688673E+03  0.93539343254E+01 0.  0.
         22    1    3    3    0    0 -0.85310084064E+01 -0.29229958022E+02 -0.49421219076E+01  0.30847902997E+02  0.00000000000E+00 0.  1.
         22    1    4    4    0    0 -0.18632447975E+01  0.49660405154E+01 -0.25092325059E+02  0.25646793492E+02  0.00000000000E+00 0. -1.
         22    1    4    4    0    0  0.10394253204E+02  0.24263917507E+02 -0.95270876153E+02  0.98860093240E+02  0.00000000000E+00 0. -1.
<mgrwt>
<rscale>  0 0.91835106E+02</rscale>
<asrwt>0</asrwt>
<pdfrwt beam="2">  1        2 0.21589239E-01 0.91835106E+02</pdfrwt>
<pdfrwt beam="1">  1       -2 0.23114975E-02 0.91835106E+02</pdfrwt>
<totfact> 0.13404893E+05</totfact>
</mgrwt>
</event>
<event>
 7    1  0.3960685E-009  0.9305858E+02  0.7818608E-02  0.1295609E+00
         -2   -1    0    0    0  501 -0.00000000000E+00  0.00000000000E+00  0.11538452737E+03  0.11538452740E+03  0.25500000000E-02 0. -1.
          2   -1    0    0  501    0  0.00000000000E+00 -0.00000000000E+00 -0.18763127454E+02  0.18763127627E+02  0.25500000000E-02 0.  1.
         23    2    1    2    0    0 -0.71054273576E-14 -0.22204460493E-15  0.96621399921E+02  0.13414765503E+03  0.93058575248E+02 0.  0.
    9000005    2    3    3    0    0  0.42678563489E+02 -0.62506157509E+00  0.27918698566E+02  0.53265570135E+02  0.15359581660E+02 0.  0.
         22    1    3    3    0    0 -0.42678563489E+02  0.62506157509E+00  0.68702701354E+02  0.80882084894E+02  0.00000000000E+00 0. -1.
         22    1    4    4    0    0  0.17421217159E+02  0.59410175269E+01  0.16722398880E+02  0.24868315602E+02  0.00000000000E+00 0.  1.
         22    1    4    4    0    0  0.25257346329E+02 -0.65660791020E+01  0.11196299687E+02  0.28397254534E+02  0.00000000000E+00 0.  1.
<mgrwt>
<rscale>  0 0.93058575E+02</rscale>
<asrwt>0</asrwt>
<pdfrwt beam="2">  1        2 0.28866350E-02 0.93058575E+02</pdfrwt>
<pdfrwt beam="1">  1       -2 0.17751466E-01 0.93058575E+02</pdfrwt>
<totfact> 0.72557058E+04</totfact>
</mgrwt>
</event>
<event>
 7    1  0.3960685E-009  0.9640489E+02  0.7818608E-02  0.1288043E+00
         -2   -1    0    0    0  501 -0.00000000000E+00  0.00000000000E+00  0.85033150560E+01  0.85033154384E+01  0.25500000000E-02 0.  1.
          2   -1    0    0  501    0  0.00000000000E+00 -0.00000000000E+00 -0.27324349786E+03  0.27324349788E+03  0.25500000000E-02 0. -1.
         23    2    1    2    0    0 -0.44408920985E-15 -0.71054273576E-14 -0.26474018281E+03  0.28174681331E+03  0.96404887944E+02 0.  0.
    9000005    2    3    3    0    0  0.38203716437E+01  0.35552501057E+02 -0.22536833675E+03  0.22856112132E+03  0.13066116436E+02 0.  0.
         22    1    3    3    0    0 -0.38203716437E+01 -0.35552501057E+02 -0.39371846059E+02  0.53185691995E+02  0.00000000000E+00 0.  1.
         22    1    4    4    0    0  0.18073736238E+01  0.34577687806E+02 -0.19049871034E+03  0.19361983817E+03  0.00000000000E+00 0. -1.
         22    1    4    4    0    0  0.20129980199E+01  0.97481325128E+00 -0.34869626410E+02  0.34941283146E+02  0.00000000000E+00 0. -1.
<mgrwt>
<rscale>  0 0.96404888E+02</rscale>
<asrwt>0</asrwt>
<pdfrwt beam="2">  1        2 0.42037454E-01 0.96404888E+02</pdfrwt>
<pdfrwt beam="1">  1       -2 0.13082026E-02 0.96404888E+02</pdfrwt>
<totfact> 0.14940052E+05</totfact>
</mgrwt>
</event>
<event>
 7    1  0.3960685E-009  0.8959127E+02  0.7818608E-02  0.1303845E+00
          2   -1    0    0  501    0  0.00000000000E+00  0.00000000000E+00  0.21193699344E+03  0.21193699345E+03  0.25500000000E-02 0. -1.
         -2   -1    0    0    0  501 -0.00000000000E+00 -0.00000000000E+00 -0.94681387891E+01  0.94681391325E+01  0.25500000000E-02 0.  1.
         23    2    1    2    0    0  0.00000000000E+00  0.00000000000E+00  0.20246885465E+03  0.22140513259E+03  0.89591269845E+02 0.  0.
    9000005    2    3    3    0    0  0.29011066979E+02 -0.15813303423E+02  0.17558905802E+03  0.17881140019E+03  0.70920356803E+01 0.  0.
         22    1    3    3    0    0 -0.29011066979E+02  0.15813303423E+02  0.26879796629E+02  0.42593732394E+02  0.00000000000E+00 0.  1.
         22    1    4    4    0    0  0.50169056488E+01 -0.38749484587E-01  0.22500887488E+02  0.23053433183E+02  0.00000000000E+00 0. -1.
         22    1    4    4    0    0  0.23994161330E+02 -0.15774553938E+02  0.15308817053E+03  0.15575796701E+03  0.00000000000E+00 0. -1.
<mgrwt>
<rscale>  0 0.89591270E+02</rscale>
<asrwt>0</asrwt>
<pdfrwt beam="1">  1        2 0.32605688E-01 0.89591270E+02</pdfrwt>
<pdfrwt beam="2">  1       -2 0.14566369E-02 0.89591270E+02</pdfrwt>
<totfact> 0.16558645E+05</totfact>
</mgrwt>
</event>
<event>
 6    1  0.3960685E-009  0.2251910E+03  0.7818608E-02  0.1130071E+00
          2   -1    0    0  501    0  0.00000000000E+00  0.00000000000E+00  0.14119102024E+04  0.14119102024E+04  0.25500000000E-02 0. -1.
         -2   -1    0    0    0  501 -0.00000000000E+00 -0.00000000000E+00 -0.89791443698E+01  0.89791447318E+01  0.25500000000E-02 0.  1.
    9000005    2    1    2    0    0 -0.14628203324E+02 -0.53595439516E+02  0.13193739651E+04  0.13205487110E+04  0.38448729057E+01 0.  0.
         22    1    1    2    0    0  0.14628203324E+02  0.53595439516E+02  0.83557092989E+02  0.10034063613E+03  0.00000000000E+00 0.  1.
         22    1    3    3    0    0 -0.11330355813E+02 -0.34766644177E+02  0.85643305037E+03  0.85721331434E+03  0.00000000000E+00 0. -1.
         22    1    3    3    0    0 -0.32978475116E+01 -0.18828795339E+02  0.46294091468E+03  0.46333539668E+03  0.00000000000E+00 0. -1.
<mgrwt>
<rscale>  0 0.22519099E+03</rscale>
<asrwt>0</asrwt>
<pdfrwt beam="1">  1        2 0.21721679E+00 0.22519099E+03</pdfrwt>
<pdfrwt beam="2">  1       -2 0.13814079E-02 0.22519099E+03</pdfrwt>
<totfact> 0.20077320E+04</totfact>
</mgrwt>
</event>
<event>
 7    1  0.3960685E-009  0.9598518E+02  0.7818608E-02  0.1288973E+00
         -2   -1    0    0    0  501 -0.00000000000E+00  0.00000000000E+00  0.14739928464E+02  0.14739928685E+02  0.25500000000E-02 0.  1.
          2   -1    0    0  501    0  0.00000000000E+00 -0.00000000000E+00 -0.15626185816E+03  0.15626185818E+03  0.25500000000E-02 0. -1.
         23    2    1    2    0    0  0.00000000000E+00  0.00000000000E+00 -0.14152192970E+03  0.17100178687E+03  0.95985178682E+02 0.  0.
    9000005    2    3    3    0    0 -0.14178760405E+02 -0.39290057260E+02 -0.11092847440E+03  0.11922625835E+03  0.12846338062E+02 0.  0.
         22    1    3    3    0    0  0.14178760405E+02  0.39290057260E+02 -0.30593455296E+02  0.51775528515E+02  0.00000000000E+00 0.  1.
         22    1    4    4    0    0 -0.17753605609E+01 -0.11384204576E+02 -0.46805436463E+02  0.48202706370E+02  0.00000000000E+00 0. -1.
         22    1    4    4    0    0 -0.12403399844E+02 -0.27905852684E+02 -0.64123037939E+02  0.71023551983E+02  0.00000000000E+00 0. -1.
<mgrwt>
<rscale>  0 0.95985179E+02</rscale>
<asrwt>0</asrwt>
<pdfrwt beam="2">  1        2 0.24040285E-01 0.95985179E+02</pdfrwt>
<pdfrwt beam="1">  1       -2 0.22676814E-02 0.95985179E+02</pdfrwt>
<totfact> 0.12327031E+05</totfact>
</mgrwt>
</event>
<event>
 7    1  0.3960685E-009  0.8939174E+02  0.7818608E-02  0.1304331E+00
         -2   -1    0    0    0  501 -0.00000000000E+00  0.00000000000E+00  0.82801482647E+02  0.82801482686E+02  0.25500000000E-02 0.  1.
          2   -1    0    0  501    0  0.00000000000E+00 -0.00000000000E+00 -0.24126630607E+02  0.24126630742E+02  0.25500000000E-02 0. -1.
         23    2    1    2    0    0  0.00000000000E+00  0.00000000000E+00  0.58674852040E+02  0.10692811343E+03  0.89391739995E+02 0.  0.
    9000005    2    3    3    0    0  0.12211373893E+02 -0.31046743312E+02  0.63332739421E+02  0.73242599664E+02  0.15505631245E+02 0.  0.
         22    1    3    3    0    0 -0.12211373893E+02  0.31046743312E+02 -0.46578873813E+01  0.33685513764E+02  0.00000000000E+00 0. -1.
         22    1    4    4    0    0  0.28670320924E+00 -0.68441517327E+01  0.36894966396E+01  0.77805524948E+01  0.00000000000E+00 0.  1.
         22    1    4    4    0    0  0.11924670684E+02 -0.24202591580E+02  0.59643242782E+02  0.65462047169E+02  0.00000000000E+00 0.  1.
<mgrwt>
<rscale>  0 0.89391740E+02</rscale>
<asrwt>0</asrwt>
<pdfrwt beam="2">  1        2 0.37117893E-02 0.89391740E+02</pdfrwt>
<pdfrwt beam="1">  1       -2 0.12738690E-01 0.89391740E+02</pdfrwt>
<totfact> 0.88471450E+04</totfact>
</mgrwt>
</event>
<event>
 7    1  0.3960685E-009  0.9096205E+02  0.7818608E-02  0.1300539E+00
         -2   -1    0    0    0  501 -0.00000000000E+00  0.00000000000E+00  0.25552511159E+02  0.25552511286E+02  0.25500000000E-02 0.  1.
          2   -1    0    0  501    0  0.00000000000E+00 -0.00000000000E+00 -0.80951873864E+02  0.80951873904E+02  0.25500000000E-02 0. -1.
         23    2    1    2    0    0  0.00000000000E+00  0.00000000000E+00 -0.55399362705E+02  0.10650438519E+03  0.90962050750E+02 0.  0.
    9000005    2    3    3    0    0  0.11658712411E+02 -0.12454518578E+02  0.19701298270E+02  0.29490426151E+02  0.13802299552E+02 0.  0.
         22    1    3    3    0    0 -0.11658712411E+02  0.12454518578E+02 -0.75100660975E+02  0.77013959040E+02  0.00000000000E+00 0. -1.
         22    1    4    4    0    0 -0.83690775981E+00 -0.85150515162E+01  0.10158538242E+02  0.13281657131E+02  0.00000000000E+00 0. -1.
         22    1    4    4    0    0  0.12495620171E+02 -0.39394670617E+01  0.95427600274E+01  0.16208769020E+02  0.00000000000E+00 0. -1.
<mgrwt>
<rscale>  0 0.90962051E+02</rscale>
<asrwt>0</asrwt>
<pdfrwt beam="2">  1        2 0.12454134E-01 0.90962051E+02</pdfrwt>
<pdfrwt beam="1">  1       -2 0.39311556E-02 0.90962051E+02</pdfrwt>
<totfact> 0.11600318E+05</totfact>
</mgrwt>
</event>
<event>
 7    1  0.3960685E-009  0.9154457E+02  0.7818608E-02  0.1299154E+00
         -2   -1    0    0    0  501 -0.00000000000E+00  0.00000000000E+00  0.74518883050E+01  0.74518887413E+01  0.25500000000E-02 0.  1.
          2   -1    0    0  501    0  0.00000000000E+00 -0.00000000000E+00 -0.28115048079E+03  0.28115048080E+03  0.25500000000E-02 0. -1.
         23    2    1    2    0    0  0.00000000000E+00  0.00000000000E+00 -0.27369859248E+03  0.28860236954E+03  0.91544569350E+02 0.  0.
    9000005    2    3    3    0    0 -0.63375005912E+01 -0.41728154954E+02 -0.19038418262E+03  0.19520700712E+03  0.88451009088E+01 0.  0.
         22    1    3    3    0    0  0.63375005912E+01  0.41728154954E+02 -0.83314409866E+02  0.93395362416E+02  0.00000000000E+00 0. -1.
         22    1    4    4    0    0  0.10435315647E+01 -0.16476791657E+02 -0.85014701682E+02  0.86602962556E+02  0.00000000000E+00 0.  1.
         22    1    4    4    0    0 -0.73810321559E+01 -0.25251363297E+02 -0.10536948093E+03  0.10860404457E+03  0.00000000000E+00 0.  1.
<mgrwt>
<rscale>  0 0.91544569E+02</rscale>
<asrwt>0</asrwt>
<pdfrwt beam="2">  1        2 0.43253912E-01 0.91544569E+02</pdfrwt>
<pdfrwt beam="1">  1       -2 0.11464446E-02 0.91544569E+02</pdfrwt>
<totfact> 0.17348788E+05</totfact>
</mgrwt>
</event>
<event>
 7    1  0.3960685E-009  0.8817608E+02  0.7818608E-02  0.1307330E+00
         -2   -1    0    0    0  501 -0.00000000000E+00  0.00000000000E+00  0.22967038980E+01  0.22967053136E+01  0.25500000000E-02 0.  1.
          2   -1    0    0  501    0  0.00000000000E+00 -0.00000000000E+00 -0.84632366033E+03  0.84632366034E+03  0.25500000000E-02 0. -1.
         23    2    1    2    0    0 -0.88817841970E-15  0.00000000000E+00 -0.84402695644E+03  0.84862036565E+03  0.88176084103E+02 0.  0.
    9000005    2    3    3    0    0 -0.46918269524E+01  0.15146542149E+02 -0.81792320856E+03  0.81807799128E+03  0.13393033924E+01 0.  0.
         22    1    3    3    0    0  0.46918269524E+01 -0.15146542149E+02 -0.26103747880E+02  0.30542374377E+02  0.00000000000E+00 0.  1.
         22    1    4    4    0    0 -0.35475150261E+00  0.15891687756E+01 -0.10590259778E+03  0.10591511470E+03  0.00000000000E+00 0. -1.
         22    1    4    4    0    0 -0.43370754498E+01  0.13557373373E+02 -0.71202061078E+03  0.71216287658E+03  0.00000000000E+00 0. -1.
<mgrwt>
<rscale>  0 0.88176084E+02</rscale>
<asrwt>0</asrwt>
<pdfrwt beam="2">  1        2 0.13020339E+00 0.88176084E+02</pdfrwt>
<pdfrwt beam="1">  1       -2 0.35333984E-03 0.88176084E+02</pdfrwt>
<totfact> 0.26859484E+05</totfact>
</mgrwt>
</event>
<event>
 7    1  0.3960685E-009  0.9272400E+02  0.7818608E-02  0.1296386E+00
         -2   -1    0    0    0  501 -0.00000000000E+00  0.00000000000E+00  0.88222943215E+01  0.88222946900E+01  0.25500000000E-02 0.  1.
          2   -1    0    0  501    0  0.00000000000E+00 -0.00000000000E+00 -0.24363671200E+03  0.24363671202E+03  0.25500000000E-02 0. -1.
         23    2    1    2    0    0  0.00000000000E+00  0.00000000000E+00 -0.23481441768E+03  0.25245900671E+03  0.92723995363E+02 0.  0.
    9000005    2    3    3    0    0  0.75431148781E+01  0.41431844230E+02 -0.68064365875E+02  0.80473321036E+02  0.83487243418E+01 0.  0.
         22    1    3    3    0    0 -0.75431148781E+01 -0.41431844230E+02 -0.16675005180E+03  0.17198568567E+03  0.00000000000E+00 0. -1.
         22    1    4    4    0    0  0.51427200208E+00  0.19147890996E+02 -0.36256496906E+02  0.41005362737E+02  0.00000000000E+00 0.  1.
         22    1    4    4    0    0  0.70288428760E+01  0.22283953233E+02 -0.31807868970E+02  0.39467958299E+02  0.00000000000E+00 0.  1.
<mgrwt>
<rscale>  0 0.92723995E+02</rscale>
<asrwt>0</asrwt>
<pdfrwt beam="2">  1        2 0.37482566E-01 0.92723995E+02</pdfrwt>
<pdfrwt beam="1">  1       -2 0.13572763E-02 0.92723995E+02</pdfrwt>
<totfact> 0.15892567E+05</totfact>
</mgrwt>
</event>
<event>
 7    1  0.3960685E-009  0.9417893E+02  0.7818608E-02  0.1293036E+00
         -2   -1    0    0    0  501 -0.00000000000E+00  0.00000000000E+00  0.59081914195E+02  0.59081914250E+02  0.25500000000E-02 0.  1.
          2   -1    0    0  501    0  0.00000000000E+00 -0.00000000000E+00 -0.37531247146E+02  0.37531247232E+02  0.25500000000E-02 0. -1.
         23    2    1    2    0    0  0.00000000000E+00  0.00000000000E+00  0.21550667049E+02  0.96613161482E+02  0.94178934594E+02 0.  0.
    9000005    2    3    3    0    0 -0.23637018455E+02 -0.38182617114E+01 -0.30638257476E+02  0.39193899844E+02  0.49164214539E+01 0.  0.
         22    1    3    3    0    0  0.23637018455E+02  0.38182617114E+01  0.52188924525E+02  0.57419261638E+02  0.00000000000E+00 0.  1.
         22    1    4    4    0    0 -0.20158120842E+02 -0.30805576653E+01 -0.28500675899E+02  0.35044660051E+02  0.00000000000E+00 0.  1.
         22    1    4    4    0    0 -0.34788976133E+01 -0.73770404610E+00 -0.21375815766E+01  0.41492397930E+01  0.00000000000E+00 0.  1.
<mgrwt>
<rscale>  0 0.94178935E+02</rscale>
<asrwt>0</asrwt>
<pdfrwt beam="2">  1        2 0.57740380E-02 0.94178935E+02</pdfrwt>
<pdfrwt beam="1">  1       -2 0.90895253E-02 0.94178935E+02</pdfrwt>
<totfact> 0.85346194E+04</totfact>
</mgrwt>
</event>
<event>
 7    1  0.3960685E-009  0.9035404E+02  0.7818608E-02  0.1301997E+00
          2   -1    0    0  501    0  0.00000000000E+00  0.00000000000E+00  0.28587468199E+03  0.28587468200E+03  0.25500000000E-02 0. -1.
         -2   -1    0    0    0  501 -0.00000000000E+00 -0.00000000000E+00 -0.71393626357E+01  0.71393630911E+01  0.25500000000E-02 0.  1.
         23    2    1    2    0    0  0.00000000000E+00  0.00000000000E+00  0.27873531935E+03  0.29301404509E+03  0.90354039012E+02 0.  0.
    9000005    2    3    3    0    0  0.35648680793E+02  0.16190505918E+02  0.21123841211E+03  0.21498332415E+03  0.79499675931E+01 0.  0.
         22    1    3    3    0    0 -0.35648680793E+02 -0.16190505918E+02  0.67496907239E+02  0.78030720944E+02  0.00000000000E+00 0.  1.
         22    1    4    4    0    0  0.15067501631E+02  0.26941263207E+01  0.76740303903E+02  0.78251914770E+02  0.00000000000E+00 0. -1.
         22    1    4    4    0    0  0.20581179162E+02  0.13496379598E+02  0.13449810821E+03  0.13673140937E+03  0.00000000000E+00 0. -1.
<mgrwt>
<rscale>  0 0.90354039E+02</rscale>
<asrwt>0</asrwt>
<pdfrwt beam="1">  1        2 0.43980720E-01 0.90354039E+02</pdfrwt>
<pdfrwt beam="2">  1       -2 0.10983635E-02 0.90354039E+02</pdfrwt>
<totfact> 0.18077905E+05</totfact>
</mgrwt>
</event>
<event>
 7    1  0.3960685E-009  0.9253197E+02  0.7818608E-02  0.1296833E+00
          2   -1    0    0  501    0  0.00000000000E+00  0.00000000000E+00  0.87718847398E+01  0.87718851104E+01  0.25500000000E-02 0. -1.
         -2   -1    0    0    0  501 -0.00000000000E+00 -0.00000000000E+00 -0.24402299088E+03  0.24402299089E+03  0.25500000000E-02 0.  1.
         23    2    1    2    0    0  0.00000000000E+00  0.00000000000E+00 -0.23525110614E+03  0.25279487600E+03  0.92531974978E+02 0.  0.
    9000005    2    3    3    0    0  0.12813113816E+02 -0.23177799726E+02 -0.22043858375E+03  0.22245023718E+03  0.13767807703E+02 0.  0.
         22    1    3    3    0    0 -0.12813113816E+02  0.23177799726E+02 -0.14812522386E+02  0.30344638821E+02  0.00000000000E+00 0. -1.
         22    1    4    4    0    0  0.64196017256E+01 -0.20502121498E+02 -0.13163646436E+03  0.13337806049E+03  0.00000000000E+00 0.  1.
         22    1    4    4    0    0  0.63935120901E+01 -0.26756782278E+01 -0.88802119391E+02  0.89072176683E+02  0.00000000000E+00 0.  1.
<mgrwt>
<rscale>  0 0.92531975E+02</rscale>
<asrwt>0</asrwt>
<pdfrwt beam="1">  1        2 0.13495209E-02 0.92531975E+02</pdfrwt>
<pdfrwt beam="2">  1       -2 0.37541993E-01 0.92531975E+02</pdfrwt>
<totfact> 0.54740467E+04</totfact>
</mgrwt>
</event>
<event>
 7    1  0.3960685E-009  0.9052065E+02  0.7818608E-02  0.1301596E+00
         -2   -1    0    0    0  501 -0.00000000000E+00  0.00000000000E+00  0.56810611619E+03  0.56810611620E+03  0.25500000000E-02 0.  1.
          2   -1    0    0  501    0  0.00000000000E+00 -0.00000000000E+00 -0.36058347636E+01  0.36058356652E+01  0.25500000000E-02 0. -1.
         23    2    1    2    0    0 -0.88817841970E-15  0.35527136788E-14  0.56450028143E+03  0.57171195186E+03  0.90520650518E+02 0.  0.
    9000005    2    3    3    0    0 -0.63041556610E+01  0.25932211385E+02  0.51119686029E+03  0.51210090699E+03  0.14590647791E+02 0.  0.
         22    1    3    3    0    0  0.63041556610E+01 -0.25932211385E+02  0.53303421142E+02  0.59611044877E+02  0.00000000000E+00 0.  1.
         22    1    4    4    0    0  0.16857774296E+01  0.13434248517E+02  0.15329328101E+03  0.15389006102E+03  0.00000000000E+00 0.  1.
         22    1    4    4    0    0 -0.79899330906E+01  0.12497962868E+02  0.35790357928E+03  0.35821084597E+03  0.00000000000E+00 0.  1.
<mgrwt>
<rscale>  0 0.90520651E+02</rscale>
<asrwt>0</asrwt>
<pdfrwt beam="2">  1        2 0.55474411E-03 0.90520651E+02</pdfrwt>
<pdfrwt beam="1">  1       -2 0.87400904E-01 0.90520651E+02</pdfrwt>
<totfact> 0.33367616E+04</totfact>
</mgrwt>
</event>
<event>
 7    1  0.3960685E-009  0.9115385E+02  0.7818608E-02  0.1300081E+00
          2   -1    0    0  501    0  0.00000000000E+00  0.00000000000E+00  0.32100621305E+02  0.32100621407E+02  0.25500000000E-02 0.  1.
         -2   -1    0    0    0  501 -0.00000000000E+00 -0.00000000000E+00 -0.64710769485E+02  0.64710769536E+02  0.25500000000E-02 0. -1.
         23    2    1    2    0    0  0.00000000000E+00  0.00000000000E+00 -0.32610148180E+02  0.96811390942E+02  0.91153846062E+02 0.  0.
    9000005    2    3    3    0    0 -0.32714896638E+02 -0.16032484805E+02 -0.44200067285E+02  0.58580104593E+02  0.12275083508E+02 0.  0.
         22    1    3    3    0    0  0.32714896638E+02  0.16032484805E+02  0.11589919105E+02  0.38231286349E+02  0.00000000000E+00 0.  1.
         22    1    4    4    0    0 -0.18137572219E+02 -0.33315102240E+01 -0.16155345036E+02  0.24516640464E+02  0.00000000000E+00 0. -1.
         22    1    4    4    0    0 -0.14577324419E+02 -0.12700974581E+02 -0.28044722249E+02  0.34063464130E+02  0.00000000000E+00 0. -1.
<mgrwt>
<rscale>  0 0.91153846E+02</rscale>
<asrwt>0</asrwt>
<pdfrwt beam="1">  1        2 0.49385572E-02 0.91153846E+02</pdfrwt>
<pdfrwt beam="2">  1       -2 0.99555030E-02 0.91153846E+02</pdfrwt>
<totfact> 0.90136758E+04</totfact>
</mgrwt>
</event>
<event>
 7    1  0.3960685E-009  0.8643944E+02  0.7818608E-02  0.1311711E+00
         -2   -1    0    0    0  501 -0.00000000000E+00  0.00000000000E+00  0.72291304605E+01  0.72291309102E+01  0.25500000000E-02 0. -1.
          2   -1    0    0  501    0  0.00000000000E+00 -0.00000000000E+00 -0.25839127870E+03  0.25839127872E+03  0.25500000000E-02 0.  1.
         23    2    1    2    0    0  0.00000000000E+00  0.00000000000E+00 -0.25116214824E+03  0.26562040963E+03  0.86439442965E+02 0.  0.
    9000005    2    3    3    0    0  0.30024699519E+02 -0.28958660731E+02 -0.13570375514E+03  0.14285751967E+03  0.15895759012E+02 0.  0.
         22    1    3    3    0    0 -0.30024699519E+02  0.28958660731E+02 -0.11545839310E+03  0.12276288996E+03  0.00000000000E+00 0.  1.
         22    1    4    4    0    0  0.14595558468E+02 -0.84966259106E+01 -0.76554131626E+02  0.78394885343E+02  0.00000000000E+00 0.  1.
         22    1    4    4    0    0  0.15429141052E+02 -0.20462034820E+02 -0.59149623513E+02  0.64462634327E+02  0.00000000000E+00 0.  1.
<mgrwt>
<rscale>  0 0.86439443E+02</rscale>
<asrwt>0</asrwt>
<pdfrwt beam="2">  1        2 0.39752497E-01 0.86439443E+02</pdfrwt>
<pdfrwt beam="1">  1       -2 0.11121742E-02 0.86439443E+02</pdfrwt>
<totfact> 0.19591039E+05</totfact>
</mgrwt>
</event>
<event>
 7    1  0.3960685E-009  0.9731128E+02  0.7818608E-02  0.1286054E+00
         -2   -1    0    0    0  501 -0.00000000000E+00  0.00000000000E+00  0.75703372745E+01  0.75703377040E+01  0.25500000000E-02 0.  1.
          2   -1    0    0  501    0  0.00000000000E+00 -0.00000000000E+00 -0.31271673722E+03  0.31271673723E+03  0.25500000000E-02 0. -1.
         23    2    1    2    0    0  0.00000000000E+00  0.00000000000E+00 -0.30514639994E+03  0.32028707493E+03  0.97311278742E+02 0.  0.
    9000005    2    3    3    0    0  0.31855965768E+02 -0.36297378014E+02 -0.14394927260E+03  0.15201106337E+03  0.73258512984E+01 0.  0.
         22    1    3    3    0    0 -0.31855965768E+02  0.36297378014E+02 -0.16119712734E+03  0.16827601157E+03  0.00000000000E+00 0.  1.
         22    1    4    4    0    0  0.70377837546E+01 -0.89288046602E+01 -0.25169321142E+02  0.27617905054E+02  0.00000000000E+00 0.  1.
         22    1    4    4    0    0  0.24818182013E+02 -0.27368573354E+02 -0.11877995146E+03  0.12439315831E+03  0.00000000000E+00 0.  1.
<mgrwt>
<rscale>  0 0.97311279E+02</rscale>
<asrwt>0</asrwt>
<pdfrwt beam="2">  1        2 0.48110257E-01 0.97311279E+02</pdfrwt>
<pdfrwt beam="1">  1       -2 0.11646675E-02 0.97311279E+02</pdfrwt>
<totfact> 0.15326889E+05</totfact>
</mgrwt>
</event>
<event>
 7    1  0.3960685E-009  0.8937831E+02  0.7818608E-02  0.1304364E+00
          2   -1    0    0  501    0  0.00000000000E+00  0.00000000000E+00  0.85209530500E+03  0.85209530500E+03  0.25500000000E-02 0. -1.
         -2   -1    0    0    0  501 -0.00000000000E+00 -0.00000000000E+00 -0.23437753223E+01  0.23437767095E+01  0.25500000000E-02 0.  1.
         23    2    1    2    0    0  0.00000000000E+00  0.00000000000E+00  0.84975152968E+03  0.85443908171E+03  0.89378309278E+02 0.  0.
    9000005    2    3    3    0    0 -0.24033429492E+02  0.26669271532E+02  0.67822893672E+03  0.67919965786E+03  0.53692510447E+01 0.  0.
         22    1    3    3    0    0  0.24033429492E+02 -0.26669271532E+02  0.17152259295E+03  0.17523942385E+03  0.00000000000E+00 0.  1.
         22    1    4    4    0    0 -0.22804550257E+02  0.24751689067E+02  0.60507150876E+03  0.60600678572E+03  0.00000000000E+00 0.  1.
         22    1    4    4    0    0 -0.12288792345E+01  0.19175824649E+01  0.73157427964E+02  0.73192872146E+02  0.00000000000E+00 0.  1.
<mgrwt>
<rscale>  0 0.89378309E+02</rscale>
<asrwt>0</asrwt>
<pdfrwt beam="1">  1        2 0.13109163E+00 0.89378309E+02</pdfrwt>
<pdfrwt beam="2">  1       -2 0.36058079E-03 0.89378309E+02</pdfrwt>
<totfact> 0.25946233E+05</totfact>
</mgrwt>
</event>
<event>
 7    1  0.3960685E-009  0.9504520E+02  0.7818608E-02  0.1291074E+00
         -2   -1    0    0    0  501 -0.00000000000E+00  0.00000000000E+00  0.17114366071E+02  0.17114366261E+02  0.25500000000E-02 0. -1.
          2   -1    0    0  501    0  0.00000000000E+00 -0.00000000000E+00 -0.13195917815E+03  0.13195917818E+03  0.25500000000E-02 0.  1.
         23    2    1    2    0    0  0.17763568394E-14  0.00000000000E+00 -0.11484481208E+03  0.14907354444E+03  0.95045203928E+02 0.  0.
    9000005    2    3    3    0    0 -0.14100963521E+02  0.43994650554E+02 -0.53092906804E+02  0.71952443209E+02  0.14964320272E+02 0.  0.
         22    1    3    3    0    0  0.14100963521E+02 -0.43994650554E+02 -0.61751905279E+02  0.77121101232E+02  0.00000000000E+00 0. -1.
         22    1    4    4    0    0 -0.16814993620E+02  0.35518737503E+02 -0.39607338138E+02  0.55794856023E+02  0.00000000000E+00 0. -1.
         22    1    4    4    0    0  0.27140300983E+01  0.84759130507E+01 -0.13485568666E+02  0.16157587186E+02  0.00000000000E+00 0. -1.
<mgrwt>
<rscale>  0 0.95045204E+02</rscale>
<asrwt>0</asrwt>
<pdfrwt beam="2">  1        2 0.20301411E-01 0.95045204E+02</pdfrwt>
<pdfrwt beam="1">  1       -2 0.26329795E-02 0.95045204E+02</pdfrwt>
<totfact> 0.11954975E+05</totfact>
</mgrwt>
</event>
<event>
 7    1  0.3960685E-009  0.8737513E+02  0.7818608E-02  0.1309336E+00
          2   -1    0    0  501    0  0.00000000000E+00  0.00000000000E+00  0.21227319499E+03  0.21227319501E+03  0.25500000000E-02 0. -1.
         -2   -1    0    0    0  501 -0.00000000000E+00 -0.00000000000E+00 -0.89912599484E+01  0.89912603100E+01  0.25500000000E-02 0.  1.
         23    2    1    2    0    0  0.00000000000E+00 -0.17763568394E-14  0.20328193504E+03  0.22126445532E+03  0.87375134173E+02 0.  0.
    9000005    2    3    3    0    0  0.38785756582E+02 -0.11301210504E+02  0.64127436504E+02  0.76364397566E+02  0.93349253118E+01 0.  0.
         22    1    3    3    0    0 -0.38785756582E+02  0.11301210504E+02  0.13915449854E+03  0.14490005775E+03  0.00000000000E+00 0. -1.
         22    1    4    4    0    0  0.35063405569E+02 -0.10126563021E+02  0.61932772720E+02  0.71886424487E+02  0.00000000000E+00 0.  1.
         22    1    4    4    0    0  0.37223510127E+01 -0.11746474832E+01  0.21946637834E+01  0.44779730787E+01  0.00000000000E+00 0.  1.
<mgrwt>
<rscale>  0 0.87375134E+02</rscale>
<asrwt>0</asrwt>
<pdfrwt beam="1">  1        2 0.32657414E-01 0.87375134E+02</pdfrwt>
<pdfrwt beam="2">  1       -2 0.13832708E-02 0.87375134E+02</pdfrwt>
<totfact> 0.17717260E+05</totfact>
</mgrwt>
</event>
<event>
 7    1  0.3960685E-009  0.7746931E+02  0.7818608E-02  0.1336391E+00
          2   -1    0    0  501    0  0.00000000000E+00  0.00000000000E+00  0.41836316618E+03  0.41836316619E+03  0.25500000000E-02 0. -1.
         -2   -1    0    0    0  501 -0.00000000000E+00 -0.00000000000E+00 -0.35862940343E+01  0.35862949409E+01  0.25500000000E-02 0.  1.
         23    2    1    2    0    0  0.00000000000E+00 -0.17763568394E-14  0.41477687215E+03  0.42194946113E+03  0.77469310568E+02 0.  0.
    9000005    2    3    3    0    0  0.35584637680E+02 -0.75192764664E+01  0.25790653170E+03  0.26091806770E+03  0.15480730038E+02 0.  0.
         22    1    3    3    0    0 -0.35584637680E+02  0.75192764664E+01  0.15687034045E+03  0.16103139343E+03  0.00000000000E+00 0.  1.
         22    1    4    4    0    0  0.36197981353E+02 -0.79063561117E+01  0.25735094851E+03  0.26000445192E+03  0.00000000000E+00 0.  1.
         22    1    4    4    0    0 -0.61334367319E+00  0.38707964523E+00  0.55558319437E+00  0.91361578306E+00  0.00000000000E+00 0.  1.
<mgrwt>
<rscale>  0 0.77469311E+02</rscale>
<asrwt>0</asrwt>
<pdfrwt beam="1">  1        2 0.64363531E-01 0.77469311E+02</pdfrwt>
<pdfrwt beam="2">  1       -2 0.55173790E-03 0.77469311E+02</pdfrwt>
<totfact> 0.31131882E+05</totfact>
</mgrwt>
</event>
<event>
 7    1  0.3960685E-009  0.9103596E+02  0.7818608E-02  0.1300362E+00
         -2   -1    0    0    0  501 -0.00000000000E+00  0.00000000000E+00  0.97277601034E+01  0.97277604377E+01  0.25500000000E-02 0.  1.
          2   -1    0    0  501    0  0.00000000000E+00 -0.00000000000E+00 -0.21298701047E+03  0.21298701049E+03  0.25500000000E-02 0. -1.
         23    2    1    2    0    0 -0.35527136788E-14  0.35527136788E-14 -0.20325925037E+03  0.22271477092E+03  0.91035961728E+02 0.  0.
    9000005    2    3    3    0    0 -0.28548698468E+02  0.22674253437E+02 -0.36506586556E+02  0.52023233813E+02  0.66735328909E+01 0.  0.
         22    1    3    3    0    0  0.28548698468E+02 -0.22674253437E+02 -0.16675266381E+03  0.17069153711E+03  0.00000000000E+00 0. -1.
         22    1    4    4    0    0 -0.26926647899E+02  0.18981666005E+02 -0.31354143551E+02  0.45479999222E+02  0.00000000000E+00 0. -1.
         22    1    4    4    0    0 -0.16220505683E+01  0.36925874321E+01 -0.51524430052E+01  0.65432345909E+01  0.00000000000E+00 0. -1.
<mgrwt>
<rscale>  0 0.91035962E+02</rscale>
<asrwt>0</asrwt>
<pdfrwt beam="2">  1        2 0.32767229E-01 0.91035962E+02</pdfrwt>
<pdfrwt beam="1">  1       -2 0.14965787E-02 0.91035962E+02</pdfrwt>
<totfact> 0.15891489E+05</totfact>
</mgrwt>
</event>
<event>
 7    1  0.3960685E-009  0.9080858E+02  0.7818608E-02  0.1300905E+00
          2   -1    0    0  501    0  0.00000000000E+00  0.00000000000E+00  0.20292400064E+03  0.20292400066E+03  0.25500000000E-02 0. -1.
         -2   -1    0    0    0  501 -0.00000000000E+00 -0.00000000000E+00 -0.10159220745E+02  0.10159221065E+02  0.25500000000E-02 0.  1.
         23    2    1    2    0    0  0.00000000000E+00  0.00000000000E+00  0.19276477990E+03  0.21308322172E+03  0.90808584457E+02 0.  0.
    9000005    2    3    3    0    0  0.12989776657E+02  0.27726161797E+02  0.21003057704E+02  0.38613844592E+02  0.10603122920E+02 0.  0.
         22    1    3    3    0    0 -0.12989776657E+02 -0.27726161797E+02  0.17176172220E+03  0.17446937713E+03  0.00000000000E+00 0. -1.
         22    1    4    4    0    0  0.31458552168E+01  0.18963297057E+02  0.12351152771E+02  0.22848501376E+02  0.00000000000E+00 0. -1.
         22    1    4    4    0    0  0.98439214399E+01  0.87628647400E+01  0.86519049322E+01  0.15765343216E+02  0.00000000000E+00 0. -1.
<mgrwt>
<rscale>  0 0.90808584E+02</rscale>
<asrwt>0</asrwt>
<pdfrwt beam="1">  1        2 0.31219080E-01 0.90808584E+02</pdfrwt>
<pdfrwt beam="2">  1       -2 0.15629569E-02 0.90808584E+02</pdfrwt>
<totfact> 0.15719674E+05</totfact>
</mgrwt>
</event>
<event>
 7    1  0.3960685E-009  0.9415514E+02  0.7818608E-02  0.1293090E+00
          2   -1    0    0  501    0  0.00000000000E+00  0.00000000000E+00  0.61446444280E+03  0.61446444280E+03  0.25500000000E-02 0. -1.
         -2   -1    0    0    0  501 -0.00000000000E+00 -0.00000000000E+00 -0.36068760640E+01  0.36068769654E+01  0.25500000000E-02 0.  1.
         23    2    1    2    0    0 -0.22204460493E-15  0.00000000000E+00  0.61085756673E+03  0.61807131977E+03  0.94155135200E+02 0.  0.
    9000005    2    3    3    0    0 -0.14105115579E+01 -0.36147731605E+02  0.49894396528E+03  0.50045626022E+03  0.14238674709E+02 0.  0.
         22    1    3    3    0    0  0.14105115579E+01  0.36147731605E+02  0.11191360145E+03  0.11761505955E+03  0.00000000000E+00 0.  1.
         22    1    4    4    0    0  0.16411632202E+01 -0.26013967567E+02  0.41971024388E+03  0.42051885659E+03  0.00000000000E+00 0.  1.
         22    1    4    4    0    0 -0.30516747781E+01 -0.10133764038E+02  0.79233721400E+02  0.79937403632E+02  0.00000000000E+00 0.  1.
<mgrwt>
<rscale>  0 0.94155135E+02</rscale>
<asrwt>0</asrwt>
<pdfrwt beam="1">  1        2 0.94532947E-01 0.94155135E+02</pdfrwt>
<pdfrwt beam="2">  1       -2 0.55490434E-03 0.94155135E+02</pdfrwt>
<totfact> 0.21067401E+05</totfact>
</mgrwt>
</event>
<event>
 7    1  0.3960685E-009  0.9307125E+02  0.7818608E-02  0.1295580E+00
          2   -1    0    0  501    0  0.00000000000E+00  0.00000000000E+00  0.11848940128E+04  0.11848940128E+04  0.25500000000E-02 0.  1.
         -2   -1    0    0    0  501 -0.00000000000E+00 -0.00000000000E+00 -0.18276430225E+01  0.18276448014E+01  0.25500000000E-02 0. -1.
         23    2    1    2    0    0 -0.35527136788E-14  0.17763568394E-14  0.11830663698E+04  0.11867216576E+04  0.93071248667E+02 0.  0.
    9000005    2    3    3    0    0 -0.31540663894E+02 -0.14590406412E+02  0.98597019928E+03  0.98658521948E+03  0.23383757602E+01 0.  0.
         22    1    3    3    0    0  0.31540663894E+02  0.14590406412E+02  0.19709617052E+03  0.20013643814E+03  0.00000000000E+00 0. -1.
         22    1    4    4    0    0 -0.18226729395E+02 -0.95755746327E+01  0.59695767077E+03  0.59731261998E+03  0.00000000000E+00 0. -1.
         22    1    4    4    0    0 -0.13313934498E+02 -0.50148317792E+01  0.38901252851E+03  0.38927259951E+03  0.00000000000E+00 0. -1.
<mgrwt>
<rscale>  0 0.93071249E+02</rscale>
<asrwt>0</asrwt>
<pdfrwt beam="1">  1        2 0.18229208E+00 0.93071249E+02</pdfrwt>
<pdfrwt beam="2">  1       -2 0.28117492E-03 0.93071249E+02</pdfrwt>
<totfact> 0.23587697E+05</totfact>
</mgrwt>
</event>
<event>
 7    1  0.3960685E-009  0.9115807E+02  0.7818608E-02  0.1300071E+00
          2   -1    0    0  501    0  0.00000000000E+00  0.00000000000E+00  0.28165436736E+03  0.28165436737E+03  0.25500000000E-02 0.  1.
         -2   -1    0    0    0  501 -0.00000000000E+00 -0.00000000000E+00 -0.73758786156E+01  0.73758790564E+01  0.25500000000E-02 0. -1.
         23    2    1    2    0    0  0.35527136788E-14  0.00000000000E+00  0.27427848875E+03  0.28903024643E+03  0.91158071296E+02 0.  0.
    9000005    2    3    3    0    0  0.30560218596E+02 -0.42367831698E+01  0.24239518862E+03  0.24466334301E+03  0.12363116643E+02 0.  0.
         22    1    3    3    0    0 -0.30560218596E+02  0.42367831698E+01  0.31883300123E+02  0.44366903419E+02  0.00000000000E+00 0. -1.
         22    1    4    4    0    0  0.31080805111E+02 -0.37154238065E+01  0.21584388442E+03  0.21810181857E+03  0.00000000000E+00 0. -1.
         22    1    4    4    0    0 -0.52058651519E+00 -0.52135936322E+00  0.26551304205E+02  0.26561524445E+02  0.00000000000E+00 0. -1.
<mgrwt>
<rscale>  0 0.91158071E+02</rscale>
<asrwt>0</asrwt>
<pdfrwt beam="1">  1        2 0.43331435E-01 0.91158071E+02</pdfrwt>
<pdfrwt beam="2">  1       -2 0.11347507E-02 0.91158071E+02</pdfrwt>
<totfact> 0.17557902E+05</totfact>
</mgrwt>
</event>
<event>
 7    1  0.3960685E-009  0.9056761E+02  0.7818608E-02  0.1301483E+00
         -2   -1    0    0    0  501 -0.00000000000E+00  0.00000000000E+00  0.15693936328E+03  0.15693936330E+03  0.25500000000E-02 0.  1.
          2   -1    0    0  501    0  0.00000000000E+00 -0.00000000000E+00 -0.13066338239E+02  0.13066338488E+02  0.25500000000E-02 0. -1.
         23    2    1    2    0    0 -0.71054273576E-14  0.00000000000E+00  0.14387302504E+03  0.17000570179E+03  0.90567606274E+02 0.  0.
    9000005    2    3    3    0    0  0.39805094234E+02  0.16168660075E+02  0.92816744483E+02  0.10327778499E+03  0.14334633617E+02 0.  0.
         22    1    3    3    0    0 -0.39805094234E+02 -0.16168660075E+02  0.51056280557E+02  0.66727916795E+02  0.00000000000E+00 0. -1.
         22    1    4    4    0    0  0.24286134149E+02  0.98396928905E+01  0.71571711366E+02  0.76217752105E+02  0.00000000000E+00 0.  1.
         22    1    4    4    0    0  0.15518960084E+02  0.63289671841E+01  0.21245033117E+02  0.27060032887E+02  0.00000000000E+00 0.  1.
<mgrwt>
<rscale>  0 0.90567606E+02</rscale>
<asrwt>0</asrwt>
<pdfrwt beam="2">  1        2 0.20102058E-02 0.90567606E+02</pdfrwt>
<pdfrwt beam="1">  1       -2 0.24144518E-01 0.90567606E+02</pdfrwt>
<totfact> 0.69878620E+04</totfact>
</mgrwt>
</event>
<event>
 7    1  0.3960685E-009  0.9135320E+02  0.7818608E-02  0.1299607E+00
          2   -1    0    0  501    0  0.00000000000E+00  0.00000000000E+00  0.45464824022E+03  0.45464824022E+03  0.25500000000E-02 0. -1.
         -2   -1    0    0    0  501 -0.00000000000E+00 -0.00000000000E+00 -0.45889359493E+01  0.45889366578E+01  0.25500000000E-02 0.  1.
         23    2    1    2    0    0  0.00000000000E+00  0.00000000000E+00  0.45005930427E+03  0.45923717688E+03  0.91353200669E+02 0.  0.
    9000005    2    3    3    0    0  0.27847722369E+02 -0.29237078197E+02  0.32731956123E+03  0.33002670167E+03  0.12215820517E+02 0.  0.
         22    1    3    3    0    0 -0.27847722369E+02  0.29237078197E+02  0.12273974304E+03  0.12921047521E+03  0.00000000000E+00 0.  1.
         22    1    4    4    0    0  0.20272347850E+02 -0.15937905757E+02  0.23940260120E+03  0.24078743818E+03  0.00000000000E+00 0.  1.
         22    1    4    4    0    0  0.75753745195E+01 -0.13299172440E+02  0.87916960035E+02  0.89239263492E+02  0.00000000000E+00 0.  1.
<mgrwt>
<rscale>  0 0.91353201E+02</rscale>
<asrwt>0</asrwt>
<pdfrwt beam="1">  1        2 0.69945876E-01 0.91353201E+02</pdfrwt>
<pdfrwt beam="2">  1       -2 0.70599028E-03 0.91353201E+02</pdfrwt>
<totfact> 0.20770554E+05</totfact>
</mgrwt>
</event>
<event>
 7    1  0.3960685E-009  0.9080667E+02  0.7818608E-02  0.1300910E+00
          2   -1    0    0  501    0  0.00000000000E+00  0.00000000000E+00  0.31360529077E+02  0.31360529181E+02  0.25500000000E-02 0. -1.
         -2   -1    0    0    0  501 -0.00000000000E+00 -0.00000000000E+00 -0.65734315670E+02  0.65734315720E+02  0.25500000000E-02 0.  1.
         23    2    1    2    0    0  0.00000000000E+00  0.00000000000E+00 -0.34373786593E+02  0.97094844901E+02  0.90806672121E+02 0.  0.
    9000005    2    3    3    0    0 -0.41036111155E+02  0.13079000445E+02 -0.31932367876E+02  0.53955730438E+02  0.60433482094E+01 0.  0.
         22    1    3    3    0    0  0.41036111155E+02 -0.13079000445E+02 -0.24414187173E+01  0.43139114463E+02  0.00000000000E+00 0.  1.
         22    1    4    4    0    0 -0.35508140151E+02  0.11114821760E+02 -0.29948726320E+02  0.47762888187E+02  0.00000000000E+00 0. -1.
         22    1    4    4    0    0 -0.55279710036E+01  0.19641786851E+01 -0.19836415554E+01  0.61928422508E+01  0.00000000000E+00 0. -1.
<mgrwt>
<rscale>  0 0.90806672E+02</rscale>
<asrwt>0</asrwt>
<pdfrwt beam="1">  1        2 0.48246968E-02 0.90806672E+02</pdfrwt>
<pdfrwt beam="2">  1       -2 0.10112972E-01 0.90806672E+02</pdfrwt>
<totfact> 0.90597895E+04</totfact>
</mgrwt>
</event>
<event>
 7    1  0.3960685E-009  0.8918966E+02  0.7818608E-02  0.1304826E+00
         -2   -1    0    0    0  501 -0.00000000000E+00  0.00000000000E+00  0.16136951704E+02  0.16136951905E+02  0.25500000000E-02 0.  1.
          2   -1    0    0  501    0  0.00000000000E+00 -0.00000000000E+00 -0.12323880815E+03  0.12323880818E+03  0.25500000000E-02 0. -1.
         23    2    1    2    0    0  0.00000000000E+00 -0.88817841970E-15 -0.10710185645E+03  0.13937576008E+03  0.89189656599E+02 0.  0.
    9000005    2    3    3    0    0  0.32744843138E+02  0.70701543160E+01 -0.84220690762E+01  0.35164857247E+02  0.65896967689E+01 0.  0.
         22    1    3    3    0    0 -0.32744843138E+02 -0.70701543160E+01 -0.98679787372E+02  0.10421090284E+03  0.00000000000E+00 0. -1.
         22    1    4    4    0    0  0.43730040405E+01  0.32071886990E+01 -0.44724027898E+00  0.54414380045E+01  0.00000000000E+00 0.  1.
         22    1    4    4    0    0  0.28371839098E+02  0.38629656169E+01 -0.79748287972E+01  0.29723419243E+02  0.00000000000E+00 0.  1.
<mgrwt>
<rscale>  0 0.89189657E+02</rscale>
<asrwt>0</asrwt>
<pdfrwt beam="2">  1        2 0.18959816E-01 0.89189657E+02</pdfrwt>
<pdfrwt beam="1">  1       -2 0.24826081E-02 0.89189657E+02</pdfrwt>
<totfact> 0.13908870E+05</totfact>
</mgrwt>
</event>
<event>
 7    1  0.3960685E-009  0.9409371E+02  0.7818608E-02  0.1293230E+00
         -2   -1    0    0    0  501 -0.00000000000E+00  0.00000000000E+00  0.96196457175E+01  0.96196460554E+01  0.25500000000E-02 0. -1.
          2   -1    0    0  501    0  0.00000000000E+00 -0.00000000000E+00 -0.23009231725E+03  0.23009231726E+03  0.25500000000E-02 0.  1.
         23    2    1    2    0    0  0.00000000000E+00 -0.35527136788E-14 -0.22047267153E+03  0.23971196332E+03  0.94093711085E+02 0.  0.
    9000005    2    3    3    0    0  0.32658413168E+02  0.19095347388E+02 -0.18053252977E+03  0.18469906331E+03  0.95155369426E+01 0.  0.
         22    1    3    3    0    0 -0.32658413168E+02 -0.19095347388E+02 -0.39940141765E+02  0.55012900003E+02  0.00000000000E+00 0. -1.
         22    1    4    4    0    0  0.20038987401E+02  0.71967578401E+01 -0.11199111714E+03  0.11399721338E+03  0.00000000000E+00 0.  1.
         22    1    4    4    0    0  0.12619425768E+02  0.11898589548E+02 -0.68541412624E+02  0.70701849936E+02  0.00000000000E+00 0.  1.
<mgrwt>
<rscale>  0 0.94093711E+02</rscale>
<asrwt>0</asrwt>
<pdfrwt beam="2">  1        2 0.35398814E-01 0.94093711E+02</pdfrwt>
<pdfrwt beam="1">  1       -2 0.14799457E-02 0.94093711E+02</pdfrwt>
<totfact> 0.14957570E+05</totfact>
</mgrwt>
</event>
<event>
 7    1  0.3960685E-009  0.9449683E+02  0.7818608E-02  0.1292313E+00
          2   -1    0    0  501    0  0.00000000000E+00  0.00000000000E+00  0.21005743633E+03  0.21005743634E+03  0.25500000000E-02 0. -1.
         -2   -1    0    0    0  501 -0.00000000000E+00 -0.00000000000E+00 -0.10627630710E+02  0.10627631016E+02  0.25500000000E-02 0.  1.
         23    2    1    2    0    0  0.00000000000E+00  0.27755575616E-16  0.19942980562E+03  0.22068506736E+03  0.94496833737E+02 0.  0.
    9000005    2    3    3    0    0 -0.45632115677E+02  0.21679803182E+00  0.75839508285E+02  0.88939484596E+02  0.87329216673E+01 0.  0.
         22    1    3    3    0    0  0.45632115677E+02 -0.21679803182E+00  0.12359029733E+03  0.13174558276E+03  0.00000000000E+00 0. -1.
         22    1    4    4    0    0 -0.29885640257E+02 -0.53797953109E+00  0.41393471942E+02  0.51057422918E+02  0.00000000000E+00 0.  1.
         22    1    4    4    0    0 -0.15746475420E+02  0.75477756291E+00  0.34446036343E+02  0.37882061679E+02  0.00000000000E+00 0.  1.
<mgrwt>
<rscale>  0 0.94496834E+02</rscale>
<asrwt>0</asrwt>
<pdfrwt beam="1">  1        2 0.32316529E-01 0.94496834E+02</pdfrwt>
<pdfrwt beam="2">  1       -2 0.16350201E-02 0.94496834E+02</pdfrwt>
<totfact> 0.14298118E+05</totfact>
</mgrwt>
</event>
<event>
 7    1  0.3960685E-009  0.9148208E+02  0.7818608E-02  0.1299302E+00
         -2   -1    0    0    0  501 -0.00000000000E+00  0.00000000000E+00  0.18993595513E+02  0.18993595684E+02  0.25500000000E-02 0. -1.
          2   -1    0    0  501    0  0.00000000000E+00 -0.00000000000E+00 -0.11015515913E+03  0.11015515916E+03  0.25500000000E-02 0.  1.
         23    2    1    2    0    0  0.00000000000E+00  0.00000000000E+00 -0.91161563614E+02  0.12914875484E+03  0.91482075819E+02 0.  0.
    9000005    2    3    3    0    0  0.25394279373E+02  0.13760631520E+02  0.28623469443E+01  0.30788599485E+02  0.10272313446E+02 0.  0.
         22    1    3    3    0    0 -0.25394279373E+02 -0.13760631520E+02 -0.94023910558E+02  0.98360155355E+02  0.00000000000E+00 0.  1.
         22    1    4    4    0    0  0.12943430718E+02  0.93968377132E+01  0.62413085437E+01  0.17169359048E+02  0.00000000000E+00 0. -1.
         22    1    4    4    0    0  0.12450848655E+02  0.43637938064E+01 -0.33789615994E+01  0.13619240438E+02  0.00000000000E+00 0. -1.
<mgrwt>
<rscale>  0 0.91482076E+02</rscale>
<asrwt>0</asrwt>
<pdfrwt beam="2">  1        2 0.16946947E-01 0.91482076E+02</pdfrwt>
<pdfrwt beam="1">  1       -2 0.29220917E-02 0.91482076E+02</pdfrwt>
<totfact> 0.12523913E+05</totfact>
</mgrwt>
</event>
<event>
 7    1  0.3960685E-009  0.9114494E+02  0.7818608E-02  0.1300103E+00
         -2   -1    0    0    0  501 -0.00000000000E+00  0.00000000000E+00  0.30487821004E+01  0.30487831668E+01  0.25500000000E-02 0.  1.
          2   -1    0    0  501    0  0.00000000000E+00 -0.00000000000E+00 -0.68120634381E+03  0.68120634381E+03  0.25500000000E-02 0. -1.
         23    2    1    2    0    0 -0.71054273576E-14  0.44408920985E-15 -0.67815756170E+03  0.68425512698E+03  0.91144941147E+02 0.  0.
    9000005    2    3    3    0    0  0.38845800233E+02 -0.34814735032E+01 -0.51590858071E+03  0.51738437254E+03  0.19515228981E+01 0.  0.
         22    1    3    3    0    0 -0.38845800233E+02  0.34814735032E+01 -0.16224898099E+03  0.16687075444E+03  0.00000000000E+00 0.  1.
         22    1    4    4    0    0  0.24038124075E+01  0.18533380214E+00 -0.35276693724E+02  0.35358984470E+02  0.00000000000E+00 0.  1.
         22    1    4    4    0    0  0.36441987826E+02 -0.36668073054E+01 -0.48063188699E+03  0.48202538807E+03  0.00000000000E+00 0.  1.
<mgrwt>
<rscale>  0 0.91144941E+02</rscale>
<asrwt>0</asrwt>
<pdfrwt beam="2">  1        2 0.10480085E+00 0.91144941E+02</pdfrwt>
<pdfrwt beam="1">  1       -2 0.46904402E-03 0.91144941E+02</pdfrwt>
<totfact> 0.23583009E+05</totfact>
</mgrwt>
</event>
<event>
 7    1  0.3960685E-009  0.8320034E+02  0.7818608E-02  0.1320207E+00
          2   -1    0    0  501    0  0.00000000000E+00  0.00000000000E+00  0.14127010443E+03  0.14127010445E+03  0.25500000000E-02 0. -1.
         -2   -1    0    0    0  501 -0.00000000000E+00 -0.00000000000E+00 -0.12250108412E+02  0.12250108678E+02  0.25500000000E-02 0.  1.
         23    2    1    2    0    0  0.00000000000E+00  0.00000000000E+00  0.12901999602E+03  0.15352021313E+03  0.83200339346E+02 0.  0.
    9000005    2    3    3    0    0  0.17377136956E+02  0.10009035785E+02  0.13131876130E+03  0.13333531759E+03  0.11469270342E+02 0.  0.
         22    1    3    3    0    0 -0.17377136956E+02 -0.10009035785E+02 -0.22987652801E+01  0.20184895539E+02  0.00000000000E+00 0.  1.
         22    1    4    4    0    0  0.26796572170E+01  0.69440025550E+01  0.29963915634E+02  0.30874519824E+02  0.00000000000E+00 0.  1.
         22    1    4    4    0    0  0.14697479739E+02  0.30650332300E+01  0.10135484567E+03  0.10246079777E+03  0.00000000000E+00 0.  1.
<mgrwt>
<rscale>  0 0.83200339E+02</rscale>
<asrwt>0</asrwt>
<pdfrwt beam="1">  1        2 0.21733862E-01 0.83200339E+02</pdfrwt>
<pdfrwt beam="2">  1       -2 0.18846321E-02 0.83200339E+02</pdfrwt>
<totfact> 0.17544646E+05</totfact>
</mgrwt>
</event>
<event>
 7    1  0.3960685E-009  0.9258678E+02  0.7818608E-02  0.1296706E+00
         -2   -1    0    0    0  501 -0.00000000000E+00  0.00000000000E+00  0.67912789591E+01  0.67912794378E+01  0.25500000000E-02 0.  1.
          2   -1    0    0  501    0  0.00000000000E+00 -0.00000000000E+00 -0.31556319822E+03  0.31556319823E+03  0.25500000000E-02 0. -1.
         23    2    1    2    0    0  0.00000000000E+00  0.00000000000E+00 -0.30877191926E+03  0.32235447767E+03  0.92586776316E+02 0.  0.
    9000005    2    3    3    0    0  0.41677419673E+02  0.17243006192E+02 -0.16256638019E+03  0.16934994104E+03  0.14739266931E+02 0.  0.
         22    1    3    3    0    0 -0.41677419673E+02 -0.17243006192E+02 -0.14620553907E+03  0.15300453663E+03  0.00000000000E+00 0. -1.
         22    1    4    4    0    0  0.18036353503E+02  0.91432393431E+01 -0.99074082667E+02  0.10111667879E+03  0.00000000000E+00 0.  1.
         22    1    4    4    0    0  0.23641066170E+02  0.80997668488E+01 -0.63492297519E+02  0.68233262247E+02  0.00000000000E+00 0.  1.
<mgrwt>
<rscale>  0 0.92586776E+02</rscale>
<asrwt>0</asrwt>
<pdfrwt beam="2">  1        2 0.48548173E-01 0.92586776E+02</pdfrwt>
<pdfrwt beam="1">  1       -2 0.10448124E-02 0.92586776E+02</pdfrwt>
<totfact> 0.17572194E+05</totfact>
</mgrwt>
</event>
<event>
 7    1  0.3960685E-009  0.9057143E+02  0.7818608E-02  0.1301474E+00
         -2   -1    0    0    0  501 -0.00000000000E+00  0.00000000000E+00  0.21957885780E+03  0.21957885782E+03  0.25500000000E-02 0. -1.
          2   -1    0    0  501    0  0.00000000000E+00 -0.00000000000E+00 -0.93396793444E+01  0.93396796926E+01  0.25500000000E-02 0.  1.
         23    2    1    2    0    0  0.00000000000E+00  0.11102230246E-15  0.21023917846E+03  0.22891853751E+03  0.90571434001E+02 0.  0.
    9000005    2    3    3    0    0  0.33580783715E+02  0.94768465574E+00  0.34571707896E+02  0.50067685248E+02  0.13527859333E+02 0.  0.
         22    1    3    3    0    0 -0.33580783715E+02 -0.94768465574E+00  0.17566747056E+03  0.17885085226E+03  0.00000000000E+00 0. -1.
         22    1    4    4    0    0  0.13677238344E+01  0.28265755048E+01  0.56887692206E+00  0.31912095707E+01  0.00000000000E+00 0. -1.
         22    1    4    4    0    0  0.32213059880E+02 -0.18788908490E+01  0.34002830974E+02  0.46876475677E+02  0.00000000000E+00 0. -1.
<mgrwt>
<rscale>  0 0.90571434E+02</rscale>
<asrwt>0</asrwt>
<pdfrwt beam="2">  1        2 0.14368738E-02 0.90571434E+02</pdfrwt>
<pdfrwt beam="1">  1       -2 0.33781362E-01 0.90571434E+02</pdfrwt>
<totfact> 0.60804808E+04</totfact>
</mgrwt>
</event>
<event>
 7    1  0.3960685E-009  0.9166415E+02  0.7818608E-02  0.1298871E+00
          2   -1    0    0  501    0  0.00000000000E+00  0.00000000000E+00  0.74253057071E+01  0.74253061449E+01  0.25500000000E-02 0. -1.
         -2   -1    0    0    0  501 -0.00000000000E+00 -0.00000000000E+00 -0.28289461698E+03  0.28289461699E+03  0.25500000000E-02 0.  1.
         23    2    1    2    0    0  0.00000000000E+00  0.00000000000E+00 -0.27546931127E+03  0.29031992314E+03  0.91664149572E+02 0.  0.
    9000005    2    3    3    0    0 -0.13447582407E+02  0.43683810529E+02 -0.13391728460E+03  0.14157151464E+03  0.44206185092E+01 0.  0.
         22    1    3    3    0    0  0.13447582407E+02 -0.43683810529E+02 -0.14155202668E+03  0.14874840850E+03  0.00000000000E+00 0. -1.
         22    1    4    4    0    0 -0.12260862315E+02  0.40221872992E+02 -0.11895705102E+03  0.12617015415E+03  0.00000000000E+00 0.  1.
         22    1    4    4    0    0 -0.11867200922E+01  0.34619375372E+01 -0.14960233578E+02  0.15401360485E+02  0.00000000000E+00 0.  1.
<mgrwt>
<rscale>  0 0.91664150E+02</rscale>
<asrwt>0</asrwt>
<pdfrwt beam="1">  1        2 0.11423550E-02 0.91664150E+02</pdfrwt>
<pdfrwt beam="2">  1       -2 0.43522241E-01 0.91664150E+02</pdfrwt>
<totfact> 0.51962082E+04</totfact>
</mgrwt>
</event>
<event>
 7    1  0.3960685E-009  0.9076468E+02  0.7818608E-02  0.1301010E+00
         -2   -1    0    0    0  501 -0.00000000000E+00  0.00000000000E+00  0.52247149531E+01  0.52247155754E+01  0.25500000000E-02 0.  1.
          2   -1    0    0  501    0  0.00000000000E+00 -0.00000000000E+00 -0.39419500785E+03  0.39419500786E+03  0.25500000000E-02 0. -1.
         23    2    1    2    0    0  0.00000000000E+00  0.00000000000E+00 -0.38897029290E+03  0.39941972343E+03  0.90764677665E+02 0.  0.
    9000005    2    3    3    0    0 -0.38220313911E+02 -0.16052478193E+02 -0.27210933767E+03  0.27542392791E+03  0.98170242601E+01 0.  0.
         22    1    3    3    0    0  0.38220313911E+02  0.16052478193E+02 -0.11686095523E+03  0.12399579552E+03  0.00000000000E+00 0.  1.
         22    1    4    4    0    0 -0.18222123084E+02 -0.47780562213E+01 -0.96619129990E+02  0.98438467435E+02  0.00000000000E+00 0.  1.
         22    1    4    4    0    0 -0.19998190827E+02 -0.11274421971E+02 -0.17549020768E+03  0.17698546047E+03  0.00000000000E+00 0.  1.
<mgrwt>
<rscale>  0 0.90764678E+02</rscale>
<asrwt>0</asrwt>
<pdfrwt beam="2">  1        2 0.60645363E-01 0.90764678E+02</pdfrwt>
<pdfrwt beam="1">  1       -2 0.80380266E-03 0.90764678E+02</pdfrwt>
<totfact> 0.20098479E+05</totfact>
</mgrwt>
</event>
<event>
 6    1  0.3960685E-009  0.1340868E+03  0.7818608E-02  0.1221515E+00
         -2   -1    0    0    0  501 -0.00000000000E+00  0.00000000000E+00  0.11355729808E+03  0.11355729811E+03  0.25500000000E-02 0. -1.
          2   -1    0    0  501    0  0.00000000000E+00 -0.00000000000E+00 -0.39581923293E+02  0.39581923375E+02  0.25500000000E-02 0.  1.
    9000005    2    1    2    0    0  0.52229717764E+02  0.17199379994E+02 -0.58466916305E+01  0.56209740020E+02  0.10079135885E+02 0.  0.
         22    1    1    2    0    0 -0.52229717764E+02 -0.17199379994E+02  0.79822066421E+02  0.96929481468E+02  0.00000000000E+00 0. -1.
         22    1    3    3    0    0  0.35320826043E+02  0.74899910416E+01 -0.10092373310E+01  0.36120344380E+02  0.00000000000E+00 0. -1.
         22    1    3    3    0    0  0.16908891721E+02  0.97093889524E+01 -0.48374542996E+01  0.20089395639E+02  0.00000000000E+00 0. -1.
<mgrwt>
<rscale>  0 0.13408678E+03</rscale>
<asrwt>0</asrwt>
<pdfrwt beam="2">  1        2 0.60895267E-02 0.13408678E+03</pdfrwt>
<pdfrwt beam="1">  1       -2 0.17470353E-01 0.13408678E+03</pdfrwt>
<totfact> 0.29408423E+04</totfact>
</mgrwt>
</event>
<event>
 7    1  0.3960685E-009  0.8981670E+02  0.7818608E-02  0.1303296E+00
          2   -1    0    0  501    0  0.00000000000E+00  0.00000000000E+00  0.81609493641E+01  0.81609497625E+01  0.25500000000E-02 0. -1.
         -2   -1    0    0    0  501 -0.00000000000E+00 -0.00000000000E+00 -0.24712321012E+03  0.24712321013E+03  0.25500000000E-02 0.  1.
         23    2    1    2    0    0  0.00000000000E+00  0.00000000000E+00 -0.23896226075E+03  0.25528415989E+03  0.89816703502E+02 0.  0.
    9000005    2    3    3    0    0  0.36940074449E+02  0.21249612454E+02 -0.15760666427E+03  0.16344273020E+03  0.75861915147E+01 0.  0.
         22    1    3    3    0    0 -0.36940074449E+02 -0.21249612454E+02 -0.81355596484E+02  0.91841429699E+02  0.00000000000E+00 0.  1.
         22    1    4    4    0    0  0.11024062315E+02  0.33058569590E+01 -0.34729193622E+02  0.36586548481E+02  0.00000000000E+00 0. -1.
         22    1    4    4    0    0  0.25916012134E+02  0.17943755495E+02 -0.12287747065E+03  0.12685618171E+03  0.00000000000E+00 0. -1.
<mgrwt>
<rscale>  0 0.89816704E+02</rscale>
<asrwt>0</asrwt>
<pdfrwt beam="1">  1        2 0.12555309E-02 0.89816704E+02</pdfrwt>
<pdfrwt beam="2">  1       -2 0.38018950E-01 0.89816704E+02</pdfrwt>
<totfact> 0.58720648E+04</totfact>
</mgrwt>
</event>
<event>
 7    1  0.3960685E-009  0.9136088E+02  0.7818608E-02  0.1299589E+00
          2   -1    0    0  501    0  0.00000000000E+00  0.00000000000E+00  0.41969647648E+03  0.41969647649E+03  0.25500000000E-02 0. -1.
         -2   -1    0    0    0  501 -0.00000000000E+00 -0.00000000000E+00 -0.49719324226E+01  0.49719330766E+01  0.25500000000E-02 0.  1.
         23    2    1    2    0    0  0.00000000000E+00  0.00000000000E+00  0.41472454406E+03  0.42466840957E+03  0.91360881335E+02 0.  0.
    9000005    2    3    3    0    0 -0.35696112001E+02 -0.14761603915E+02  0.31495671137E+03  0.31768365457E+03  0.15266203905E+02 0.  0.
         22    1    3    3    0    0  0.35696112001E+02  0.14761603915E+02  0.99767832686E+02  0.10698475499E+03  0.00000000000E+00 0.  1.
         22    1    4    4    0    0 -0.22431914420E+02 -0.10480573145E+01  0.17050860924E+03  0.17198103103E+03  0.00000000000E+00 0.  1.
         22    1    4    4    0    0 -0.13264197580E+02 -0.13713546600E+02  0.14444810214E+03  0.14570262355E+03  0.00000000000E+00 0.  1.
<mgrwt>
<rscale>  0 0.91360881E+02</rscale>
<asrwt>0</asrwt>
<pdfrwt beam="1">  1        2 0.64568678E-01 0.91360881E+02</pdfrwt>
<pdfrwt beam="2">  1       -2 0.76491285E-03 0.91360881E+02</pdfrwt>
<totfact> 0.20197525E+05</totfact>
</mgrwt>
</event>
<event>
 7    1  0.3960685E-009  0.8929597E+02  0.7818608E-02  0.1304566E+00
          2   -1    0    0  501    0  0.00000000000E+00  0.00000000000E+00  0.59417282311E+03  0.59417282312E+03  0.25500000000E-02 0. -1.
         -2   -1    0    0    0  501 -0.00000000000E+00 -0.00000000000E+00 -0.33549873768E+01  0.33549883459E+01  0.25500000000E-02 0.  1.
         23    2    1    2    0    0  0.00000000000E+00  0.00000000000E+00  0.59081783573E+03  0.59752781146E+03  0.89295971070E+02 0.  0.
    9000005    2    3    3    0    0 -0.23812939366E+02 -0.36287106231E+02  0.34733038395E+03  0.35020221769E+03  0.10926458637E+02 0.  0.
         22    1    3    3    0    0  0.23812939366E+02  0.36287106231E+02  0.24348745178E+03  0.24732559377E+03  0.00000000000E+00 0.  1.
         22    1    4    4    0    0 -0.10525948576E+01 -0.38188760928E+01  0.62466454089E+02  0.62591929648E+02  0.00000000000E+00 0. -1.
         22    1    4    4    0    0 -0.22760344508E+02 -0.32468230138E+02  0.28486392986E+03  0.28761028804E+03  0.00000000000E+00 0. -1.
<mgrwt>
<rscale>  0 0.89295971E+02</rscale>
<asrwt>0</asrwt>
<pdfrwt beam="1">  1        2 0.91411183E-01 0.89295971E+02</pdfrwt>
<pdfrwt beam="2">  1       -2 0.51615210E-03 0.89295971E+02</pdfrwt>
<totfact> 0.24006136E+05</totfact>
</mgrwt>
</event>
<event>
 7    1  0.3960685E-009  0.8987249E+02  0.7818608E-02  0.1303161E+00
         -2   -1    0    0    0  501 -0.00000000000E+00  0.00000000000E+00  0.66672925510E+02  0.66672925559E+02  0.25500000000E-02 0.  1.
          2   -1    0    0  501    0  0.00000000000E+00 -0.00000000000E+00 -0.30286150039E+02  0.30286150146E+02  0.25500000000E-02 0. -1.
         23    2    1    2    0    0  0.00000000000E+00 -0.17763568394E-14  0.36386775472E+02  0.96959075705E+02  0.89872492634E+02 0.  0.
    9000005    2    3    3    0    0 -0.27361811864E+02  0.13973939685E+02 -0.15440540334E+02  0.36709508052E+02  0.12854491698E+02 0.  0.
         22    1    3    3    0    0  0.27361811864E+02 -0.13973939685E+02  0.51827315805E+02  0.60249567653E+02  0.00000000000E+00 0.  1.
         22    1    4    4    0    0 -0.16925465461E+02  0.82551554653E+01 -0.22841176909E+01  0.18969348077E+02  0.00000000000E+00 0. -1.
         22    1    4    4    0    0 -0.10436346403E+02  0.57187842195E+01 -0.13156422643E+02  0.17740159975E+02  0.00000000000E+00 0. -1.
<mgrwt>
<rscale>  0 0.89872493E+02</rscale>
<asrwt>0</asrwt>
<pdfrwt beam="2">  1        2 0.46594078E-02 0.89872493E+02</pdfrwt>
<pdfrwt beam="1">  1       -2 0.10257373E-01 0.89872493E+02</pdfrwt>
<totfact> 0.92551829E+04</totfact>
</mgrwt>
</event>
<event>
 7    1  0.3960685E-009  0.9077891E+02  0.7818608E-02  0.1300976E+00
          2   -1    0    0  501    0  0.00000000000E+00  0.00000000000E+00  0.20708648668E+03  0.20708648670E+03  0.25500000000E-02 0. -1.
         -2   -1    0    0    0  501 -0.00000000000E+00 -0.00000000000E+00 -0.99485138624E+01  0.99485141892E+01  0.25500000000E-02 0.  1.
         23    2    1    2    0    0 -0.17763568394E-14  0.00000000000E+00  0.19713797282E+03  0.21703500089E+03  0.90778914306E+02 0.  0.
    9000005    2    3    3    0    0 -0.11955961586E+02 -0.11510649140E+02  0.19910902524E+03  0.20032197876E+03  0.14458602268E+02 0.  0.
         22    1    3    3    0    0  0.11955961586E+02  0.11510649140E+02 -0.19710524212E+01  0.16713022130E+02  0.00000000000E+00 0.  1.
         22    1    4    4    0    0 -0.10389849516E+02 -0.19570247510E+01  0.14245054425E+03  0.14284234833E+03  0.00000000000E+00 0. -1.
         22    1    4    4    0    0 -0.15661120707E+01 -0.95536243890E+01  0.56658480990E+02  0.57479630428E+02  0.00000000000E+00 0. -1.
<mgrwt>
<rscale>  0 0.90778914E+02</rscale>
<asrwt>0</asrwt>
<pdfrwt beam="1">  1        2 0.31859458E-01 0.90778914E+02</pdfrwt>
<pdfrwt beam="2">  1       -2 0.15305407E-02 0.90778914E+02</pdfrwt>
<totfact> 0.15849763E+05</totfact>
</mgrwt>
</event>
<event>
 7    1  0.3960685E-009  0.8452126E+02  0.7818608E-02  0.1316689E+00
         -2   -1    0    0    0  501 -0.00000000000E+00  0.00000000000E+00  0.52821731602E+01  0.52821737758E+01  0.25500000000E-02 0.  1.
          2   -1    0    0  501    0  0.00000000000E+00 -0.00000000000E+00 -0.33811100374E+03  0.33811100375E+03  0.25500000000E-02 0. -1.
         23    2    1    2    0    0  0.00000000000E+00  0.00000000000E+00 -0.33282883058E+03  0.34339317753E+03  0.84521263040E+02 0.  0.
    9000005    2    3    3    0    0 -0.67852530727E+01  0.28178016168E+02 -0.29058891263E+03  0.29216573446E+03  0.88803150916E+01 0.  0.
         22    1    3    3    0    0  0.67852530727E+01 -0.28178016168E+02 -0.42239917953E+02  0.51227443066E+02  0.00000000000E+00 0.  1.
         22    1    4    4    0    0 -0.21213682156E+01  0.13008876853E+02 -0.91382615015E+02  0.92328291477E+02  0.00000000000E+00 0. -1.
         22    1    4    4    0    0 -0.46638848571E+01  0.15169139315E+02 -0.19920629761E+03  0.19983744298E+03  0.00000000000E+00 0. -1.
<mgrwt>
<rscale>  0 0.84521263E+02</rscale>
<asrwt>0</asrwt>
<pdfrwt beam="2">  1        2 0.52017061E-01 0.84521263E+02</pdfrwt>
<pdfrwt beam="1">  1       -2 0.81264234E-03 0.84521263E+02</pdfrwt>
<totfact> 0.22957853E+05</totfact>
</mgrwt>
</event>
<event>
 7    1  0.3960685E-009  0.9503111E+02  0.7818608E-02  0.1291106E+00
         -2   -1    0    0    0  501 -0.00000000000E+00  0.00000000000E+00  0.17739892321E+02  0.17739892504E+02  0.25500000000E-02 0.  1.
          2   -1    0    0  501    0  0.00000000000E+00 -0.00000000000E+00 -0.12726840053E+03  0.12726840056E+03  0.25500000000E-02 0. -1.
         23    2    1    2    0    0  0.00000000000E+00 -0.35527136788E-14 -0.10952850821E+03  0.14500829306E+03  0.95031105147E+02 0.  0.
    9000005    2    3    3    0    0 -0.31516840844E+02  0.23435738183E+02 -0.93828631878E+02  0.10271135230E+03  0.14257091212E+02 0.  0.
         22    1    3    3    0    0  0.31516840844E+02 -0.23435738183E+02 -0.15699876331E+02  0.42296940761E+02  0.00000000000E+00 0.  1.
         22    1    4    4    0    0 -0.19710271505E+02  0.22491462609E+02 -0.65344885594E+02  0.71863166966E+02  0.00000000000E+00 0. -1.
         22    1    4    4    0    0 -0.11806569339E+02  0.94427557421E+00 -0.28483746284E+02  0.30848185332E+02  0.00000000000E+00 0. -1.
<mgrwt>
<rscale>  0 0.95031105E+02</rscale>
<asrwt>0</asrwt>
<pdfrwt beam="2">  1        2 0.19579753E-01 0.95031105E+02</pdfrwt>
<pdfrwt beam="1">  1       -2 0.27292143E-02 0.95031105E+02</pdfrwt>
<totfact> 0.11817110E+05</totfact>
</mgrwt>
</event>
<event>
 7    1  0.3960685E-009  0.8963324E+02  0.7818608E-02  0.1303742E+00
         -2   -1    0    0    0  501 -0.00000000000E+00  0.00000000000E+00  0.20757160008E+01  0.20757175671E+01  0.25500000000E-02 0.  1.
          2   -1    0    0  501    0  0.00000000000E+00 -0.00000000000E+00 -0.96763181622E+03  0.96763181623E+03  0.25500000000E-02 0. -1.
         23    2    1    2    0    0 -0.88817841970E-15  0.71054273576E-14 -0.96555610022E+03  0.96970753379E+03  0.89633243941E+02 0.  0.
    9000005    2    3    3    0    0  0.72680905004E+01 -0.34631130144E+02 -0.77655519610E+03  0.77742263560E+03  0.97898640054E+01 0.  0.
         22    1    3    3    0    0 -0.72680905004E+01  0.34631130144E+02 -0.18900090412E+03  0.19228489819E+03  0.00000000000E+00 0.  1.
         22    1    4    4    0    0  0.37900348879E+01 -0.30802145899E+02 -0.70371761320E+03  0.70440160114E+03  0.00000000000E+00 0. -1.
         22    1    4    4    0    0  0.34780556125E+01 -0.38289842451E+01 -0.72837582901E+02  0.73021034463E+02  0.00000000000E+00 0. -1.
<mgrwt>
<rscale>  0 0.89633244E+02</rscale>
<asrwt>0</asrwt>
<pdfrwt beam="2">  1        2 0.14886607E+00 0.89633244E+02</pdfrwt>
<pdfrwt beam="1">  1       -2 0.31934182E-03 0.89633244E+02</pdfrwt>
<totfact> 0.26102798E+05</totfact>
</mgrwt>
</event>
<event>
 7    1  0.3960685E-009  0.9308586E+02  0.7818608E-02  0.1295546E+00
          2   -1    0    0  501    0  0.00000000000E+00  0.00000000000E+00  0.53355060728E+02  0.53355060789E+02  0.25500000000E-02 0. -1.
         -2   -1    0    0    0  501 -0.00000000000E+00 -0.00000000000E+00 -0.40600543586E+02  0.40600543666E+02  0.25500000000E-02 0.  1.
         23    2    1    2    0    0  0.00000000000E+00 -0.35527136788E-14  0.12754517142E+02  0.93955604455E+02  0.93085863057E+02 0.  0.
    9000005    2    3    3    0    0  0.32580433717E+02  0.31453570154E+02  0.67601600069E+01  0.48274710702E+02  0.15294972816E+02 0.  0.
         22    1    3    3    0    0 -0.32580433717E+02 -0.31453570154E+02  0.59943571352E+01  0.45680893753E+02  0.00000000000E+00 0. -1.
         22    1    4    4    0    0  0.86103924429E+00 -0.16933894647E+01 -0.71942736291E-02  0.18997389866E+01  0.00000000000E+00 0. -1.
         22    1    4    4    0    0  0.31719394473E+02  0.33146959618E+02  0.67673542806E+01  0.46374971716E+02  0.00000000000E+00 0. -1.
<mgrwt>
<rscale>  0 0.93085863E+02</rscale>
<asrwt>0</asrwt>
<pdfrwt beam="1">  1        2 0.82084709E-02 0.93085863E+02</pdfrwt>
<pdfrwt beam="2">  1       -2 0.62462375E-02 0.93085863E+02</pdfrwt>
<totfact> 0.96920768E+04</totfact>
</mgrwt>
</event>
<event>
 7    1  0.3960685E-009  0.1222704E+03  0.7818608E-02  0.1239398E+00
          2   -1    0    0  501    0  0.00000000000E+00  0.00000000000E+00  0.75647785224E+02  0.75647785267E+02  0.25500000000E-02 0. -1.
         -2   -1    0    0    0  501 -0.00000000000E+00 -0.00000000000E+00 -0.49406777694E+02  0.49406777760E+02  0.25500000000E-02 0.  1.
         23    2    1    2    0    0  0.00000000000E+00  0.00000000000E+00  0.26241007529E+02  0.12505456303E+03  0.12227041039E+03 0.  0.
    9000005    2    3    3    0    0  0.22895450833E+02  0.20305409514E+02  0.66265513016E+02  0.74671308232E+02  0.15753562562E+02 0.  0.
         22    1    3    3    0    0 -0.22895450833E+02 -0.20305409514E+02 -0.40024505486E+02  0.50383254795E+02  0.00000000000E+00 0.  1.
         22    1    4    4    0    0  0.12407897147E+02  0.16524099979E+02  0.55296607499E+02  0.59031488145E+02  0.00000000000E+00 0. -1.
         22    1    4    4    0    0  0.10487553685E+02  0.37813095351E+01  0.10968905517E+02  0.15639820087E+02  0.00000000000E+00 0. -1.
<mgrwt>
<rscale>  0 0.12227041E+03</rscale>
<asrwt>0</asrwt>
<pdfrwt beam="1">  1        2 0.11638121E-01 0.12227041E+03</pdfrwt>
<pdfrwt beam="2">  1       -2 0.76010427E-02 0.12227041E+03</pdfrwt>
<totfact> 0.48809953E+04</totfact>
</mgrwt>
</event>
<event>
 7    1  0.3960685E-009  0.8740839E+02  0.7818608E-02  0.1309252E+00
          2   -1    0    0  501    0  0.00000000000E+00  0.00000000000E+00  0.16275823568E+03  0.16275823570E+03  0.25500000000E-02 0. -1.
         -2   -1    0    0    0  501 -0.00000000000E+00 -0.00000000000E+00 -0.11735546375E+02  0.11735546652E+02  0.25500000000E-02 0.  1.
         23    2    1    2    0    0 -0.22204460493E-15  0.00000000000E+00  0.15102268931E+03  0.17449378236E+03  0.87408394303E+02 0.  0.
    9000005    2    3    3    0    0  0.10608457148E+01 -0.43479610878E+02  0.72242040941E+02  0.84504935753E+02  0.55289900942E+01 0.  0.
         22    1    3    3    0    0 -0.10608457148E+01  0.43479610878E+02  0.78780648367E+02  0.89988846602E+02  0.00000000000E+00 0. -1.
         22    1    4    4    0    0 -0.20842917625E+01 -0.19816119672E+02  0.34791121349E+02  0.40092954440E+02  0.00000000000E+00 0. -1.
         22    1    4    4    0    0  0.31451374774E+01 -0.23663491206E+02  0.37450919592E+02  0.44411981312E+02  0.00000000000E+00 0. -1.
<mgrwt>
<rscale>  0 0.87408394E+02</rscale>
<asrwt>0</asrwt>
<pdfrwt beam="1">  1        2 0.25039726E-01 0.87408394E+02</pdfrwt>
<pdfrwt beam="2">  1       -2 0.18054689E-02 0.87408394E+02</pdfrwt>
<totfact> 0.16112808E+05</totfact>
</mgrwt>
</event>
<event>
 7    1  0.3960685E-009  0.9304172E+02  0.7818608E-02  0.1295649E+00
          2   -1    0    0  501    0  0.00000000000E+00  0.00000000000E+00  0.16163429776E+03  0.16163429778E+03  0.25500000000E-02 0. -1.
         -2   -1    0    0    0  501 -0.00000000000E+00 -0.00000000000E+00 -0.13389426848E+02  0.13389427090E+02  0.25500000000E-02 0.  1.
         23    2    1    2    0    0  0.35527136788E-14  0.00000000000E+00  0.14824487092E+03  0.17502372488E+03  0.93041724597E+02 0.  0.
    9000005    2    3    3    0    0  0.27520898111E+02 -0.12155661503E+02  0.11106303452E+02  0.34623772504E+02  0.13049739716E+02 0.  0.
         22    1    3    3    0    0 -0.27520898111E+02  0.12155661503E+02  0.13713856746E+03  0.14039995237E+03  0.00000000000E+00 0. -1.
         22    1    4    4    0    0  0.25108924087E+02 -0.10238223542E+02  0.47073432156E+01  0.27521598250E+02  0.00000000000E+00 0. -1.
         22    1    4    4    0    0  0.24119740241E+01 -0.19174379613E+01  0.63989602368E+01  0.71021742544E+01  0.00000000000E+00 0. -1.
<mgrwt>
<rscale>  0 0.93041725E+02</rscale>
<asrwt>0</asrwt>
<pdfrwt beam="1">  1        2 0.24866815E-01 0.93041725E+02</pdfrwt>
<pdfrwt beam="2">  1       -2 0.20599118E-02 0.93041725E+02</pdfrwt>
<totfact> 0.13577049E+05</totfact>
</mgrwt>
</event>
<event>
 7    1  0.3960685E-009  0.9035248E+02  0.7818608E-02  0.1302000E+00
         -2   -1    0    0    0  501 -0.00000000000E+00  0.00000000000E+00  0.27080243904E+03  0.27080243905E+03  0.25500000000E-02 0.  1.
          2   -1    0    0  501    0  0.00000000000E+00 -0.00000000000E+00 -0.75364637419E+01  0.75364641733E+01  0.25500000000E-02 0. -1.
         23    2    1    2    0    0  0.71054273576E-14  0.00000000000E+00  0.26326597530E+03  0.27833890323E+03  0.90352483635E+02 0.  0.
    9000005    2    3    3    0    0  0.31986141206E+02 -0.20938134110E+02  0.66334371952E+02  0.77730889712E+02  0.13428463200E+02 0.  0.
         22    1    3    3    0    0 -0.31986141206E+02  0.20938134110E+02  0.19693160335E+03  0.20060801351E+03  0.00000000000E+00 0.  1.
         22    1    4    4    0    0  0.83011391668E+01 -0.13087148900E+02  0.27654655438E+02  0.31701141071E+02  0.00000000000E+00 0. -1.
         22    1    4    4    0    0  0.23685002039E+02 -0.78509852095E+01  0.38679716514E+02  0.46029748641E+02  0.00000000000E+00 0. -1.
<mgrwt>
<rscale>  0 0.90352484E+02</rscale>
<asrwt>0</asrwt>
<pdfrwt beam="2">  1        2 0.11594562E-02 0.90352484E+02</pdfrwt>
<pdfrwt beam="1">  1       -2 0.41661907E-01 0.90352484E+02</pdfrwt>
<totfact> 0.55195291E+04</totfact>
</mgrwt>
</event>
<event>
 7    1  0.3960685E-009  0.8985638E+02  0.7818608E-02  0.1303200E+00
          2   -1    0    0  501    0  0.00000000000E+00  0.00000000000E+00  0.15544086381E+03  0.15544086383E+03  0.25500000000E-02 0. -1.
         -2   -1    0    0    0  501 -0.00000000000E+00 -0.00000000000E+00 -0.12985917615E+02  0.12985917865E+02  0.25500000000E-02 0.  1.
         23    2    1    2    0    0  0.00000000000E+00  0.35527136788E-14  0.14245494619E+03  0.16842678169E+03  0.89856380391E+02 0.  0.
    9000005    2    3    3    0    0 -0.25718922269E+02 -0.16033484411E+02  0.13224087534E+03  0.13644455494E+03  0.14523493896E+02 0.  0.
         22    1    3    3    0    0  0.25718922269E+02  0.16033484411E+02  0.10214070847E+02  0.31982226756E+02  0.00000000000E+00 0.  1.
         22    1    4    4    0    0 -0.24377293548E+02 -0.18009585962E+02  0.12834256361E+03  0.13187270856E+03  0.00000000000E+00 0. -1.
         22    1    4    4    0    0 -0.13416287212E+01  0.19761015512E+01  0.38983117296E+01  0.45718463784E+01  0.00000000000E+00 0. -1.
<mgrwt>
<rscale>  0 0.89856380E+02</rscale>
<asrwt>0</asrwt>
<pdfrwt beam="1">  1        2 0.23913978E-01 0.89856380E+02</pdfrwt>
<pdfrwt beam="2">  1       -2 0.19978336E-02 0.89856380E+02</pdfrwt>
<totfact> 0.14722193E+05</totfact>
</mgrwt>
</event>
<event>
 7    1  0.3960685E-009  0.9170161E+02  0.7818608E-02  0.1298783E+00
          2   -1    0    0  501    0  0.00000000000E+00  0.00000000000E+00  0.38706648111E+03  0.38706648112E+03  0.25500000000E-02 0. -1.
         -2   -1    0    0    0  501 -0.00000000000E+00 -0.00000000000E+00 -0.54313566456E+01  0.54313572442E+01  0.25500000000E-02 0.  1.
         23    2    1    2    0    0  0.00000000000E+00  0.00000000000E+00  0.38163512447E+03  0.39249783837E+03  0.91701607917E+02 0.  0.
    9000005    2    3    3    0    0 -0.18909309463E+02 -0.32213448596E+02  0.30299153161E+03  0.30543416654E+03  0.95338138154E+01 0.  0.
         22    1    3    3    0    0  0.18909309463E+02  0.32213448596E+02  0.78643592860E+02  0.87063671832E+02  0.00000000000E+00 0.  1.
         22    1    4    4    0    0 -0.13188573063E+02 -0.14272963182E+02  0.17244179783E+03  0.17353336733E+03  0.00000000000E+00 0.  1.
         22    1    4    4    0    0 -0.57207364003E+01 -0.17940485414E+02  0.13054973378E+03  0.13190079921E+03  0.00000000000E+00 0.  1.
<mgrwt>
<rscale>  0 0.91701608E+02</rscale>
<asrwt>0</asrwt>
<pdfrwt beam="1">  1        2 0.59548694E-01 0.91701608E+02</pdfrwt>
<pdfrwt beam="2">  1       -2 0.83559332E-03 0.91701608E+02</pdfrwt>
<totfact> 0.19429537E+05</totfact>
</mgrwt>
</event>
<event>
 7    1  0.3960685E-009  0.9459975E+02  0.7818608E-02  0.1292080E+00
         -2   -1    0    0    0  501 -0.00000000000E+00  0.00000000000E+00  0.35213212508E+01  0.35213221741E+01  0.25500000000E-02 0. -1.
          2   -1    0    0  501    0  0.00000000000E+00 -0.00000000000E+00 -0.63535179747E+03  0.63535179747E+03  0.25500000000E-02 0.  1.
         23    2    1    2    0    0  0.00000000000E+00  0.35527136788E-14 -0.63183047622E+03  0.63887311965E+03  0.94599748049E+02 0.  0.
    9000005    2    3    3    0    0 -0.29617581182E+02 -0.19266704092E+02 -0.52674041622E+03  0.52800234932E+03  0.90888839486E+01 0.  0.
         22    1    3    3    0    0  0.29617581182E+02  0.19266704092E+02 -0.10509006000E+03  0.11087077033E+03  0.00000000000E+00 0. -1.
         22    1    4    4    0    0 -0.43378480915E+01 -0.70002635077E+01 -0.10056023404E+03  0.10089688442E+03  0.00000000000E+00 0. -1.
         22    1    4    4    0    0 -0.25279733091E+02 -0.12266440584E+02 -0.42618018218E+03  0.42710546490E+03  0.00000000000E+00 0. -1.
<mgrwt>
<rscale>  0 0.94599748E+02</rscale>
<asrwt>0</asrwt>
<pdfrwt beam="2">  1        2 0.97746340E-01 0.94599748E+02</pdfrwt>
<pdfrwt beam="1">  1       -2 0.54174231E-03 0.94599748E+02</pdfrwt>
<totfact> 0.20996277E+05</totfact>
</mgrwt>
</event>
<event>
 7    1  0.3960685E-009  0.9274258E+02  0.7818608E-02  0.1296343E+00
         -2   -1    0    0    0  501 -0.00000000000E+00  0.00000000000E+00  0.82400717922E+01  0.82400721868E+01  0.25500000000E-02 0.  1.
          2   -1    0    0  501    0  0.00000000000E+00 -0.00000000000E+00 -0.26095602082E+03  0.26095602083E+03  0.25500000000E-02 0. -1.
         23    2    1    2    0    0  0.00000000000E+00  0.00000000000E+00 -0.25271594903E+03  0.26919609302E+03  0.92742577082E+02 0.  0.
    9000005    2    3    3    0    0 -0.40668014236E+02 -0.17356287808E+02 -0.15519876196E+03  0.16212261413E+03  0.15555005282E+02 0.  0.
         22    1    3    3    0    0  0.40668014236E+02  0.17356287808E+02 -0.97517187068E+02  0.10707347889E+03  0.00000000000E+00 0. -1.
         22    1    4    4    0    0 -0.20341860118E+02 -0.18303761476E+01 -0.53761351631E+02  0.57510211955E+02  0.00000000000E+00 0.  1.
         22    1    4    4    0    0 -0.20326154118E+02 -0.15525911660E+02 -0.10143741033E+03  0.10461240217E+03  0.00000000000E+00 0.  1.
<mgrwt>
<rscale>  0 0.92742577E+02</rscale>
<asrwt>0</asrwt>
<pdfrwt beam="2">  1        2 0.40147074E-01 0.92742577E+02</pdfrwt>
<pdfrwt beam="1">  1       -2 0.12677036E-02 0.92742577E+02</pdfrwt>
<totfact> 0.16294729E+05</totfact>
</mgrwt>
</event>
<event>
 7    1  0.3960685E-009  0.1055669E+03  0.7818608E-02  0.1269007E+00
         -2   -1    0    0    0  501 -0.00000000000E+00  0.00000000000E+00  0.79207097542E+02  0.79207097583E+02  0.25500000000E-02 0.  1.
          2   -1    0    0  501    0  0.00000000000E+00 -0.00000000000E+00 -0.35174810704E+02  0.35174810797E+02  0.25500000000E-02 0. -1.
         23    2    1    2    0    0  0.00000000000E+00  0.00000000000E+00  0.44032286837E+02  0.11438190838E+03  0.10556693933E+03 0.  0.
    9000005    2    3    3    0    0 -0.50400561830E+01 -0.16150558051E+02 -0.30777642820E+02  0.37682701949E+02  0.13655769362E+02 0.  0.
         22    1    3    3    0    0  0.50400561830E+01  0.16150558051E+02  0.74809929658E+02  0.76699206431E+02  0.00000000000E+00 0.  1.
         22    1    4    4    0    0 -0.23322899480E+01  0.17378318793E+01 -0.85004103013E+01  0.89842423906E+01  0.00000000000E+00 0.  1.
         22    1    4    4    0    0 -0.27077662350E+01 -0.17888389931E+02 -0.22277232519E+02  0.28698459558E+02  0.00000000000E+00 0.  1.
<mgrwt>
<rscale>  0 0.10556694E+03</rscale>
<asrwt>0</asrwt>
<pdfrwt beam="2">  1        2 0.54115094E-02 0.10556694E+03</pdfrwt>
<pdfrwt beam="1">  1       -2 0.12185707E-01 0.10556694E+03</pdfrwt>
<totfact> 0.59606643E+04</totfact>
</mgrwt>
</event>
<event>
 7    1  0.3960685E-009  0.8930646E+02  0.7818608E-02  0.1304540E+00
          2   -1    0    0  501    0  0.00000000000E+00  0.00000000000E+00  0.64844319866E+02  0.64844319916E+02  0.25500000000E-02 0.  1.
         -2   -1    0    0    0  501 -0.00000000000E+00 -0.00000000000E+00 -0.30749201718E+02  0.30749201824E+02  0.25500000000E-02 0. -1.
         23    2    1    2    0    0 -0.35527136788E-14  0.22204460493E-15  0.34095118148E+02  0.95593521740E+02  0.89306462908E+02 0.  0.
    9000005    2    3    3    0    0 -0.23793046754E+02 -0.15416949948E+01  0.56317178367E+02  0.63000487858E+02  0.15131126655E+02 0.  0.
         22    1    3    3    0    0  0.23793046754E+02  0.15416949948E+01 -0.22222060219E+02  0.32593033882E+02  0.00000000000E+00 0. -1.
         22    1    4    4    0    0 -0.20824758253E+02 -0.64227292656E+01  0.49639867383E+02  0.54212899216E+02  0.00000000000E+00 0. -1.
         22    1    4    4    0    0 -0.29682885005E+01  0.48810342709E+01  0.66773109834E+01  0.87875886422E+01  0.00000000000E+00 0. -1.
<mgrwt>
<rscale>  0 0.89306463E+02</rscale>
<asrwt>0</asrwt>
<pdfrwt beam="1">  1        2 0.99760493E-02 0.89306463E+02</pdfrwt>
<pdfrwt beam="2">  1       -2 0.47306464E-02 0.89306463E+02</pdfrwt>
<totfact> 0.11479490E+05</totfact>
</mgrwt>
</event>
<event>
 7    1  0.3960685E-009  0.8979511E+02  0.7818608E-02  0.1303349E+00
          2   -1    0    0  501    0  0.00000000000E+00  0.00000000000E+00  0.23914652414E+03  0.23914652416E+03  0.25500000000E-02 0.  1.
         -2   -1    0    0    0  501 -0.00000000000E+00 -0.00000000000E+00 -0.84291013625E+01  0.84291017482E+01  0.25500000000E-02 0. -1.
         23    2    1    2    0    0  0.00000000000E+00  0.66613381478E-15  0.23071742278E+03  0.24757562590E+03  0.89795107704E+02 0.  0.
    9000005    2    3    3    0    0  0.43757409629E+02 -0.17785474158E+01  0.12218930832E+03  0.13054475068E+03  0.13922310627E+02 0.  0.
         22    1    3    3    0    0 -0.43757409629E+02  0.17785474158E+01  0.10852811446E+03  0.11703087523E+03  0.00000000000E+00 0. -1.
         22    1    4    4    0    0  0.15397105239E+02 -0.71174394836E+01  0.50104644032E+02  0.52898054295E+02  0.00000000000E+00 0. -1.
         22    1    4    4    0    0  0.28360304389E+02  0.53388920678E+01  0.72084664286E+02  0.77646696381E+02  0.00000000000E+00 0. -1.
<mgrwt>
<rscale>  0 0.89795108E+02</rscale>
<asrwt>0</asrwt>
<pdfrwt beam="1">  1        2 0.36791771E-01 0.89795108E+02</pdfrwt>
<pdfrwt beam="2">  1       -2 0.12967849E-02 0.89795108E+02</pdfrwt>
<totfact> 0.17201924E+05</totfact>
</mgrwt>
</event>
<event>
 7    1  0.3960685E-009  0.9213308E+02  0.7818608E-02  0.1297767E+00
         -2   -1    0    0    0  501 -0.00000000000E+00  0.00000000000E+00  0.46508271113E+02  0.46508271183E+02  0.25500000000E-02 0.  1.
          2   -1    0    0  501    0  0.00000000000E+00 -0.00000000000E+00 -0.45629004706E+02  0.45629004777E+02  0.25500000000E-02 0. -1.
         23    2    1    2    0    0  0.00000000000E+00  0.00000000000E+00  0.87926640700E+00  0.92137275960E+02  0.92133080443E+02 0.  0.
    9000005    2    3    3    0    0  0.19444559009E+02 -0.13990081656E+02  0.38851840863E+02  0.47240397777E+02  0.12180984518E+02 0.  0.
         22    1    3    3    0    0 -0.19444559009E+02  0.13990081656E+02 -0.37972574456E+02  0.44896878183E+02  0.00000000000E+00 0. -1.
         22    1    4    4    0    0  0.21015136608E+02 -0.14087366881E+02  0.36573647058E+02  0.44471581166E+02  0.00000000000E+00 0. -1.
         22    1    4    4    0    0 -0.15705775991E+01  0.97285224101E-01  0.22781938047E+01  0.27688166103E+01  0.00000000000E+00 0. -1.
<mgrwt>
<rscale>  0 0.92133080E+02</rscale>
<asrwt>0</asrwt>
<pdfrwt beam="2">  1        2 0.70198469E-02 0.92133080E+02</pdfrwt>
<pdfrwt beam="1">  1       -2 0.71551186E-02 0.92133080E+02</pdfrwt>
<totfact> 0.95780514E+04</totfact>
</mgrwt>
</event>
<event>
 7    1  0.3960685E-009  0.8571128E+02  0.7818608E-02  0.1313583E+00
         -2   -1    0    0    0  501 -0.00000000000E+00  0.00000000000E+00  0.30281040745E+01  0.30281051482E+01  0.25500000000E-02 0.  1.
          2   -1    0    0  501    0  0.00000000000E+00 -0.00000000000E+00 -0.60651998944E+03  0.60651998944E+03  0.25500000000E-02 0. -1.
         23    2    1    2    0    0  0.00000000000E+00 -0.44408920985E-15 -0.60349188536E+03  0.60954809459E+03  0.85711282341E+02 0.  0.
    9000005    2    3    3    0    0 -0.31288435248E+02 -0.29246228239E+01 -0.50723304172E+03  0.50828959086E+03  0.92428330175E+01 0.  0.
         22    1    3    3    0    0  0.31288435248E+02  0.29246228239E+01 -0.96258843638E+02  0.10125850373E+03  0.00000000000E+00 0.  1.
         22    1    4    4    0    0 -0.18172619394E+02 -0.43991207989E+01 -0.35210759022E+03  0.35260367476E+03  0.00000000000E+00 0.  1.
         22    1    4    4    0    0 -0.13115815854E+02  0.14744979750E+01 -0.15512545150E+03  0.15568591610E+03  0.00000000000E+00 0.  1.
<mgrwt>
<rscale>  0 0.85711282E+02</rscale>
<asrwt>0</asrwt>
<pdfrwt beam="2">  1        2 0.93310671E-01 0.85711282E+02</pdfrwt>
<pdfrwt beam="1">  1       -2 0.46586273E-03 0.85711282E+02</pdfrwt>
<totfact> 0.26892603E+05</totfact>
</mgrwt>
</event>
<event>
 7    1  0.3960685E-009  0.9404536E+02  0.7818608E-02  0.1293341E+00
         -2   -1    0    0    0  501 -0.00000000000E+00  0.00000000000E+00  0.16258844482E+01  0.16258864479E+01  0.25500000000E-02 0.  1.
          2   -1    0    0  501    0  0.00000000000E+00 -0.00000000000E+00 -0.13599558523E+04  0.13599558523E+04  0.25500000000E-02 0. -1.
         23    2    1    2    0    0  0.00000000000E+00 -0.22204460493E-15 -0.13583299679E+04  0.13615817388E+04  0.94045359981E+02 0.  0.
    9000005    2    3    3    0    0 -0.10696372574E+02 -0.13354218080E+01 -0.13416112678E+04  0.13416892611E+04  0.96479838149E+01 0.  0.
         22    1    3    3    0    0  0.10696372574E+02  0.13354218080E+01 -0.16718700056E+02  0.19892477705E+02  0.00000000000E+00 0.  1.
         22    1    4    4    0    0 -0.69515581720E+01 -0.52587631370E+01 -0.95799819090E+03  0.95803784504E+03  0.00000000000E+00 0.  1.
         22    1    4    4    0    0 -0.37448144024E+01  0.39233413290E+01 -0.38361307692E+03  0.38365141604E+03  0.00000000000E+00 0.  1.
<mgrwt>
<rscale>  0 0.94045360E+02</rscale>
<asrwt>0</asrwt>
<pdfrwt beam="2">  1        2 0.20922307E+00 0.94045360E+02</pdfrwt>
<pdfrwt beam="1">  1       -2 0.25013731E-03 0.94045360E+02</pdfrwt>
<totfact> 0.22418245E+05</totfact>
</mgrwt>
</event>
<event>
 7    1  0.3960685E-009  0.8985717E+02  0.7818608E-02  0.1303198E+00
          2   -1    0    0  501    0  0.00000000000E+00  0.00000000000E+00  0.12326598175E+03  0.12326598178E+03  0.25500000000E-02 0. -1.
         -2   -1    0    0    0  501 -0.00000000000E+00 -0.00000000000E+00 -0.16375787563E+02  0.16375787761E+02  0.25500000000E-02 0.  1.
         23    2    1    2    0    0  0.00000000000E+00  0.00000000000E+00  0.10689019419E+03  0.13964176954E+03  0.89857165471E+02 0.  0.
    9000005    2    3    3    0    0 -0.15897956021E+02 -0.40279716207E+02  0.67837854663E+02  0.81329800221E+02  0.11720125227E+02 0.  0.
         22    1    3    3    0    0  0.15897956021E+02  0.40279716207E+02  0.39052339527E+02  0.58311969319E+02  0.00000000000E+00 0.  1.
         22    1    4    4    0    0 -0.37290722506E-01 -0.65695508681E+01  0.49135846738E+01  0.82038834434E+01  0.00000000000E+00 0. -1.
         22    1    4    4    0    0 -0.15860665299E+02 -0.33710165339E+02  0.62924269989E+02  0.73125916777E+02  0.00000000000E+00 0. -1.
<mgrwt>
<rscale>  0 0.89857165E+02</rscale>
<asrwt>0</asrwt>
<pdfrwt beam="1">  1        2 0.18963996E-01 0.89857165E+02</pdfrwt>
<pdfrwt beam="2">  1       -2 0.25193521E-02 0.89857165E+02</pdfrwt>
<totfact> 0.13630356E+05</totfact>
</mgrwt>
</event>
<event>
 7    1  0.4128990E-009  0.9055204E+02  0.7818608E-02  0.1301520E+00
          2   -1    0    0  501    0  0.00000000000E+00  0.00000000000E+00  0.31505659690E+03  0.31505659691E+03  0.25500000000E-02 0. -1.
         -2   -1    0    0    0  501 -0.00000000000E+00 -0.00000000000E+00 -0.65065072050E+01  0.65065077047E+01  0.25500000000E-02 0.  1.
         23    2    1    2    0    0 -0.17763568394E-14  0.00000000000E+00  0.30855008969E+03  0.32156310461E+03  0.90552042488E+02 0.  0.
    9000005    2    3    3    0    0  0.12337725427E+02  0.24972458724E+02  0.27949175519E+03  0.28131102432E+03  0.15633554446E+02 0.  0.
         22    1    3    3    0    0 -0.12337725427E+02 -0.24972458724E+02  0.29058334507E+02  0.40252080291E+02  0.00000000000E+00 0.  1.
         22    1    4    4    0    0  0.13310432807E+02  0.26643194642E+02  0.25256929754E+03  0.25431924327E+03  0.00000000000E+00 0. -1.
         22    1    4    4    0    0 -0.97270738023E+00 -0.16707359176E+01  0.26922457650E+02  0.26991781047E+02  0.00000000000E+00 0. -1.
<mgrwt>
<rscale>  0 0.90552042E+02</rscale>
<asrwt>0</asrwt>
<pdfrwt beam="1">  1        2 0.48470258E-01 0.90552042E+02</pdfrwt>
<pdfrwt beam="2">  1       -2 0.10010009E-02 0.90552042E+02</pdfrwt>
<totfact> 0.18634298E+05</totfact>
</mgrwt>
</event>
<event>
 7    1  0.3960685E-009  0.8868964E+02  0.7818608E-02  0.1306056E+00
         -2   -1    0    0    0  501 -0.00000000000E+00  0.00000000000E+00  0.46910143140E+02  0.46910143210E+02  0.25500000000E-02 0. -1.
          2   -1    0    0  501    0  0.00000000000E+00 -0.00000000000E+00 -0.41919788302E+02  0.41919788379E+02  0.25500000000E-02 0.  1.
         23    2    1    2    0    0  0.00000000000E+00  0.00000000000E+00  0.49903548384E+01  0.88829931589E+02  0.88689644856E+02 0.  0.
    9000005    2    3    3    0    0 -0.35875488313E+02 -0.31654639430E+01 -0.22678937463E+02  0.43413408603E+02  0.85626525329E+01 0.  0.
         22    1    3    3    0    0  0.35875488313E+02  0.31654639430E+01  0.27669292301E+02  0.45416522986E+02  0.00000000000E+00 0. -1.
         22    1    4    4    0    0 -0.62438440790E+01 -0.28725614495E+01 -0.16247747778E+01  0.70623715027E+01  0.00000000000E+00 0.  1.
         22    1    4    4    0    0 -0.29631644234E+02 -0.29290249342E+00 -0.21054162685E+02  0.36351037100E+02  0.00000000000E+00 0.  1.
<mgrwt>
<rscale>  0 0.88689645E+02</rscale>
<asrwt>0</asrwt>
<pdfrwt beam="2">  1        2 0.64491982E-02 0.88689645E+02</pdfrwt>
<pdfrwt beam="1">  1       -2 0.72169451E-02 0.88689645E+02</pdfrwt>
<totfact> 0.10454643E+05</totfact>
</mgrwt>
</event>
<event>
 7    1  0.3960685E-009  0.9084478E+02  0.7818608E-02  0.1300819E+00
          2   -1    0    0  501    0  0.00000000000E+00  0.00000000000E+00  0.65446049708E+02  0.65446049758E+02  0.25500000000E-02 0.  1.
         -2   -1    0    0    0  501 -0.00000000000E+00 -0.00000000000E+00 -0.31525101914E+02  0.31525102017E+02  0.25500000000E-02 0. -1.
         23    2    1    2    0    0  0.00000000000E+00  0.00000000000E+00  0.33920947794E+02  0.96971151775E+02  0.90844777380E+02 0.  0.
    9000005    2    3    3    0    0 -0.35271146598E+02  0.18798998704E+02 -0.38397293912E+01  0.41986382283E+02  0.12274226689E+02 0.  0.
         22    1    3    3    0    0  0.35271146598E+02 -0.18798998704E+02  0.37760677185E+02  0.54984769492E+02  0.00000000000E+00 0. -1.
         22    1    4    4    0    0 -0.15760753889E+02  0.13251657015E+02 -0.63490820318E+01  0.21548053727E+02  0.00000000000E+00 0.  1.
         22    1    4    4    0    0 -0.19510392709E+02  0.55473416886E+01  0.25093526407E+01  0.20438328555E+02  0.00000000000E+00 0.  1.
<mgrwt>
<rscale>  0 0.90844777E+02</rscale>
<asrwt>0</asrwt>
<pdfrwt beam="1">  1        2 0.10068623E-01 0.90844777E+02</pdfrwt>
<pdfrwt beam="2">  1       -2 0.48500157E-02 0.90844777E+02</pdfrwt>
<totfact> 0.10970979E+05</totfact>
</mgrwt>
</event>
<event>
 7    1  0.3960685E-009  0.9055125E+02  0.7818608E-02  0.1301522E+00
          2   -1    0    0  501    0  0.00000000000E+00  0.00000000000E+00  0.62532559386E+02  0.62532559438E+02  0.25500000000E-02 0. -1.
         -2   -1    0    0    0  501 -0.00000000000E+00 -0.00000000000E+00 -0.32781034793E+02  0.32781034893E+02  0.25500000000E-02 0.  1.
         23    2    1    2    0    0  0.44408920985E-15 -0.71054273576E-14  0.29751524593E+02  0.95313594331E+02  0.90551245429E+02 0.  0.
    9000005    2    3    3    0    0 -0.38624533994E+01  0.42337435971E+02  0.28028039765E+02  0.52765416570E+02  0.13828996416E+02 0.  0.
         22    1    3    3    0    0  0.38624533994E+01 -0.42337435971E+02  0.17234848279E+01  0.42548177761E+02  0.00000000000E+00 0.  1.
         22    1    4    4    0    0  0.88467687341E+00  0.24972809092E+02  0.89704311978E+01  0.26549811355E+02  0.00000000000E+00 0. -1.
         22    1    4    4    0    0 -0.47471302728E+01  0.17364626878E+02  0.19057608567E+02  0.26215605214E+02  0.00000000000E+00 0. -1.
<mgrwt>
<rscale>  0 0.90551245E+02</rscale>
<asrwt>0</asrwt>
<pdfrwt beam="1">  1        2 0.96203938E-02 0.90551245E+02</pdfrwt>
<pdfrwt beam="2">  1       -2 0.50432361E-02 0.90551245E+02</pdfrwt>
<totfact> 0.10935312E+05</totfact>
</mgrwt>
</event>
<event>
 7    1  0.3960685E-009  0.9154315E+02  0.7818608E-02  0.1299157E+00
          2   -1    0    0  501    0  0.00000000000E+00  0.00000000000E+00  0.17564697895E+03  0.17564697897E+03  0.25500000000E-02 0.  1.
         -2   -1    0    0    0  501 -0.00000000000E+00 -0.00000000000E+00 -0.11927543779E+02  0.11927544051E+02  0.25500000000E-02 0. -1.
         23    2    1    2    0    0  0.88817841970E-15  0.00000000000E+00  0.16371943517E+03  0.18757452302E+03  0.91543149570E+02 0.  0.
    9000005    2    3    3    0    0 -0.47683865179E+01  0.32970041242E+02  0.18306693284E+02  0.38394676416E+02  0.54087917895E+01 0.  0.
         22    1    3    3    0    0  0.47683865179E+01 -0.32970041242E+02  0.14541274188E+03  0.14917984660E+03  0.00000000000E+00 0.  1.
         22    1    4    4    0    0 -0.50437559966E+01  0.31374570756E+02  0.16004450860E+02  0.35580129455E+02  0.00000000000E+00 0.  1.
         22    1    4    4    0    0  0.27536947866E+00  0.15954704860E+01  0.23022424232E+01  0.28145469612E+01  0.00000000000E+00 0.  1.
<mgrwt>
<rscale>  0 0.91543150E+02</rscale>
<asrwt>0</asrwt>
<pdfrwt beam="1">  1        2 0.27022613E-01 0.91543150E+02</pdfrwt>
<pdfrwt beam="2">  1       -2 0.18350067E-02 0.91543150E+02</pdfrwt>
<totfact> 0.14606918E+05</totfact>
</mgrwt>
</event>
<event>
 7    1  0.3960685E-009  0.9169196E+02  0.7818608E-02  0.1298805E+00
          2   -1    0    0  501    0  0.00000000000E+00  0.00000000000E+00  0.27908476950E+02  0.27908477066E+02  0.25500000000E-02 0. -1.
         -2   -1    0    0    0  501 -0.00000000000E+00 -0.00000000000E+00 -0.75312379601E+02  0.75312379644E+02  0.25500000000E-02 0.  1.
         23    2    1    2    0    0  0.35527136788E-14  0.00000000000E+00 -0.47403902651E+02  0.10322085671E+03  0.91691958609E+02 0.  0.
    9000005    2    3    3    0    0 -0.20034201331E+02 -0.19859369640E+02  0.14345681270E+02  0.35332898280E+02  0.15711503565E+02 0.  0.
         22    1    3    3    0    0  0.20034201331E+02  0.19859369640E+02 -0.61749583920E+02  0.67887958430E+02  0.00000000000E+00 0.  1.
         22    1    4    4    0    0 -0.98924557674E+01 -0.11557771982E+02  0.16052359191E+02  0.22116080346E+02  0.00000000000E+00 0.  1.
         22    1    4    4    0    0 -0.10141745564E+02 -0.83015976586E+01 -0.17066779209E+01  0.13216817934E+02  0.00000000000E+00 0.  1.
<mgrwt>
<rscale>  0 0.91691959E+02</rscale>
<asrwt>0</asrwt>
<pdfrwt beam="1">  1        2 0.42936119E-02 0.91691959E+02</pdfrwt>
<pdfrwt beam="2">  1       -2 0.11586520E-01 0.91691959E+02</pdfrwt>
<totfact> 0.85312344E+04</totfact>
</mgrwt>
</event>
<event>
 7    1  0.3960685E-009  0.1246974E+03  0.7818608E-02  0.1235543E+00
         -2   -1    0    0    0  501 -0.00000000000E+00  0.00000000000E+00  0.12211815953E+03  0.12211815956E+03  0.25500000000E-02 0.  1.
          2   -1    0    0  501    0  0.00000000000E+00 -0.00000000000E+00 -0.31832755041E+02  0.31832755143E+02  0.25500000000E-02 0. -1.
         23    2    1    2    0    0  0.00000000000E+00  0.00000000000E+00  0.90285404494E+02  0.15395091470E+03  0.12469735311E+03 0.  0.
    9000005    2    3    3    0    0  0.14300246967E+02  0.22445083455E+02  0.11410107905E+03  0.11823725921E+03  0.15896993138E+02 0.  0.
         22    1    3    3    0    0 -0.14300246967E+02 -0.22445083455E+02 -0.23815674551E+02  0.35713655497E+02  0.00000000000E+00 0. -1.
         22    1    4    4    0    0  0.16577898952E+02  0.14827945146E+02  0.94564257760E+02  0.97144704110E+02  0.00000000000E+00 0. -1.
         22    1    4    4    0    0 -0.22776519849E+01  0.76171383090E+01  0.19536821285E+02  0.21092555096E+02  0.00000000000E+00 0. -1.
<mgrwt>
<rscale>  0 0.12469735E+03</rscale>
<asrwt>0</asrwt>
<pdfrwt beam="2">  1        2 0.48973470E-02 0.12469735E+03</pdfrwt>
<pdfrwt beam="1">  1       -2 0.18787409E-01 0.12469735E+03</pdfrwt>
<totfact> 0.34244935E+04</totfact>
</mgrwt>
</event>
<event>
 7    1  0.3960685E-009  0.9049663E+02  0.7818608E-02  0.1301653E+00
          2   -1    0    0  501    0  0.00000000000E+00  0.00000000000E+00  0.80529277959E+02  0.80529277999E+02  0.25500000000E-02 0.  1.
         -2   -1    0    0    0  501 -0.00000000000E+00 -0.00000000000E+00 -0.25424416286E+02  0.25424416414E+02  0.25500000000E-02 0. -1.
         23    2    1    2    0    0 -0.35527136788E-14  0.00000000000E+00  0.55104861673E+02  0.10595369441E+03  0.90496627450E+02 0.  0.
    9000005    2    3    3    0    0  0.29363169765E+02 -0.30662638898E+02  0.44998769064E+02  0.62312815977E+02  0.74568528764E+01 0.  0.
         22    1    3    3    0    0 -0.29363169765E+02  0.30662638898E+02  0.10106092609E+02  0.43640878436E+02  0.00000000000E+00 0.  1.
         22    1    4    4    0    0  0.69163435137E+01 -0.11076893990E+02  0.16938633935E+02  0.21388097336E+02  0.00000000000E+00 0.  1.
         22    1    4    4    0    0  0.22446826252E+02 -0.19585744908E+02  0.28060135129E+02  0.40924718640E+02  0.00000000000E+00 0.  1.
<mgrwt>
<rscale>  0 0.90496627E+02</rscale>
<asrwt>0</asrwt>
<pdfrwt beam="1">  1        2 0.12389120E-01 0.90496627E+02</pdfrwt>
<pdfrwt beam="2">  1       -2 0.39114487E-02 0.90496627E+02</pdfrwt>
<totfact> 0.11748914E+05</totfact>
</mgrwt>
</event>
<event>
 7    1  0.3960685E-009  0.8621178E+02  0.7818608E-02  0.1312294E+00
         -2   -1    0    0    0  501 -0.00000000000E+00  0.00000000000E+00  0.21623023757E+02  0.21623023907E+02  0.25500000000E-02 0.  1.
          2   -1    0    0  501    0  0.00000000000E+00 -0.00000000000E+00 -0.85932368176E+02  0.85932368214E+02  0.25500000000E-02 0. -1.
         23    2    1    2    0    0  0.00000000000E+00  0.00000000000E+00 -0.64309344419E+02  0.10755539212E+03  0.86211777588E+02 0.  0.
    9000005    2    3    3    0    0  0.23797309924E+02 -0.26677559537E+02 -0.60329938488E+02  0.71585407217E+02  0.14379322167E+02 0.  0.
         22    1    3    3    0    0 -0.23797309924E+02  0.26677559537E+02 -0.39794059309E+01  0.35969984904E+02  0.00000000000E+00 0.  1.
         22    1    4    4    0    0  0.16566826507E+02 -0.78747303259E+01 -0.27039638847E+02  0.32674350601E+02  0.00000000000E+00 0. -1.
         22    1    4    4    0    0  0.72304834172E+01 -0.18802829211E+02 -0.33290299641E+02  0.38911056616E+02  0.00000000000E+00 0. -1.
<mgrwt>
<rscale>  0 0.86211778E+02</rscale>
<asrwt>0</asrwt>
<pdfrwt beam="2">  1        2 0.13220364E-01 0.86211778E+02</pdfrwt>
<pdfrwt beam="1">  1       -2 0.33266191E-02 0.86211778E+02</pdfrwt>
<totfact> 0.13682202E+05</totfact>
</mgrwt>
</event>
<event>
 7    1  0.3960685E-009  0.9143656E+02  0.7818608E-02  0.1299410E+00
         -2   -1    0    0    0  501 -0.00000000000E+00  0.00000000000E+00  0.65957961811E+01  0.65957966741E+01  0.25500000000E-02 0.  1.
          2   -1    0    0  501    0  0.00000000000E+00 -0.00000000000E+00 -0.31689291165E+03  0.31689291166E+03  0.25500000000E-02 0. -1.
         23    2    1    2    0    0 -0.35527136788E-14  0.71054273576E-14 -0.31029711547E+03  0.32348870833E+03  0.91436560256E+02 0.  0.
    9000005    2    3    3    0    0  0.19585316642E+02 -0.40694427221E+02 -0.14581726595E+03  0.15292129664E+03  0.90899329878E+01 0.  0.
         22    1    3    3    0    0 -0.19585316642E+02  0.40694427221E+02 -0.16447984952E+03  0.17056741169E+03  0.00000000000E+00 0.  1.
         22    1    4    4    0    0  0.13118344833E+01 -0.46191651536E+00 -0.10007877394E+02  0.10104052975E+02  0.00000000000E+00 0.  1.
         22    1    4    4    0    0  0.18273482159E+02 -0.40232510706E+02 -0.13580938856E+03  0.14281724367E+03  0.00000000000E+00 0.  1.
<mgrwt>
<rscale>  0 0.91436560E+02</rscale>
<asrwt>0</asrwt>
<pdfrwt beam="2">  1        2 0.48752744E-01 0.91436560E+02</pdfrwt>
<pdfrwt beam="1">  1       -2 0.10147382E-02 0.91436560E+02</pdfrwt>
<totfact> 0.18196967E+05</totfact>
</mgrwt>
</event>
<event>
 7    1  0.3960685E-009  0.8994451E+02  0.7818608E-02  0.1302986E+00
          2   -1    0    0  501    0  0.00000000000E+00  0.00000000000E+00  0.98404169694E+02  0.98404169727E+02  0.25500000000E-02 0.  1.
         -2   -1    0    0    0  501 -0.00000000000E+00 -0.00000000000E+00 -0.20553030715E+02  0.20553030873E+02  0.25500000000E-02 0. -1.
         23    2    1    2    0    0  0.00000000000E+00  0.00000000000E+00  0.77851138979E+02  0.11895720060E+03  0.89944514754E+02 0.  0.
    9000005    2    3    3    0    0  0.20999532984E+02 -0.26516616557E+02  0.82867827067E-01  0.34151449987E+02  0.47120409527E+01 0.  0.
         22    1    3    3    0    0 -0.20999532984E+02  0.26516616557E+02  0.77768271152E+02  0.84805750614E+02  0.00000000000E+00 0.  1.
         22    1    4    4    0    0  0.17942910418E+02 -0.20436720035E+02  0.13511336715E+01  0.27229269587E+02  0.00000000000E+00 0.  1.
         22    1    4    4    0    0  0.30566225658E+01 -0.60798965224E+01 -0.12682658444E+01  0.69221803996E+01  0.00000000000E+00 0.  1.
<mgrwt>
<rscale>  0 0.89944515E+02</rscale>
<asrwt>0</asrwt>
<pdfrwt beam="1">  1        2 0.15139103E-01 0.89944515E+02</pdfrwt>
<pdfrwt beam="2">  1       -2 0.31620047E-02 0.89944515E+02</pdfrwt>
<totfact> 0.12673300E+05</totfact>
</mgrwt>
</event>
<event>
 7    1  0.3960685E-009  0.9239375E+02  0.7818608E-02  0.1297156E+00
          2   -1    0    0  501    0  0.00000000000E+00  0.00000000000E+00  0.19960735826E+02  0.19960735989E+02  0.25500000000E-02 0. -1.
         -2   -1    0    0    0  501 -0.00000000000E+00 -0.00000000000E+00 -0.10691746752E+03  0.10691746755E+03  0.25500000000E-02 0.  1.
         23    2    1    2    0    0  0.00000000000E+00  0.71054273576E-14 -0.86956731693E+02  0.12687820354E+03  0.92393751664E+02 0.  0.
    9000005    2    3    3    0    0  0.12556657283E+02 -0.37530281469E+02 -0.12491929920E+02  0.42550281874E+02  0.93960898873E+01 0.  0.
         22    1    3    3    0    0 -0.12556657283E+02  0.37530281469E+02 -0.74464801772E+02  0.84327921664E+02  0.00000000000E+00 0.  1.
         22    1    4    4    0    0  0.87650562262E+01 -0.13179308121E+02 -0.28262146207E+01  0.16078179694E+02  0.00000000000E+00 0. -1.
         22    1    4    4    0    0  0.37916010567E+01 -0.24350973348E+02 -0.96657152998E+01  0.26472102180E+02  0.00000000000E+00 0. -1.
<mgrwt>
<rscale>  0 0.92393752E+02</rscale>
<asrwt>0</asrwt>
<pdfrwt beam="1">  1        2 0.30708825E-02 0.92393752E+02</pdfrwt>
<pdfrwt beam="2">  1       -2 0.16448841E-01 0.92393752E+02</pdfrwt>
<totfact> 0.75659238E+04</totfact>
</mgrwt>
</event>
<event>
 7    1  0.3960685E-009  0.9416029E+02  0.7818608E-02  0.1293079E+00
          2   -1    0    0  501    0  0.00000000000E+00  0.00000000000E+00  0.13025302585E+04  0.13025302585E+04  0.25500000000E-02 0. -1.
         -2   -1    0    0    0  501 -0.00000000000E+00 -0.00000000000E+00 -0.17017176826E+01  0.17017195931E+01  0.25500000000E-02 0.  1.
         23    2    1    2    0    0  0.00000000000E+00  0.17763568394E-14  0.13008285408E+04  0.13042319781E+04  0.94160289306E+02 0.  0.
    9000005    2    3    3    0    0  0.25897078824E+02 -0.11164398828E+02  0.11724018887E+04  0.11727454485E+04  0.32242584740E+01 0.  0.
         22    1    3    3    0    0 -0.25897078824E+02  0.11164398828E+02  0.12842665214E+03  0.13148652963E+03  0.00000000000E+00 0.  1.
         22    1    4    4    0    0  0.81853209256E+01 -0.21715515414E+01  0.38390375852E+03  0.38399714963E+03  0.00000000000E+00 0. -1.
         22    1    4    4    0    0  0.17711757898E+02 -0.89928472865E+01  0.78849813017E+03  0.78874829885E+03  0.00000000000E+00 0. -1.
<mgrwt>
<rscale>  0 0.94160289E+02</rscale>
<asrwt>0</asrwt>
<pdfrwt beam="1">  1        2 0.20038983E+00 0.94160289E+02</pdfrwt>
<pdfrwt beam="2">  1       -2 0.26180214E-03 0.94160289E+02</pdfrwt>
<totfact> 0.22560870E+05</totfact>
</mgrwt>
</event>
<event>
 7    1  0.3960685E-009  0.8758301E+02  0.7818608E-02  0.1308813E+00
         -2   -1    0    0    0  501 -0.00000000000E+00  0.00000000000E+00  0.23937643162E+03  0.23937643163E+03  0.25500000000E-02 0.  1.
          2   -1    0    0  501    0  0.00000000000E+00 -0.00000000000E+00 -0.80112147426E+01  0.80112151485E+01  0.25500000000E-02 0. -1.
         23    2    1    2    0    0  0.00000000000E+00  0.00000000000E+00  0.23136521688E+03  0.24738764678E+03  0.87583013191E+02 0.  0.
    9000005    2    3    3    0    0  0.36718453475E+02 -0.20250332973E+02  0.91325448917E+02  0.10120468806E+03  0.11988763645E+02 0.  0.
         22    1    3    3    0    0 -0.36718453475E+02  0.20250332973E+02  0.14003976796E+03  0.14618295872E+03  0.00000000000E+00 0. -1.
         22    1    4    4    0    0  0.12396598263E+02 -0.46070649628E+01  0.41936851542E+02  0.43972721241E+02  0.00000000000E+00 0.  1.
         22    1    4    4    0    0  0.24321855212E+02 -0.15643268011E+02  0.49388597375E+02  0.57231966816E+02  0.00000000000E+00 0.  1.
<mgrwt>
<rscale>  0 0.87583013E+02</rscale>
<asrwt>0</asrwt>
<pdfrwt beam="2">  1        2 0.12324944E-02 0.87583013E+02</pdfrwt>
<pdfrwt beam="1">  1       -2 0.36827148E-01 0.87583013E+02</pdfrwt>
<totfact> 0.63614614E+04</totfact>
</mgrwt>
</event>
<event>
 7    1  0.3960685E-009  0.9034208E+02  0.7818608E-02  0.1302025E+00
         -2   -1    0    0    0  501 -0.00000000000E+00  0.00000000000E+00  0.91868141387E+02  0.91868141422E+02  0.25500000000E-02 0.  1.
          2   -1    0    0  501    0  0.00000000000E+00 -0.00000000000E+00 -0.22210342912E+02  0.22210343058E+02  0.25500000000E-02 0. -1.
         23    2    1    2    0    0  0.00000000000E+00  0.00000000000E+00  0.69657798475E+02  0.11407848448E+03  0.90342081739E+02 0.  0.
    9000005    2    3    3    0    0  0.26012511113E+02 -0.25615849159E+01 -0.88726027374E+01  0.31312329766E+02  0.14782640641E+02 0.  0.
         22    1    3    3    0    0 -0.26012511113E+02  0.25615849159E+01  0.78530401212E+02  0.82766154715E+02  0.00000000000E+00 0.  1.
         22    1    4    4    0    0  0.17211908148E+02  0.15147353287E+01 -0.12096282917E+02  0.21091805650E+02  0.00000000000E+00 0. -1.
         22    1    4    4    0    0  0.88006029656E+01 -0.40763202446E+01  0.32236801792E+01  0.10220524115E+02  0.00000000000E+00 0. -1.
<mgrwt>
<rscale>  0 0.90342082E+02</rscale>
<asrwt>0</asrwt>
<pdfrwt beam="2">  1        2 0.34169759E-02 0.90342082E+02</pdfrwt>
<pdfrwt beam="1">  1       -2 0.14133560E-01 0.90342082E+02</pdfrwt>
<totfact> 0.83703068E+04</totfact>
</mgrwt>
</event>
<event>
 7    1  0.3960685E-009  0.9179172E+02  0.7818608E-02  0.1298570E+00
          2   -1    0    0  501    0  0.00000000000E+00  0.00000000000E+00  0.10501269211E+02  0.10501269520E+02  0.25500000000E-02 0. -1.
         -2   -1    0    0    0  501 -0.00000000000E+00 -0.00000000000E+00 -0.20058814489E+03  0.20058814491E+03  0.25500000000E-02 0.  1.
         23    2    1    2    0    0  0.00000000000E+00  0.00000000000E+00 -0.19008687568E+03  0.21108941443E+03  0.91791723905E+02 0.  0.
    9000005    2    3    3    0    0 -0.36833212891E+02  0.24806777294E+02 -0.11101150430E+03  0.12039776029E+03  0.14142306175E+02 0.  0.
         22    1    3    3    0    0  0.36833212891E+02 -0.24806777294E+02 -0.79075371383E+02  0.90691654142E+02  0.00000000000E+00 0.  1.
         22    1    4    4    0    0 -0.11262698187E+02  0.80041994618E+01 -0.19442923174E+02  0.23852522739E+02  0.00000000000E+00 0.  1.
         22    1    4    4    0    0 -0.25570514704E+02  0.16802577832E+02 -0.91568581123E+02  0.96545237546E+02  0.00000000000E+00 0.  1.
<mgrwt>
<rscale>  0 0.91791724E+02</rscale>
<asrwt>0</asrwt>
<pdfrwt beam="1">  1        2 0.16155800E-02 0.91791724E+02</pdfrwt>
<pdfrwt beam="2">  1       -2 0.30859712E-01 0.91791724E+02</pdfrwt>
<totfact> 0.61179718E+04</totfact>
</mgrwt>
</event>
<event>
 7    1  0.3960685E-009  0.9155567E+02  0.7818608E-02  0.1299128E+00
          2   -1    0    0  501    0  0.00000000000E+00  0.00000000000E+00  0.12005571152E+02  0.12005571422E+02  0.25500000000E-02 0. -1.
         -2   -1    0    0    0  501 -0.00000000000E+00 -0.00000000000E+00 -0.17455312831E+03  0.17455312833E+03  0.25500000000E-02 0.  1.
         23    2    1    2    0    0  0.00000000000E+00  0.00000000000E+00 -0.16254755716E+03  0.18655869976E+03  0.91555666754E+02 0.  0.
    9000005    2    3    3    0    0  0.20933115376E+02  0.84081806696E+01 -0.16237421767E+03  0.16399938088E+03  0.46387007586E+01 0.  0.
         22    1    3    3    0    0 -0.20933115376E+02 -0.84081806696E+01 -0.17333949599E+00  0.22559318875E+02  0.00000000000E+00 0. -1.
         22    1    4    4    0    0  0.19177860551E+01  0.91211211774E+00 -0.27896172260E+02  0.27976888294E+02  0.00000000000E+00 0. -1.
         22    1    4    4    0    0  0.19015329321E+02  0.74960685518E+01 -0.13447804541E+03  0.13602249259E+03  0.00000000000E+00 0. -1.
<mgrwt>
<rscale>  0 0.91555667E+02</rscale>
<asrwt>0</asrwt>
<pdfrwt beam="1">  1        2 0.18470111E-02 0.91555667E+02</pdfrwt>
<pdfrwt beam="2">  1       -2 0.26854326E-01 0.91555667E+02</pdfrwt>
<totfact> 0.65250106E+04</totfact>
</mgrwt>
</event>
<event>
 6    1  0.9218460E-009  0.3110695E+03  0.7818608E-02  0.1079834E+00
         -2   -1    0    0    0  501 -0.00000000000E+00  0.00000000000E+00  0.40138752803E+02  0.40138752884E+02  0.25500000000E-02 0.  1.
          2   -1    0    0  501    0  0.00000000000E+00 -0.00000000000E+00 -0.60268593146E+03  0.60268593147E+03  0.25500000000E-02 0. -1.
    9000005    2    1    2    0    0  0.11960819676E+03  0.59943149805E+02 -0.44437693507E+03  0.46432115943E+03  0.14965852187E+02 0.  0.
         22    1    1    2    0    0 -0.11960819676E+03 -0.59943149805E+02 -0.11817024359E+03  0.17850352492E+03  0.00000000000E+00 0.  1.
         22    1    3    3    0    0  0.10602736756E+03  0.50797222098E+02 -0.37297016240E+03  0.39106125158E+03  0.00000000000E+00 0.  1.
         22    1    3    3    0    0  0.13580829193E+02  0.91459277069E+01 -0.71406772667E+02  0.73259907848E+02  0.00000000000E+00 0.  1.
<mgrwt>
<rscale>  0 0.31106952E+03</rscale>
<asrwt>0</asrwt>
<pdfrwt beam="2">  1        2 0.92720906E-01 0.31106952E+03</pdfrwt>
<pdfrwt beam="1">  1       -2 0.61751932E-02 0.31106952E+03</pdfrwt>
<totfact> 0.71102071E+03</totfact>
</mgrwt>
</event>
<event>
 7    1  0.3960685E-009  0.9120844E+02  0.7818608E-02  0.1299951E+00
         -2   -1    0    0    0  501 -0.00000000000E+00  0.00000000000E+00  0.11459322970E+04  0.11459322970E+04  0.25500000000E-02 0.  1.
          2   -1    0    0  501    0  0.00000000000E+00 -0.00000000000E+00 -0.18148923920E+01  0.18148941834E+01  0.25500000000E-02 0. -1.
         23    2    1    2    0    0  0.00000000000E+00  0.00000000000E+00  0.11441174046E+04  0.11477471912E+04  0.91208439023E+02 0.  0.
    9000005    2    3    3    0    0 -0.32664604734E+01 -0.29325767022E+02  0.10082907357E+04  0.10087523914E+04  0.77787610027E+01 0.  0.
         22    1    3    3    0    0  0.32664604734E+01  0.29325767022E+02  0.13582666894E+03  0.13899479980E+03  0.00000000000E+00 0. -1.
         22    1    4    4    0    0 -0.32833462638E+01 -0.29762369523E+02  0.10015585574E+04  0.10020060494E+04  0.00000000000E+00 0.  1.
         22    1    4    4    0    0  0.16885790409E-01  0.43660250120E+00  0.67321782552E+01  0.67463420409E+01  0.00000000000E+00 0.  1.
<mgrwt>
<rscale>  0 0.91208439E+02</rscale>
<asrwt>0</asrwt>
<pdfrwt beam="2">  1        2 0.27921482E-03 0.91208439E+02</pdfrwt>
<pdfrwt beam="1">  1       -2 0.17629698E+00 0.91208439E+02</pdfrwt>
<totfact> 0.15779961E+04</totfact>
</mgrwt>
</event>
<event>
 7    1  0.3960685E-009  0.9161633E+02  0.7818608E-02  0.1298984E+00
         -2   -1    0    0    0  501 -0.00000000000E+00  0.00000000000E+00  0.97778554651E+01  0.97778557976E+01  0.25500000000E-02 0.  1.
          2   -1    0    0  501    0  0.00000000000E+00 -0.00000000000E+00 -0.21460615250E+03  0.21460615252E+03  0.25500000000E-02 0. -1.
         23    2    1    2    0    0  0.00000000000E+00  0.17763568394E-14 -0.20482829704E+03  0.22438400831E+03  0.91616329987E+02 0.  0.
    9000005    2    3    3    0    0  0.20430522380E+02  0.15105749859E+02 -0.19491359073E+03  0.19710963711E+03  0.14673488550E+02 0.  0.
         22    1    3    3    0    0 -0.20430522380E+02 -0.15105749859E+02 -0.99147063067E+01  0.27274371206E+02  0.00000000000E+00 0.  1.
         22    1    4    4    0    0  0.21920538695E+02  0.10134785299E+02 -0.15964179287E+03  0.16145812436E+03  0.00000000000E+00 0. -1.
         22    1    4    4    0    0 -0.14900163152E+01  0.49709645597E+01 -0.35271797856E+02  0.35651512749E+02  0.00000000000E+00 0. -1.
<mgrwt>
<rscale>  0 0.91616330E+02</rscale>
<asrwt>0</asrwt>
<pdfrwt beam="2">  1        2 0.33016328E-01 0.91616330E+02</pdfrwt>
<pdfrwt beam="1">  1       -2 0.15042856E-02 0.91616330E+02</pdfrwt>
<totfact> 0.15665333E+05</totfact>
</mgrwt>
</event>
<event>
 7    1  0.3960685E-009  0.1116087E+03  0.7818608E-02  0.1257619E+00
          2   -1    0    0  501    0  0.00000000000E+00  0.00000000000E+00  0.64679900124E+03  0.64679900125E+03  0.25500000000E-02 0. -1.
         -2   -1    0    0    0  501 -0.00000000000E+00 -0.00000000000E+00 -0.48146755391E+01  0.48146762144E+01  0.25500000000E-02 0.  1.
         23    2    1    2    0    0  0.00000000000E+00  0.71054273576E-14  0.64198432571E+03  0.65161367746E+03  0.11160873714E+03 0.  0.
    9000005    2    3    3    0    0  0.26642929392E+02  0.45942787883E+02  0.41036848040E+03  0.41398690027E+03  0.12738855548E+02 0.  0.
         22    1    3    3    0    0 -0.26642929392E+02 -0.45942787883E+02  0.23161584530E+03  0.23762677720E+03  0.00000000000E+00 0.  1.
         22    1    4    4    0    0  0.73481488599E+01  0.49673928072E+01  0.49624607888E+02  0.50411030450E+02  0.00000000000E+00 0. -1.
         22    1    4    4    0    0  0.19294780532E+02  0.40975395076E+02  0.36074387251E+03  0.36357586982E+03  0.00000000000E+00 0. -1.
<mgrwt>
<rscale>  0 0.11160874E+03</rscale>
<asrwt>0</asrwt>
<pdfrwt beam="1">  1        2 0.99507481E-01 0.11160874E+03</pdfrwt>
<pdfrwt beam="2">  1       -2 0.74071980E-03 0.11160874E+03</pdfrwt>
<totfact> 0.13562857E+05</totfact>
</mgrwt>
</event>
<event>
 7    1  0.3960685E-009  0.8885680E+02  0.7818608E-02  0.1305644E+00
          2   -1    0    0  501    0  0.00000000000E+00  0.00000000000E+00  0.19174618056E+03  0.19174618057E+03  0.25500000000E-02 0. -1.
         -2   -1    0    0    0  501 -0.00000000000E+00 -0.00000000000E+00 -0.10294247966E+02  0.10294248282E+02  0.25500000000E-02 0.  1.
         23    2    1    2    0    0  0.71054273576E-14 -0.35527136788E-14  0.18145193259E+03  0.20204042886E+03  0.88856800815E+02 0.  0.
    9000005    2    3    3    0    0 -0.39455222945E+02  0.16843755761E+02  0.10235295332E+03  0.11205667895E+03  0.15496629233E+02 0.  0.
         22    1    3    3    0    0  0.39455222945E+02 -0.16843755761E+02  0.79098979272E+02  0.89983749909E+02  0.00000000000E+00 0. -1.
         22    1    4    4    0    0 -0.29513608252E+02  0.50410959024E+01  0.61921871779E+02  0.68780694417E+02  0.00000000000E+00 0. -1.
         22    1    4    4    0    0 -0.99416146937E+01  0.11802659859E+02  0.40431081540E+02  0.43275984529E+02  0.00000000000E+00 0. -1.
<mgrwt>
<rscale>  0 0.88856801E+02</rscale>
<asrwt>0</asrwt>
<pdfrwt beam="1">  1        2 0.29499410E-01 0.88856801E+02</pdfrwt>
<pdfrwt beam="2">  1       -2 0.15837306E-02 0.88856801E+02</pdfrwt>
<totfact> 0.16328241E+05</totfact>
</mgrwt>
</event>
<event>
 7    1  0.3960685E-009  0.9429129E+02  0.7818608E-02  0.1292780E+00
         -2   -1    0    0    0  501 -0.00000000000E+00  0.00000000000E+00  0.75158046757E+02  0.75158046801E+02  0.25500000000E-02 0.  1.
          2   -1    0    0  501    0  0.00000000000E+00 -0.00000000000E+00 -0.29573835496E+02  0.29573835606E+02  0.25500000000E-02 0. -1.
         23    2    1    2    0    0  0.00000000000E+00  0.17763568394E-14  0.45584211261E+02  0.10473188241E+03  0.94291287382E+02 0.  0.
    9000005    2    3    3    0    0  0.22566665731E+02  0.13674539453E+02 -0.18683944807E+02  0.35257834620E+02  0.14063345162E+02 0.  0.
         22    1    3    3    0    0 -0.22566665731E+02 -0.13674539453E+02  0.64268156068E+02  0.69474047786E+02  0.00000000000E+00 0.  1.
         22    1    4    4    0    0  0.96775729119E+01 -0.16533696808E+01 -0.71685898731E+01  0.12156386368E+02  0.00000000000E+00 0. -1.
         22    1    4    4    0    0  0.12889092819E+02  0.15327909133E+02 -0.11515354934E+02  0.23101448252E+02  0.00000000000E+00 0. -1.
<mgrwt>
<rscale>  0 0.94291287E+02</rscale>
<asrwt>0</asrwt>
<pdfrwt beam="2">  1        2 0.45498209E-02 0.94291287E+02</pdfrwt>
<pdfrwt beam="1">  1       -2 0.11562776E-01 0.94291287E+02</pdfrwt>
<totfact> 0.79715990E+04</totfact>
</mgrwt>
</event>
<event>
 7    1  0.3960685E-009  0.9293327E+02  0.7818608E-02  0.1295900E+00
          2   -1    0    0  501    0  0.00000000000E+00  0.00000000000E+00  0.24246678068E+02  0.24246678202E+02  0.25500000000E-02 0. -1.
         -2   -1    0    0    0  501 -0.00000000000E+00 -0.00000000000E+00 -0.89049228563E+02  0.89049228600E+02  0.25500000000E-02 0.  1.
         23    2    1    2    0    0  0.00000000000E+00 -0.71054273576E-14 -0.64802550495E+02  0.11329590680E+03  0.92933266096E+02 0.  0.
    9000005    2    3    3    0    0 -0.56440070608E+01 -0.44075394493E+02 -0.48420705370E+02  0.65937063223E+02  0.53512972744E+01 0.  0.
         22    1    3    3    0    0  0.56440070608E+01  0.44075394493E+02 -0.16381845125E+02  0.47358843579E+02  0.00000000000E+00 0. -1.
         22    1    4    4    0    0 -0.23503832153E+01 -0.34381224255E+02 -0.35904591847E+02  0.49766782077E+02  0.00000000000E+00 0.  1.
         22    1    4    4    0    0 -0.32936238455E+01 -0.96941702376E+01 -0.12516113523E+02  0.16170281146E+02  0.00000000000E+00 0.  1.
<mgrwt>
<rscale>  0 0.92933266E+02</rscale>
<asrwt>0</asrwt>
<pdfrwt beam="1">  1        2 0.37302582E-02 0.92933266E+02</pdfrwt>
<pdfrwt beam="2">  1       -2 0.13699881E-01 0.92933266E+02</pdfrwt>
<totfact> 0.78748091E+04</totfact>
</mgrwt>
</event>
<event>
 7    1  0.3960685E-009  0.9047820E+02  0.7818608E-02  0.1301698E+00
          2   -1    0    0  501    0  0.00000000000E+00  0.00000000000E+00  0.17827455177E+02  0.17827455360E+02  0.25500000000E-02 0. -1.
         -2   -1    0    0    0  501 -0.00000000000E+00 -0.00000000000E+00 -0.11479911703E+03  0.11479911706E+03  0.25500000000E-02 0.  1.
         23    2    1    2    0    0  0.00000000000E+00  0.00000000000E+00 -0.96971661857E+02  0.13262657242E+03  0.90478199083E+02 0.  0.
    9000005    2    3    3    0    0  0.41772520631E+02  0.98752628275E+01 -0.31001741049E+02  0.53921459837E+02  0.10195665111E+02 0.  0.
         22    1    3    3    0    0 -0.41772520631E+02 -0.98752628275E+01 -0.65969920808E+02  0.78705112586E+02  0.00000000000E+00 0.  1.
         22    1    4    4    0    0  0.22068765037E+02  0.28601253501E+01 -0.21521835463E+02  0.30958037874E+02  0.00000000000E+00 0. -1.
         22    1    4    4    0    0  0.19703755594E+02  0.70151374774E+01 -0.94799055861E+01  0.22963421963E+02  0.00000000000E+00 0. -1.
<mgrwt>
<rscale>  0 0.90478199E+02</rscale>
<asrwt>0</asrwt>
<pdfrwt beam="1">  1        2 0.27426855E-02 0.90478199E+02</pdfrwt>
<pdfrwt beam="2">  1       -2 0.17661402E-01 0.90478199E+02</pdfrwt>
<totfact> 0.77980644E+04</totfact>
</mgrwt>
</event>
<event>
 7    1  0.3960685E-009  0.8871646E+02  0.7818608E-02  0.1305990E+00
         -2   -1    0    0    0  501 -0.00000000000E+00  0.00000000000E+00  0.51651582281E+01  0.51651588576E+01  0.25500000000E-02 0.  1.
          2   -1    0    0  501    0  0.00000000000E+00 -0.00000000000E+00 -0.38094721508E+03  0.38094721509E+03  0.25500000000E-02 0. -1.
         23    2    1    2    0    0  0.00000000000E+00  0.00000000000E+00 -0.37578205685E+03  0.38611237394E+03  0.88716464438E+02 0.  0.
    9000005    2    3    3    0    0 -0.15755328677E+02 -0.40585029851E+02 -0.20598471855E+03  0.21082258210E+03  0.11003718418E+02 0.  0.
         22    1    3    3    0    0  0.15755328677E+02  0.40585029851E+02 -0.16979733830E+03  0.17528979184E+03  0.00000000000E+00 0.  1.
         22    1    4    4    0    0 -0.31967528368E+01 -0.65316508028E+01 -0.18922153410E+02  0.20271398092E+02  0.00000000000E+00 0. -1.
         22    1    4    4    0    0 -0.12558575840E+02 -0.34053379048E+02 -0.18706256514E+03  0.19055118401E+03  0.00000000000E+00 0. -1.
<mgrwt>
<rscale>  0 0.88716464E+02</rscale>
<asrwt>0</asrwt>
<pdfrwt beam="2">  1        2 0.58607242E-01 0.88716464E+02</pdfrwt>
<pdfrwt beam="1">  1       -2 0.79464007E-03 0.88716464E+02</pdfrwt>
<totfact> 0.21090683E+05</totfact>
</mgrwt>
</event>
<event>
 7    1  0.3960685E-009  0.9180821E+02  0.7818608E-02  0.1298531E+00
         -2   -1    0    0    0  501 -0.00000000000E+00  0.00000000000E+00  0.40588544011E+02  0.40588544091E+02  0.25500000000E-02 0.  1.
          2   -1    0    0  501    0  0.00000000000E+00 -0.00000000000E+00 -0.51915808081E+02  0.51915808144E+02  0.25500000000E-02 0. -1.
         23    2    1    2    0    0  0.00000000000E+00  0.00000000000E+00 -0.11327264070E+02  0.92504352234E+02  0.91808214616E+02 0.  0.
    9000005    2    3    3    0    0 -0.39224286023E+02 -0.12073122979E+01  0.15921801662E+02  0.44728691064E+02  0.14392700202E+02 0.  0.
         22    1    3    3    0    0  0.39224286023E+02  0.12073122979E+01 -0.27249065732E+02  0.47775661171E+02  0.00000000000E+00 0.  1.
         22    1    4    4    0    0 -0.22411104267E+02 -0.58652695390E+01  0.37781358138E+01  0.23471968206E+02  0.00000000000E+00 0.  1.
         22    1    4    4    0    0 -0.16813181756E+02  0.46579572411E+01  0.12143665848E+02  0.21256722858E+02  0.00000000000E+00 0.  1.
<mgrwt>
<rscale>  0 0.91808215E+02</rscale>
<asrwt>0</asrwt>
<pdfrwt beam="2">  1        2 0.79870474E-02 0.91808215E+02</pdfrwt>
<pdfrwt beam="1">  1       -2 0.62443914E-02 0.91808215E+02</pdfrwt>
<totfact> 0.10008975E+05</totfact>
</mgrwt>
</event>
<event>
 7    1  0.3960685E-009  0.8879498E+02  0.7818608E-02  0.1305796E+00
         -2   -1    0    0    0  501 -0.00000000000E+00  0.00000000000E+00  0.38451313192E+02  0.38451313276E+02  0.25500000000E-02 0. -1.
          2   -1    0    0  501    0  0.00000000000E+00 -0.00000000000E+00 -0.51263197143E+02  0.51263197207E+02  0.25500000000E-02 0.  1.
         23    2    1    2    0    0  0.35527136788E-14 -0.35527136788E-14 -0.12811883952E+02  0.89714510483E+02  0.88794983083E+02 0.  0.
    9000005    2    3    3    0    0  0.28607478465E+02 -0.20219066957E+02  0.19553998892E+02  0.42020183095E+02  0.12495536081E+02 0.  0.
         22    1    3    3    0    0 -0.28607478465E+02  0.20219066957E+02 -0.32365882844E+02  0.47694327388E+02  0.00000000000E+00 0.  1.
         22    1    4    4    0    0  0.21820927576E+02 -0.96971792387E+01  0.16810606121E+02  0.29202476669E+02  0.00000000000E+00 0. -1.
         22    1    4    4    0    0  0.67865508886E+01 -0.10521887718E+02  0.27433927709E+01  0.12817706426E+02  0.00000000000E+00 0. -1.
<mgrwt>
<rscale>  0 0.88794983E+02</rscale>
<asrwt>0</asrwt>
<pdfrwt beam="2">  1        2 0.78866458E-02 0.88794983E+02</pdfrwt>
<pdfrwt beam="1">  1       -2 0.59155866E-02 0.88794983E+02</pdfrwt>
<totfact> 0.10967634E+05</totfact>
</mgrwt>
</event>
<event>
 7    1  0.3960685E-009  0.8968794E+02  0.7818608E-02  0.1303609E+00
          2   -1    0    0  501    0  0.00000000000E+00  0.00000000000E+00  0.65315300128E+02  0.65315300178E+02  0.25500000000E-02 0. -1.
         -2   -1    0    0    0  501 -0.00000000000E+00 -0.00000000000E+00 -0.30788826065E+02  0.30788826171E+02  0.25500000000E-02 0.  1.
         23    2    1    2    0    0  0.00000000000E+00  0.00000000000E+00  0.34526474063E+02  0.96104126349E+02  0.89687935031E+02 0.  0.
    9000005    2    3    3    0    0  0.26469574996E+02 -0.18179967442E+02  0.50598981359E+02  0.60194864210E+02  0.56581928263E+01 0.  0.
         22    1    3    3    0    0 -0.26469574996E+02  0.18179967442E+02 -0.16072507296E+02  0.35909262139E+02  0.00000000000E+00 0.  1.
         22    1    4    4    0    0  0.12798806611E+02 -0.62587680884E+01  0.18830825332E+02  0.23613166059E+02  0.00000000000E+00 0. -1.
         22    1    4    4    0    0  0.13670768385E+02 -0.11921199353E+02  0.31768156027E+02  0.36581698151E+02  0.00000000000E+00 0. -1.
<mgrwt>
<rscale>  0 0.89687935E+02</rscale>
<asrwt>0</asrwt>
<pdfrwt beam="1">  1        2 0.10048508E-01 0.89687935E+02</pdfrwt>
<pdfrwt beam="2">  1       -2 0.47367425E-02 0.89687935E+02</pdfrwt>
<totfact> 0.11365641E+05</totfact>
</mgrwt>
</event>
<event>
 7    1  0.3960685E-009  0.9245285E+02  0.7818608E-02  0.1297018E+00
         -2   -1    0    0    0  501 -0.00000000000E+00  0.00000000000E+00  0.21832619037E+02  0.21832619186E+02  0.25500000000E-02 0.  1.
          2   -1    0    0  501    0  0.00000000000E+00 -0.00000000000E+00 -0.97875671486E+02  0.97875671519E+02  0.25500000000E-02 0. -1.
         23    2    1    2    0    0  0.00000000000E+00  0.71054273576E-14 -0.76043052448E+02  0.11970829071E+03  0.92452847647E+02 0.  0.
    9000005    2    3    3    0    0 -0.88810250101E+01 -0.44734478072E+02 -0.42483915274E+02  0.63084428055E+02  0.97322079887E+01 0.  0.
         22    1    3    3    0    0  0.88810250101E+01  0.44734478072E+02 -0.33559137174E+02  0.56623862651E+02  0.00000000000E+00 0.  1.
         22    1    4    4    0    0 -0.95085240639E+01 -0.26261387777E+02 -0.22521899821E+02  0.35879081501E+02  0.00000000000E+00 0.  1.
         22    1    4    4    0    0  0.62749905382E+00 -0.18473090295E+02 -0.19962015454E+02  0.27205346553E+02  0.00000000000E+00 0.  1.
<mgrwt>
<rscale>  0 0.92452848E+02</rscale>
<asrwt>0</asrwt>
<pdfrwt beam="2">  1        2 0.15057795E-01 0.92452848E+02</pdfrwt>
<pdfrwt beam="1">  1       -2 0.33588645E-02 0.92452848E+02</pdfrwt>
<totfact> 0.11729144E+05</totfact>
</mgrwt>
</event>
<event>
 7    1  0.3960685E-009  0.9343229E+02  0.7818608E-02  0.1294747E+00
         -2   -1    0    0    0  501 -0.00000000000E+00  0.00000000000E+00  0.27806729200E+02  0.27806729317E+02  0.25500000000E-02 0. -1.
          2   -1    0    0  501    0  0.00000000000E+00 -0.00000000000E+00 -0.78484533126E+02  0.78484533167E+02  0.25500000000E-02 0.  1.
         23    2    1    2    0    0  0.00000000000E+00  0.35527136788E-14 -0.50677803926E+02  0.10629126248E+03  0.93432289224E+02 0.  0.
    9000005    2    3    3    0    0 -0.24649707750E+02 -0.30620687828E+02 -0.52190670005E+02  0.66952688806E+02  0.14613756793E+02 0.  0.
         22    1    3    3    0    0  0.24649707750E+02  0.30620687828E+02  0.15128660792E+01  0.39338573678E+02  0.00000000000E+00 0. -1.
         22    1    4    4    0    0 -0.35113593845E+01 -0.23975906091E+01 -0.36324167372E+00  0.42673211702E+01  0.00000000000E+00 0.  1.
         22    1    4    4    0    0 -0.21138348366E+02 -0.28223097219E+02 -0.51827428331E+02  0.62685367636E+02  0.00000000000E+00 0.  1.
<mgrwt>
<rscale>  0 0.93432289E+02</rscale>
<asrwt>0</asrwt>
<pdfrwt beam="2">  1        2 0.12074543E-01 0.93432289E+02</pdfrwt>
<pdfrwt beam="1">  1       -2 0.42779584E-02 0.93432289E+02</pdfrwt>
<totfact> 0.10670279E+05</totfact>
</mgrwt>
</event>
<event>
 7    1  0.3960685E-009  0.9061348E+02  0.7818608E-02  0.1301373E+00
         -2   -1    0    0    0  501 -0.00000000000E+00  0.00000000000E+00  0.17292269676E+01  0.17292288477E+01  0.25500000000E-02 0.  1.
          2   -1    0    0  501    0  0.00000000000E+00 -0.00000000000E+00 -0.11870620607E+04  0.11870620607E+04  0.25500000000E-02 0. -1.
         23    2    1    2    0    0  0.44408920985E-15  0.35527136788E-14 -0.11853328337E+04  0.11887912895E+04  0.90613483471E+02 0.  0.
    9000005    2    3    3    0    0 -0.21164793163E+01 -0.24391788863E+02 -0.10927080377E+04  0.10929852788E+04  0.25544579589E+01 0.  0.
         22    1    3    3    0    0  0.21164793163E+01  0.24391788863E+02 -0.92624796063E+02  0.95806010742E+02  0.00000000000E+00 0.  1.
         22    1    4    4    0    0 -0.23711880666E+01 -0.24017558856E+02 -0.10786153373E+04  0.10788853098E+04  0.00000000000E+00 0.  1.
         22    1    4    4    0    0  0.25470875034E+00 -0.37423000701E+00 -0.14092700327E+02  0.14099969048E+02  0.00000000000E+00 0.  1.
<mgrwt>
<rscale>  0 0.90613483E+02</rscale>
<asrwt>0</asrwt>
<pdfrwt beam="2">  1        2 0.18262428E+00 0.90613483E+02</pdfrwt>
<pdfrwt beam="1">  1       -2 0.26603601E-03 0.90613483E+02</pdfrwt>
<totfact> 0.25306177E+05</totfact>
</mgrwt>
</event>
<event>
 7    1  0.3960685E-009  0.8838855E+02  0.7818608E-02  0.1306802E+00
         -2   -1    0    0    0  501 -0.00000000000E+00  0.00000000000E+00  0.20500793618E+02  0.20500793777E+02  0.25500000000E-02 0.  1.
          2   -1    0    0  501    0  0.00000000000E+00 -0.00000000000E+00 -0.95271129943E+02  0.95271129977E+02  0.25500000000E-02 0. -1.
         23    2    1    2    0    0  0.35527136788E-14  0.35527136788E-14 -0.74770336324E+02  0.11577192375E+03  0.88388546405E+02 0.  0.
    9000005    2    3    3    0    0  0.18228665595E+02  0.16217616222E+02  0.75967123289E+01  0.29867174006E+02  0.15461006423E+02 0.  0.
         22    1    3    3    0    0 -0.18228665595E+02 -0.16217616222E+02 -0.82367048653E+02  0.85904749747E+02  0.00000000000E+00 0. -1.
         22    1    4    4    0    0  0.36131033322E+01  0.11601969213E+02  0.79760971325E+01  0.14535416430E+02  0.00000000000E+00 0.  1.
         22    1    4    4    0    0  0.14615562263E+02  0.46156470088E+01 -0.37938480357E+00  0.15331757577E+02  0.00000000000E+00 0.  1.
<mgrwt>
<rscale>  0 0.88388546E+02</rscale>
<asrwt>0</asrwt>
<pdfrwt beam="2">  1        2 0.14657097E-01 0.88388546E+02</pdfrwt>
<pdfrwt beam="1">  1       -2 0.31539683E-02 0.88388546E+02</pdfrwt>
<totfact> 0.13167022E+05</totfact>
</mgrwt>
</event>
<event>
 7    1  0.3960685E-009  0.8849877E+02  0.7818608E-02  0.1306528E+00
         -2   -1    0    0    0  501 -0.00000000000E+00  0.00000000000E+00  0.97196843207E+01  0.97196846552E+01  0.25500000000E-02 0. -1.
          2   -1    0    0  501    0  0.00000000000E+00 -0.00000000000E+00 -0.20144770768E+03  0.20144770769E+03  0.25500000000E-02 0.  1.
         23    2    1    2    0    0  0.00000000000E+00  0.00000000000E+00 -0.19172802336E+03  0.21116739235E+03  0.88498772032E+02 0.  0.
    9000005    2    3    3    0    0  0.87222276103E+01  0.15933478824E+02 -0.19148526697E+03  0.19300116179E+03  0.15902452199E+02 0.  0.
         22    1    3    3    0    0 -0.87222276103E+01 -0.15933478824E+02 -0.24275638838E+00  0.18166230555E+02  0.00000000000E+00 0. -1.
         22    1    4    4    0    0 -0.31674646396E+01  0.10462189960E+02 -0.96913346339E+02  0.97527877808E+02  0.00000000000E+00 0. -1.
         22    1    4    4    0    0  0.11889692250E+02  0.54712888637E+01 -0.94571920629E+02  0.95473283986E+02  0.00000000000E+00 0. -1.
<mgrwt>
<rscale>  0 0.88498772E+02</rscale>
<asrwt>0</asrwt>
<pdfrwt beam="2">  1        2 0.30991952E-01 0.88498772E+02</pdfrwt>
<pdfrwt beam="1">  1       -2 0.14953362E-02 0.88498772E+02</pdfrwt>
<totfact> 0.16800954E+05</totfact>
</mgrwt>
</event>
<event>
 7    1  0.3960685E-009  0.9058818E+02  0.7818608E-02  0.1301434E+00
          2   -1    0    0  501    0  0.00000000000E+00  0.00000000000E+00  0.37599968930E+02  0.37599969017E+02  0.25500000000E-02 0.  1.
         -2   -1    0    0    0  501 -0.00000000000E+00 -0.00000000000E+00 -0.54562670994E+02  0.54562671054E+02  0.25500000000E-02 0. -1.
         23    2    1    2    0    0  0.00000000000E+00  0.00000000000E+00 -0.16962702064E+02  0.92162640071E+02  0.90588183354E+02 0.  0.
    9000005    2    3    3    0    0 -0.80234795906E+01  0.30447299370E+02 -0.40457215307E+02  0.52876428543E+02  0.12950527458E+02 0.  0.
         22    1    3    3    0    0  0.80234795906E+01 -0.30447299370E+02  0.23494513243E+02  0.39286211527E+02  0.00000000000E+00 0.  1.
         22    1    4    4    0    0 -0.45742285220E+01  0.10203759940E+02 -0.58116592633E+01  0.12602208810E+02  0.00000000000E+00 0.  1.
         22    1    4    4    0    0 -0.34492510686E+01  0.20243539429E+02 -0.34645556043E+02  0.40274219733E+02  0.00000000000E+00 0.  1.
<mgrwt>
<rscale>  0 0.90588183E+02</rscale>
<asrwt>0</asrwt>
<pdfrwt beam="1">  1        2 0.57846106E-02 0.90588183E+02</pdfrwt>
<pdfrwt beam="2">  1       -2 0.83942571E-02 0.90588183E+02</pdfrwt>
<totfact> 0.95655682E+04</totfact>
</mgrwt>
</event>
<event>
 7    1  0.3960685E-009  0.9085797E+02  0.7818608E-02  0.1300787E+00
         -2   -1    0    0    0  501 -0.00000000000E+00  0.00000000000E+00  0.14200165025E+02  0.14200165254E+02  0.25500000000E-02 0.  1.
          2   -1    0    0  501    0  0.00000000000E+00 -0.00000000000E+00 -0.14533583322E+03  0.14533583324E+03  0.25500000000E-02 0. -1.
         23    2    1    2    0    0  0.00000000000E+00  0.00000000000E+00 -0.13113566820E+03  0.15953599850E+03  0.90857973472E+02 0.  0.
    9000005    2    3    3    0    0  0.10052894410E+02 -0.29285720528E+02 -0.90534999991E+01  0.33588509819E+02  0.93545719703E+01 0.  0.
         22    1    3    3    0    0 -0.10052894410E+02  0.29285720528E+02 -0.12208216820E+03  0.12594748868E+03  0.00000000000E+00 0. -1.
         22    1    4    4    0    0  0.89083844308E+01 -0.13508176346E+02 -0.70237567514E+01  0.17639821436E+02  0.00000000000E+00 0.  1.
         22    1    4    4    0    0  0.11445099791E+01 -0.15777544182E+02 -0.20297432476E+01  0.15948688383E+02  0.00000000000E+00 0.  1.
<mgrwt>
<rscale>  0 0.90857973E+02</rscale>
<asrwt>0</asrwt>
<pdfrwt beam="2">  1        2 0.22359358E-01 0.90857973E+02</pdfrwt>
<pdfrwt beam="1">  1       -2 0.21846409E-02 0.90857973E+02</pdfrwt>
<totfact> 0.13964349E+05</totfact>
</mgrwt>
</event>
<event>
 7    1  0.3960685E-009  0.9045975E+02  0.7818608E-02  0.1301742E+00
         -2   -1    0    0    0  501 -0.00000000000E+00  0.00000000000E+00  0.62917673028E+02  0.62917673080E+02  0.25500000000E-02 0.  1.
          2   -1    0    0  501    0  0.00000000000E+00 -0.00000000000E+00 -0.32514574847E+02  0.32514574947E+02  0.25500000000E-02 0. -1.
         23    2    1    2    0    0  0.00000000000E+00  0.00000000000E+00  0.30403098180E+02  0.95432248027E+02  0.90459745658E+02 0.  0.
    9000005    2    3    3    0    0 -0.39063471338E+02  0.46461840865E+01 -0.52960441678E+01  0.42310024956E+02  0.14647467646E+02 0.  0.
         22    1    3    3    0    0  0.39063471338E+02 -0.46461840865E+01  0.35699142348E+02  0.53122223070E+02  0.00000000000E+00 0.  1.
         22    1    4    4    0    0 -0.37372055744E+02  0.41906295320E+01 -0.94337972621E+00  0.37618105903E+02  0.00000000000E+00 0.  1.
         22    1    4    4    0    0 -0.16914155939E+01  0.45555455441E+00 -0.43526644416E+01  0.46919190535E+01  0.00000000000E+00 0.  1.
<mgrwt>
<rscale>  0 0.90459746E+02</rscale>
<asrwt>0</asrwt>
<pdfrwt beam="2">  1        2 0.50022424E-02 0.90459746E+02</pdfrwt>
<pdfrwt beam="1">  1       -2 0.96796419E-02 0.90459746E+02</pdfrwt>
<totfact> 0.92498551E+04</totfact>
</mgrwt>
</event>
<event>
 7    1  0.3960685E-009  0.9572399E+02  0.7818608E-02  0.1289554E+00
         -2   -1    0    0    0  501 -0.00000000000E+00  0.00000000000E+00  0.33798225427E+02  0.33798225523E+02  0.25500000000E-02 0. -1.
          2   -1    0    0  501    0  0.00000000000E+00 -0.00000000000E+00 -0.67777832843E+02  0.67777832891E+02  0.25500000000E-02 0.  1.
         23    2    1    2    0    0  0.00000000000E+00  0.00000000000E+00 -0.33979607416E+02  0.10157605841E+03  0.95723988231E+02 0.  0.
    9000005    2    3    3    0    0  0.42985561602E+02  0.53676749133E+01  0.43536549866E+01  0.43731357303E+02  0.41117951790E+01 0.  0.
         22    1    3    3    0    0 -0.42985561602E+02 -0.53676749133E+01 -0.38333262403E+02  0.57844701112E+02  0.00000000000E+00 0.  1.
         22    1    4    4    0    0  0.33385007671E+02  0.24293610695E+01  0.32454590019E+01  0.33630247345E+02  0.00000000000E+00 0.  1.
         22    1    4    4    0    0  0.96005539316E+01  0.29383138439E+01  0.11081959847E+01  0.10101109958E+02  0.00000000000E+00 0.  1.
<mgrwt>
<rscale>  0 0.95723988E+02</rscale>
<asrwt>0</asrwt>
<pdfrwt beam="2">  1        2 0.10427359E-01 0.95723988E+02</pdfrwt>
<pdfrwt beam="1">  1       -2 0.51997270E-02 0.95723988E+02</pdfrwt>
<totfact> 0.95595240E+04</totfact>
</mgrwt>
</event>
<event>
 7    1  0.3960685E-009  0.9237692E+02  0.7818608E-02  0.1297196E+00
         -2   -1    0    0    0  501 -0.00000000000E+00  0.00000000000E+00  0.12346508471E+02  0.12346508735E+02  0.25500000000E-02 0.  1.
          2   -1    0    0  501    0  0.00000000000E+00 -0.00000000000E+00 -0.17279166227E+03  0.17279166229E+03  0.25500000000E-02 0. -1.
         23    2    1    2    0    0  0.00000000000E+00  0.00000000000E+00 -0.16044515380E+03  0.18513817102E+03  0.92376918072E+02 0.  0.
    9000005    2    3    3    0    0 -0.40563397278E+02 -0.70792370117E+01 -0.11821693563E+03  0.12615743515E+03  0.15650871423E+02 0.  0.
         22    1    3    3    0    0  0.40563397278E+02  0.70792370117E+01 -0.42228218163E+02  0.58980735877E+02  0.00000000000E+00 0.  1.
         22    1    4    4    0    0 -0.44094785945E+00  0.27107288581E+01 -0.69380195951E+01  0.74618095566E+01  0.00000000000E+00 0.  1.
         22    1    4    4    0    0 -0.40122449418E+02 -0.97899658698E+01 -0.11127891604E+03  0.11869562559E+03  0.00000000000E+00 0.  1.
<mgrwt>
<rscale>  0 0.92376918E+02</rscale>
<asrwt>0</asrwt>
<pdfrwt beam="2">  1        2 0.26583331E-01 0.92376918E+02</pdfrwt>
<pdfrwt beam="1">  1       -2 0.18994630E-02 0.92376918E+02</pdfrwt>
<totfact> 0.14170753E+05</totfact>
</mgrwt>
</event>
<event>
 7    1  0.3960685E-009  0.8508888E+02  0.7818608E-02  0.1315200E+00
         -2   -1    0    0    0  501 -0.00000000000E+00  0.00000000000E+00  0.10183739803E+02  0.10183740123E+02  0.25500000000E-02 0. -1.
          2   -1    0    0  501    0  0.00000000000E+00 -0.00000000000E+00 -0.17773717729E+03  0.17773717731E+03  0.25500000000E-02 0.  1.
         23    2    1    2    0    0  0.00000000000E+00 -0.35527136788E-14 -0.16755343748E+03  0.18792091743E+03  0.85088875856E+02 0.  0.
    9000005    2    3    3    0    0  0.15558865479E+02  0.30052653751E+02 -0.13856836278E+03  0.14336337207E+03  0.14374456390E+02 0.  0.
         22    1    3    3    0    0 -0.15558865479E+02 -0.30052653751E+02 -0.28985074708E+02  0.44557545358E+02  0.00000000000E+00 0. -1.
         22    1    4    4    0    0  0.18274348455E+02  0.24553547635E+02 -0.11331848387E+03  0.11737933080E+03  0.00000000000E+00 0. -1.
         22    1    4    4    0    0 -0.27154829762E+01  0.54991061164E+01 -0.25249878908E+02  0.25984041270E+02  0.00000000000E+00 0. -1.
<mgrwt>
<rscale>  0 0.85088876E+02</rscale>
<asrwt>0</asrwt>
<pdfrwt beam="2">  1        2 0.27344179E-01 0.85088876E+02</pdfrwt>
<pdfrwt beam="1">  1       -2 0.15667294E-02 0.85088876E+02</pdfrwt>
<totfact> 0.17854186E+05</totfact>
</mgrwt>
</event>
<event>
 7    1  0.3960685E-009  0.9078036E+02  0.7818608E-02  0.1300973E+00
         -2   -1    0    0    0  501 -0.00000000000E+00  0.00000000000E+00  0.12772812928E+03  0.12772812930E+03  0.25500000000E-02 0.  1.
          2   -1    0    0  501    0  0.00000000000E+00 -0.00000000000E+00 -0.16130106650E+02  0.16130106852E+02  0.25500000000E-02 0. -1.
         23    2    1    2    0    0  0.35527136788E-14  0.00000000000E+00  0.11159802263E+03  0.14385823616E+03  0.90780358312E+02 0.  0.
    9000005    2    3    3    0    0  0.22705524814E+02 -0.32380101683E+02  0.89315483541E+02  0.98465247818E+02  0.12415215891E+02 0.  0.
         22    1    3    3    0    0 -0.22705524814E+02  0.32380101683E+02  0.22282539088E+02  0.45392988338E+02  0.00000000000E+00 0. -1.
         22    1    4    4    0    0  0.29280109026E+01 -0.26365055587E+01  0.21093097239E+02  0.21457939336E+02  0.00000000000E+00 0.  1.
         22    1    4    4    0    0  0.19777513912E+02 -0.29743596124E+02  0.68222386302E+02  0.77007308482E+02  0.00000000000E+00 0.  1.
<mgrwt>
<rscale>  0 0.90780358E+02</rscale>
<asrwt>0</asrwt>
<pdfrwt beam="2">  1        2 0.24815549E-02 0.90780358E+02</pdfrwt>
<pdfrwt beam="1">  1       -2 0.19650482E-01 0.90780358E+02</pdfrwt>
<totfact> 0.74698429E+04</totfact>
</mgrwt>
</event>
<event>
 7    1  0.3960685E-009  0.9140174E+02  0.7818608E-02  0.1299492E+00
          2   -1    0    0  501    0  0.00000000000E+00  0.00000000000E+00  0.29363445419E+03  0.29363445420E+03  0.25500000000E-02 0.  1.
         -2   -1    0    0    0  501 -0.00000000000E+00 -0.00000000000E+00 -0.71128210845E+01  0.71128215416E+01  0.25500000000E-02 0. -1.
         23    2    1    2    0    0  0.00000000000E+00  0.00000000000E+00  0.28652163311E+03  0.30074727574E+03  0.91401737561E+02 0.  0.
    9000005    2    3    3    0    0  0.16128664188E+02  0.33964015530E+01  0.28348395203E+03  0.28398729787E+03  0.37369694217E+01 0.  0.
         22    1    3    3    0    0 -0.16128664188E+02 -0.33964015530E+01  0.30376810748E+01  0.16759977873E+02  0.00000000000E+00 0. -1.
         22    1    4    4    0    0  0.16763422670E+01  0.77887825656E+00  0.55471425932E+02  0.55502214998E+02  0.00000000000E+00 0.  1.
         22    1    4    4    0    0  0.14452321921E+02  0.26175232965E+01  0.22801252610E+03  0.22848508287E+03  0.00000000000E+00 0.  1.
<mgrwt>
<rscale>  0 0.91401738E+02</rscale>
<asrwt>0</asrwt>
<pdfrwt beam="1">  1        2 0.45174534E-01 0.91401738E+02</pdfrwt>
<pdfrwt beam="2">  1       -2 0.10942801E-02 0.91401738E+02</pdfrwt>
<totfact> 0.17706117E+05</totfact>
</mgrwt>
</event>
<event>
 7    1  0.3960685E-009  0.9176550E+02  0.7818608E-02  0.1298632E+00
          2   -1    0    0  501    0  0.00000000000E+00  0.00000000000E+00  0.28276163852E+03  0.28276163853E+03  0.25500000000E-02 0. -1.
         -2   -1    0    0    0  501 -0.00000000000E+00 -0.00000000000E+00 -0.74452348159E+01  0.74452352526E+01  0.25500000000E-02 0.  1.
         23    2    1    2    0    0  0.35527136788E-14  0.00000000000E+00  0.27531640370E+03  0.29020687378E+03  0.91765502466E+02 0.  0.
    9000005    2    3    3    0    0 -0.31472438866E+02  0.30148390709E+02  0.17289648401E+03  0.17889973197E+03  0.14576695178E+02 0.  0.
         22    1    3    3    0    0  0.31472438866E+02 -0.30148390709E+02  0.10241991969E+03  0.11130714181E+03  0.00000000000E+00 0.  1.
         22    1    4    4    0    0 -0.16746847107E+02  0.19347681673E+02  0.12601857632E+03  0.12859032332E+03  0.00000000000E+00 0. -1.
         22    1    4    4    0    0 -0.14725591759E+02  0.10800709036E+02  0.46877907692E+02  0.50309408642E+02  0.00000000000E+00 0. -1.
<mgrwt>
<rscale>  0 0.91765502E+02</rscale>
<asrwt>0</asrwt>
<pdfrwt beam="1">  1        2 0.43501784E-01 0.91765502E+02</pdfrwt>
<pdfrwt beam="2">  1       -2 0.11454209E-02 0.91765502E+02</pdfrwt>
<totfact> 0.17274117E+05</totfact>
</mgrwt>
</event>
<event>
 7    1  0.3960685E-009  0.8966300E+02  0.7818608E-02  0.1303670E+00
         -2   -1    0    0    0  501 -0.00000000000E+00  0.00000000000E+00  0.77766631005E+02  0.77766631047E+02  0.25500000000E-02 0. -1.
          2   -1    0    0  501    0  0.00000000000E+00 -0.00000000000E+00 -0.25844805982E+02  0.25844806108E+02  0.25500000000E-02 0.  1.
         23    2    1    2    0    0  0.00000000000E+00 -0.35527136788E-14  0.51921825023E+02  0.10361143715E+03  0.89663002378E+02 0.  0.
    9000005    2    3    3    0    0 -0.33951283378E+02  0.25578205894E+02  0.41713240887E+02  0.59894741832E+02  0.63601394742E+01 0.  0.
         22    1    3    3    0    0  0.33951283378E+02 -0.25578205894E+02  0.10208584137E+02  0.43716695322E+02  0.00000000000E+00 0.  1.
         22    1    4    4    0    0 -0.28296120968E+02  0.18292004604E+02  0.34057982302E+02  0.47908392300E+02  0.00000000000E+00 0.  1.
         22    1    4    4    0    0 -0.56551624104E+01  0.72862012895E+01  0.76552585843E+01  0.11986349532E+02  0.00000000000E+00 0.  1.
<mgrwt>
<rscale>  0 0.89663002E+02</rscale>
<asrwt>0</asrwt>
<pdfrwt beam="2">  1        2 0.39761241E-02 0.89663002E+02</pdfrwt>
<pdfrwt beam="1">  1       -2 0.11964097E-01 0.89663002E+02</pdfrwt>
<totfact> 0.89336147E+04</totfact>
</mgrwt>
</event>
<event>
 7    1  0.3960685E-009  0.9391893E+02  0.7818608E-02  0.1293630E+00
          2   -1    0    0  501    0  0.00000000000E+00  0.00000000000E+00  0.26577294245E+03  0.26577294246E+03  0.25500000000E-02 0. -1.
         -2   -1    0    0    0  501 -0.00000000000E+00 -0.00000000000E+00 -0.82972757192E+01  0.82972761111E+01  0.25500000000E-02 0.  1.
         23    2    1    2    0    0  0.00000000000E+00  0.00000000000E+00  0.25747566673E+03  0.27407021857E+03  0.93918931799E+02 0.  0.
    9000005    2    3    3    0    0  0.17614274241E+02 -0.32722516460E+02  0.21017563207E+03  0.21391775379E+03  0.14352119355E+02 0.  0.
         22    1    3    3    0    0 -0.17614274241E+02  0.32722516460E+02  0.47300034657E+02  0.60152464779E+02  0.00000000000E+00 0.  1.
         22    1    4    4    0    0  0.42296830381E+01 -0.89860460615E+01  0.27869660948E+02  0.29586436821E+02  0.00000000000E+00 0.  1.
         22    1    4    4    0    0  0.13384591203E+02 -0.23736470399E+02  0.18230597112E+03  0.18433131697E+03  0.00000000000E+00 0.  1.
<mgrwt>
<rscale>  0 0.93918932E+02</rscale>
<asrwt>0</asrwt>
<pdfrwt beam="1">  1        2 0.40888147E-01 0.93918932E+02</pdfrwt>
<pdfrwt beam="2">  1       -2 0.12765039E-02 0.93918932E+02</pdfrwt>
<totfact> 0.15860953E+05</totfact>
</mgrwt>
</event>
<event>
 7    1  0.3960685E-009  0.7710653E+02  0.7818608E-02  0.1337469E+00
         -2   -1    0    0    0  501 -0.00000000000E+00  0.00000000000E+00  0.37460279796E+02  0.37460279882E+02  0.25500000000E-02 0.  1.
          2   -1    0    0  501    0  0.00000000000E+00 -0.00000000000E+00 -0.39678137443E+02  0.39678137525E+02  0.25500000000E-02 0. -1.
         23    2    1    2    0    0  0.35527136788E-14  0.00000000000E+00 -0.22178576471E+01  0.77138417407E+02  0.77106527269E+02 0.  0.
    9000005    2    3    3    0    0  0.31286540697E+02 -0.18286238428E+02 -0.12429010125E+02  0.39488692580E+02  0.95730039339E+01 0.  0.
         22    1    3    3    0    0 -0.31286540697E+02  0.18286238428E+02  0.10211152478E+02  0.37649724827E+02  0.00000000000E+00 0. -1.
         22    1    4    4    0    0  0.28484662913E+02 -0.18312093366E+02 -0.13546424856E+02  0.36472104561E+02  0.00000000000E+00 0. -1.
         22    1    4    4    0    0  0.28018777837E+01  0.25854937841E-01  0.11174147310E+01  0.30165880186E+01  0.00000000000E+00 0. -1.
<mgrwt>
<rscale>  0 0.77106527E+02</rscale>
<asrwt>0</asrwt>
<pdfrwt beam="2">  1        2 0.61043288E-02 0.77106527E+02</pdfrwt>
<pdfrwt beam="1">  1       -2 0.57631200E-02 0.77106527E+02</pdfrwt>
<totfact> 0.15339719E+05</totfact>
</mgrwt>
</event>
<event>
 7    1  0.3960685E-009  0.9761113E+02  0.7818608E-02  0.1285401E+00
         -2   -1    0    0    0  501 -0.00000000000E+00  0.00000000000E+00  0.38244524269E+01  0.38244532771E+01  0.25500000000E-02 0.  1.
          2   -1    0    0  501    0  0.00000000000E+00 -0.00000000000E+00 -0.62282980625E+03  0.62282980626E+03  0.25500000000E-02 0. -1.
         23    2    1    2    0    0  0.00000000000E+00  0.00000000000E+00 -0.61900535382E+03  0.62665425953E+03  0.97611131170E+02 0.  0.
    9000005    2    3    3    0    0  0.36956655333E+02 -0.13329889179E+02 -0.49348260504E+03  0.49512692100E+03  0.90612418887E+01 0.  0.
         22    1    3    3    0    0 -0.36956655333E+02  0.13329889179E+02 -0.12552274878E+03  0.13152733853E+03  0.00000000000E+00 0.  1.
         22    1    4    4    0    0  0.29220929753E+02 -0.69662181155E+01 -0.39293217229E+03  0.39407877759E+03  0.00000000000E+00 0.  1.
         22    1    4    4    0    0  0.77357255802E+01 -0.63636710639E+01 -0.10055043275E+03  0.10104814341E+03  0.00000000000E+00 0.  1.
<mgrwt>
<rscale>  0 0.97611131E+02</rscale>
<asrwt>0</asrwt>
<pdfrwt beam="2">  1        2 0.95819890E-01 0.97611131E+02</pdfrwt>
<pdfrwt beam="1">  1       -2 0.58837786E-03 0.97611131E+02</pdfrwt>
<totfact> 0.19216450E+05</totfact>
</mgrwt>
</event>
<event>
 7    1  0.3960685E-009  0.8503544E+02  0.7818608E-02  0.1315340E+00
          2   -1    0    0  501    0  0.00000000000E+00  0.00000000000E+00  0.37954564567E+03  0.37954564568E+03  0.25500000000E-02 0. -1.
         -2   -1    0    0    0  501 -0.00000000000E+00 -0.00000000000E+00 -0.47629484240E+01  0.47629491066E+01  0.25500000000E-02 0.  1.
         23    2    1    2    0    0  0.00000000000E+00  0.00000000000E+00  0.37478269725E+03  0.38430859479E+03  0.85035438911E+02 0.  0.
    9000005    2    3    3    0    0 -0.22342520971E+01  0.41040097467E+02  0.15841031727E+03  0.16406716295E+03  0.11615672891E+02 0.  0.
         22    1    3    3    0    0  0.22342520971E+01 -0.41040097467E+02  0.21637237998E+03  0.22024143184E+03  0.00000000000E+00 0. -1.
         22    1    4    4    0    0 -0.47389432323E+01  0.38927457734E+02  0.14102394733E+03  0.14637471868E+03  0.00000000000E+00 0.  1.
         22    1    4    4    0    0  0.25046911352E+01  0.21126397330E+01  0.17386369939E+02  0.17692444262E+02  0.00000000000E+00 0.  1.
<mgrwt>
<rscale>  0 0.85035439E+02</rscale>
<asrwt>0</asrwt>
<pdfrwt beam="1">  1        2 0.58391636E-01 0.85035439E+02</pdfrwt>
<pdfrwt beam="2">  1       -2 0.73276137E-03 0.85035439E+02</pdfrwt>
<totfact> 0.23558205E+05</totfact>
</mgrwt>
</event>
<event>
 7    1  0.3960685E-009  0.8867182E+02  0.7818608E-02  0.1306100E+00
         -2   -1    0    0    0  501 -0.00000000000E+00  0.00000000000E+00  0.43858296626E+02  0.43858296700E+02  0.25500000000E-02 0.  1.
          2   -1    0    0  501    0  0.00000000000E+00 -0.00000000000E+00 -0.44818721370E+02  0.44818721442E+02  0.25500000000E-02 0. -1.
         23    2    1    2    0    0  0.00000000000E+00  0.35527136788E-14 -0.96042474334E+00  0.88677018142E+02  0.88671817005E+02 0.  0.
    9000005    2    3    3    0    0  0.13946327807E+02  0.18087325328E+02 -0.38291037143E+02  0.44913722803E+02  0.54210306824E+01 0.  0.
         22    1    3    3    0    0 -0.13946327807E+02 -0.18087325328E+02  0.37330612400E+02  0.43763295340E+02  0.00000000000E+00 0.  1.
         22    1    4    4    0    0  0.53184483791E+01  0.35937068015E+01 -0.13233130561E+02  0.14707697514E+02  0.00000000000E+00 0.  1.
         22    1    4    4    0    0  0.86278794277E+01  0.14493618527E+02 -0.25057906583E+02  0.30206025288E+02  0.00000000000E+00 0.  1.
<mgrwt>
<rscale>  0 0.88671817E+02</rscale>
<asrwt>0</asrwt>
<pdfrwt beam="2">  1        2 0.68951880E-02 0.88671817E+02</pdfrwt>
<pdfrwt beam="1">  1       -2 0.67474302E-02 0.88671817E+02</pdfrwt>
<totfact> 0.10639490E+05</totfact>
</mgrwt>
</event>
<event>
 7    1  0.3960685E-009  0.9297446E+02  0.7818608E-02  0.1295804E+00
         -2   -1    0    0    0  501 -0.00000000000E+00  0.00000000000E+00  0.23648846309E+02  0.23648846446E+02  0.25500000000E-02 0.  1.
          2   -1    0    0  501    0  0.00000000000E+00 -0.00000000000E+00 -0.91381310526E+02  0.91381310562E+02  0.25500000000E-02 0. -1.
         23    2    1    2    0    0  0.00000000000E+00  0.00000000000E+00 -0.67732464217E+02  0.11503015701E+03  0.92974460539E+02 0.  0.
    9000005    2    3    3    0    0  0.19410173890E+02 -0.37710692146E+02 -0.15348394460E+02  0.47628807490E+02  0.15299638488E+02 0.  0.
         22    1    3    3    0    0 -0.19410173890E+02  0.37710692146E+02 -0.52384069758E+02  0.67401349519E+02  0.00000000000E+00 0. -1.
         22    1    4    4    0    0  0.53352494115E+01 -0.44125655435E+01  0.24370732079E+01  0.73399555025E+01  0.00000000000E+00 0.  1.
         22    1    4    4    0    0  0.14074924479E+02 -0.33298126602E+02 -0.17785467667E+02  0.40288851987E+02  0.00000000000E+00 0.  1.
<mgrwt>
<rscale>  0 0.92974461E+02</rscale>
<asrwt>0</asrwt>
<pdfrwt beam="2">  1        2 0.14058663E-01 0.92974461E+02</pdfrwt>
<pdfrwt beam="1">  1       -2 0.36382841E-02 0.92974461E+02</pdfrwt>
<totfact> 0.11311112E+05</totfact>
</mgrwt>
</event>
<event>
 7    1  0.3960685E-009  0.8967951E+02  0.7818608E-02  0.1303630E+00
         -2   -1    0    0    0  501 -0.00000000000E+00  0.00000000000E+00  0.13639816355E+02  0.13639816593E+02  0.25500000000E-02 0. -1.
          2   -1    0    0  501    0  0.00000000000E+00 -0.00000000000E+00 -0.14740692788E+03  0.14740692791E+03  0.25500000000E-02 0.  1.
         23    2    1    2    0    0 -0.71054273576E-14  0.00000000000E+00 -0.13376711153E+03  0.16104674450E+03  0.89679505948E+02 0.  0.
    9000005    2    3    3    0    0 -0.43030792148E+02 -0.10070980320E+02 -0.79673183804E+02  0.91195282566E+02  0.39610134330E+01 0.  0.
         22    1    3    3    0    0  0.43030792148E+02  0.10070980320E+02 -0.54093927725E+02  0.69851461933E+02  0.00000000000E+00 0.  1.
         22    1    4    4    0    0 -0.25714391118E+02 -0.40632700104E+01 -0.47624102786E+02  0.54275180699E+02  0.00000000000E+00 0.  1.
         22    1    4    4    0    0 -0.17316401030E+02 -0.60077103101E+01 -0.32049081018E+02  0.36920101867E+02  0.00000000000E+00 0.  1.
<mgrwt>
<rscale>  0 0.89679506E+02</rscale>
<asrwt>0</asrwt>
<pdfrwt beam="2">  1        2 0.22677988E-01 0.89679506E+02</pdfrwt>
<pdfrwt beam="1">  1       -2 0.20984334E-02 0.89679506E+02</pdfrwt>
<totfact> 0.14536536E+05</totfact>
</mgrwt>
</event>
<event>
 7    1  0.3960685E-009  0.9090701E+02  0.7818608E-02  0.1300670E+00
         -2   -1    0    0    0  501 -0.00000000000E+00  0.00000000000E+00  0.83780017484E+01  0.83780021364E+01  0.25500000000E-02 0.  1.
          2   -1    0    0  501    0  0.00000000000E+00 -0.00000000000E+00 -0.24660068909E+03  0.24660068910E+03  0.25500000000E-02 0. -1.
         23    2    1    2    0    0 -0.35527136788E-14  0.00000000000E+00 -0.23822268734E+03  0.25497869124E+03  0.90907008651E+02 0.  0.
    9000005    2    3    3    0    0 -0.27583827846E+02  0.21824281932E+02 -0.19976399086E+03  0.20286114932E+03  0.31348076996E+01 0.  0.
         22    1    3    3    0    0  0.27583827846E+02 -0.21824281932E+02 -0.38458696481E+02  0.52117541917E+02  0.00000000000E+00 0.  1.
         22    1    4    4    0    0 -0.27023440945E+01  0.33591606140E+01 -0.26530136995E+02  0.26878147120E+02  0.00000000000E+00 0. -1.
         22    1    4    4    0    0 -0.24881483751E+02  0.18465121318E+02 -0.17323385386E+03  0.17598300220E+03  0.00000000000E+00 0. -1.
<mgrwt>
<rscale>  0 0.90907009E+02</rscale>
<asrwt>0</asrwt>
<pdfrwt beam="2">  1        2 0.37938562E-01 0.90907009E+02</pdfrwt>
<pdfrwt beam="1">  1       -2 0.12889236E-02 0.90907009E+02</pdfrwt>
<totfact> 0.16834359E+05</totfact>
</mgrwt>
</event>
<event>
 7    1  0.3960685E-009  0.9187207E+02  0.7818608E-02  0.1298381E+00
          2   -1    0    0  501    0  0.00000000000E+00  0.00000000000E+00  0.96766072249E+03  0.96766072249E+03  0.25500000000E-02 0.  1.
         -2   -1    0    0    0  501 -0.00000000000E+00 -0.00000000000E+00 -0.21806389671E+01  0.21806404580E+01  0.25500000000E-02 0. -1.
         23    2    1    2    0    0  0.00000000000E+00  0.00000000000E+00  0.96548008352E+03  0.96984136295E+03  0.91872071991E+02 0.  0.
    9000005    2    3    3    0    0 -0.49150464687E+01  0.11062394475E+02  0.94993549993E+03  0.95013937492E+03  0.15519133018E+02 0.  0.
         22    1    3    3    0    0  0.49150464687E+01 -0.11062394475E+02  0.15544583584E+02  0.19701988025E+02  0.00000000000E+00 0. -1.
         22    1    4    4    0    0 -0.50751189282E+00  0.11560713192E+02  0.35742755678E+03  0.35761482911E+03  0.00000000000E+00 0.  1.
         22    1    4    4    0    0 -0.44075345759E+01 -0.49831871751E+00  0.59250794316E+03  0.59252454581E+03  0.00000000000E+00 0.  1.
<mgrwt>
<rscale>  0 0.91872072E+02</rscale>
<asrwt>0</asrwt>
<pdfrwt beam="1">  1        2 0.14887077E+00 0.91872072E+02</pdfrwt>
<pdfrwt beam="2">  1       -2 0.33548327E-03 0.91872072E+02</pdfrwt>
<totfact> 0.24461772E+05</totfact>
</mgrwt>
</event>
<event>
 7    1  0.3960685E-009  0.9045091E+02  0.7818608E-02  0.1301763E+00
         -2   -1    0    0    0  501 -0.00000000000E+00  0.00000000000E+00  0.10165026278E+03  0.10165026281E+03  0.25500000000E-02 0.  1.
          2   -1    0    0  501    0  0.00000000000E+00 -0.00000000000E+00 -0.20121362285E+02  0.20121362446E+02  0.25500000000E-02 0. -1.
         23    2    1    2    0    0  0.00000000000E+00 -0.88817841970E-15  0.81528900492E+02  0.12177162526E+03  0.90450909901E+02 0.  0.
    9000005    2    3    3    0    0 -0.17466751746E+02 -0.70887998095E+01  0.95593442651E+02  0.98252487400E+02  0.12653319846E+02 0.  0.
         22    1    3    3    0    0  0.17466751746E+02  0.70887998095E+01 -0.14064542159E+02  0.23519137855E+02  0.00000000000E+00 0. -1.
         22    1    4    4    0    0 -0.12692847604E+02 -0.68155675505E+01  0.88703333063E+02  0.89865686654E+02  0.00000000000E+00 0. -1.
         22    1    4    4    0    0 -0.47739041412E+01 -0.27323225904E+00  0.68901095886E+01  0.83868007464E+01  0.00000000000E+00 0. -1.
<mgrwt>
<rscale>  0 0.90450910E+02</rscale>
<asrwt>0</asrwt>
<pdfrwt beam="2">  1        2 0.30955942E-02 0.90450910E+02</pdfrwt>
<pdfrwt beam="1">  1       -2 0.15638502E-01 0.90450910E+02</pdfrwt>
<totfact> 0.81012054E+04</totfact>
</mgrwt>
</event>
<event>
 7    1  0.3960685E-009  0.9249439E+02  0.7818608E-02  0.1296921E+00
         -2   -1    0    0    0  501 -0.00000000000E+00  0.00000000000E+00  0.78409913665E+01  0.78409917811E+01  0.25500000000E-02 0.  1.
          2   -1    0    0  501    0  0.00000000000E+00 -0.00000000000E+00 -0.27277199543E+03  0.27277199544E+03  0.25500000000E-02 0. -1.
         23    2    1    2    0    0  0.00000000000E+00  0.88817841970E-15 -0.26493100406E+03  0.28061298722E+03  0.92494387312E+02 0.  0.
    9000005    2    3    3    0    0  0.43790442440E+02 -0.43754816171E+01 -0.97191919565E+02  0.10719687449E+03  0.10399662605E+02 0.  0.
         22    1    3    3    0    0 -0.43790442440E+02  0.43754816171E+01 -0.16773908450E+03  0.17341611274E+03  0.00000000000E+00 0. -1.
         22    1    4    4    0    0  0.67825227031E+01 -0.29325531626E+01 -0.97400258433E+01  0.12225816361E+02  0.00000000000E+00 0. -1.
         22    1    4    4    0    0  0.37007919737E+02 -0.14429284545E+01 -0.87451893722E+02  0.94971058125E+02  0.00000000000E+00 0. -1.
<mgrwt>
<rscale>  0 0.92494387E+02</rscale>
<asrwt>0</asrwt>
<pdfrwt beam="2">  1        2 0.41964915E-01 0.92494387E+02</pdfrwt>
<pdfrwt beam="1">  1       -2 0.12063066E-02 0.92494387E+02</pdfrwt>
<totfact> 0.16686258E+05</totfact>
</mgrwt>
</event>
<event>
 7    1  0.3960685E-009  0.9130832E+02  0.7818608E-02  0.1299714E+00
          2   -1    0    0  501    0  0.00000000000E+00  0.00000000000E+00  0.96929161910E+02  0.96929161944E+02  0.25500000000E-02 0. -1.
         -2   -1    0    0    0  501 -0.00000000000E+00 -0.00000000000E+00 -0.21503357231E+02  0.21503357382E+02  0.25500000000E-02 0.  1.
         23    2    1    2    0    0  0.00000000000E+00  0.00000000000E+00  0.75425804679E+02  0.11843251933E+03  0.91308321758E+02 0.  0.
    9000005    2    3    3    0    0  0.19884292655E+02 -0.44397131899E+01  0.89987212046E+02  0.93389940942E+02  0.14452909386E+02 0.  0.
         22    1    3    3    0    0 -0.19884292655E+02  0.44397131899E+01 -0.14561407367E+02  0.25042578383E+02  0.00000000000E+00 0. -1.
         22    1    4    4    0    0  0.15918779881E+02 -0.34402219032E+01  0.39340230660E+02  0.42578121472E+02  0.00000000000E+00 0. -1.
         22    1    4    4    0    0  0.39655127735E+01 -0.99949128676E+00  0.50646981386E+02  0.50811819470E+02  0.00000000000E+00 0. -1.
<mgrwt>
<rscale>  0 0.91308322E+02</rscale>
<asrwt>0</asrwt>
<pdfrwt beam="1">  1        2 0.14912179E-01 0.91308322E+02</pdfrwt>
<pdfrwt beam="2">  1       -2 0.33082088E-02 0.91308322E+02</pdfrwt>
<totfact> 0.12103937E+05</totfact>
</mgrwt>
</event>
<event>
 7    1  0.3960685E-009  0.9340118E+02  0.7818608E-02  0.1294818E+00
         -2   -1    0    0    0  501 -0.00000000000E+00  0.00000000000E+00  0.48229168239E+02  0.48229168306E+02  0.25500000000E-02 0.  1.
          2   -1    0    0  501    0  0.00000000000E+00 -0.00000000000E+00 -0.45220459348E+02  0.45220459420E+02  0.25500000000E-02 0. -1.
         23    2    1    2    0    0  0.00000000000E+00  0.71054273576E-14  0.30087088906E+01  0.93449627727E+02  0.93401180898E+02 0.  0.
    9000005    2    3    3    0    0 -0.49939871465E+01  0.43096334600E+02 -0.15152210520E+02  0.46417160670E+02  0.65367696511E+01 0.  0.
         22    1    3    3    0    0  0.49939871465E+01 -0.43096334600E+02  0.18160919410E+02  0.47032467056E+02  0.00000000000E+00 0. -1.
         22    1    4    4    0    0 -0.63054427860E+01  0.30275108211E+02 -0.11806233309E+02  0.33101781385E+02  0.00000000000E+00 0.  1.
         22    1    4    4    0    0  0.13114556395E+01  0.12821226389E+02 -0.33459772108E+01  0.13315379285E+02  0.00000000000E+00 0.  1.
<mgrwt>
<rscale>  0 0.93401181E+02</rscale>
<asrwt>0</asrwt>
<pdfrwt beam="2">  1        2 0.69569938E-02 0.93401181E+02</pdfrwt>
<pdfrwt beam="1">  1       -2 0.74198720E-02 0.93401181E+02</pdfrwt>
<totfact> 0.91861423E+04</totfact>
</mgrwt>
</event>
<event>
 7    1  0.3960685E-009  0.8909731E+02  0.7818608E-02  0.1305053E+00
          2   -1    0    0  501    0  0.00000000000E+00  0.00000000000E+00  0.81510420568E+01  0.81510424556E+01  0.25500000000E-02 0. -1.
         -2   -1    0    0    0  501 -0.00000000000E+00 -0.00000000000E+00 -0.24347593205E+03  0.24347593207E+03  0.25500000000E-02 0.  1.
         23    2    1    2    0    0 -0.88817841970E-15  0.71054273576E-14 -0.23532489000E+03  0.25162697452E+03  0.89097308912E+02 0.  0.
    9000005    2    3    3    0    0 -0.65841685517E+01  0.35790019994E+02 -0.51970675980E+02  0.64696386858E+02  0.12664695180E+02 0.  0.
         22    1    3    3    0    0  0.65841685517E+01 -0.35790019994E+02 -0.18335421402E+03  0.18693058766E+03  0.00000000000E+00 0. -1.
         22    1    4    4    0    0  0.19328144428E+01  0.34679341140E+01 -0.16802546498E+01  0.43111012953E+01  0.00000000000E+00 0.  1.
         22    1    4    4    0    0 -0.85169829945E+01  0.32322085880E+02 -0.50290421330E+02  0.60385285563E+02  0.00000000000E+00 0.  1.
<mgrwt>
<rscale>  0 0.89097309E+02</rscale>
<asrwt>0</asrwt>
<pdfrwt beam="1">  1        2 0.12540067E-02 0.89097309E+02</pdfrwt>
<pdfrwt beam="2">  1       -2 0.37457830E-01 0.89097309E+02</pdfrwt>
<totfact> 0.60382948E+04</totfact>
</mgrwt>
</event>
<event>
 7    1  0.3960685E-009  0.9144015E+02  0.7818608E-02  0.1299401E+00
         -2   -1    0    0    0  501 -0.00000000000E+00  0.00000000000E+00  0.44657036030E+02  0.44657036103E+02  0.25500000000E-02 0. -1.
          2   -1    0    0  501    0  0.00000000000E+00 -0.00000000000E+00 -0.46808422039E+02  0.46808422108E+02  0.25500000000E-02 0.  1.
         23    2    1    2    0    0  0.00000000000E+00  0.00000000000E+00 -0.21513860089E+01  0.91465458211E+02  0.91440153018E+02 0.  0.
    9000005    2    3    3    0    0 -0.30394316091E+02 -0.11956184248E+02  0.29043067822E+02  0.46300662825E+02  0.15280274772E+02 0.  0.
         22    1    3    3    0    0  0.30394316091E+02  0.11956184248E+02 -0.31194453831E+02  0.45164795386E+02  0.00000000000E+00 0.  1.
         22    1    4    4    0    0 -0.12466775845E+01 -0.83556040233E+00  0.92135125474E+01  0.93349440088E+01  0.00000000000E+00 0.  1.
         22    1    4    4    0    0 -0.29147638506E+02 -0.11120623845E+02  0.19829555275E+02  0.36965718816E+02  0.00000000000E+00 0.  1.
<mgrwt>
<rscale>  0 0.91440153E+02</rscale>
<asrwt>0</asrwt>
<pdfrwt beam="2">  1        2 0.72012957E-02 0.91440153E+02</pdfrwt>
<pdfrwt beam="1">  1       -2 0.68703132E-02 0.91440153E+02</pdfrwt>
<totfact> 0.98535482E+04</totfact>
</mgrwt>
</event>
<event>
 7    1  0.3960685E-009  0.8998372E+02  0.7818608E-02  0.1302891E+00
         -2   -1    0    0    0  501 -0.00000000000E+00  0.00000000000E+00  0.12873126125E+03  0.12873126127E+03  0.25500000000E-02 0.  1.
          2   -1    0    0  501    0  0.00000000000E+00 -0.00000000000E+00 -0.15724755645E+02  0.15724755852E+02  0.25500000000E-02 0. -1.
         23    2    1    2    0    0  0.00000000000E+00  0.35527136788E-14  0.11300650560E+03  0.14445601713E+03  0.89983723946E+02 0.  0.
    9000005    2    3    3    0    0 -0.34765068556E+02 -0.23032699198E+02  0.30607487217E+02  0.52104983266E+02  0.62446603842E+01 0.  0.
         22    1    3    3    0    0  0.34765068556E+02  0.23032699198E+02  0.82399018387E+02  0.92351033861E+02  0.00000000000E+00 0. -1.
         22    1    4    4    0    0 -0.15262874779E+02 -0.81884332006E+01  0.94718102304E+01  0.19741351875E+02  0.00000000000E+00 0. -1.
         22    1    4    4    0    0 -0.19502193777E+02 -0.14844265998E+02  0.21135676987E+02  0.32363631391E+02  0.00000000000E+00 0. -1.
<mgrwt>
<rscale>  0 0.89983724E+02</rscale>
<asrwt>0</asrwt>
<pdfrwt beam="2">  1        2 0.24191933E-02 0.89983724E+02</pdfrwt>
<pdfrwt beam="1">  1       -2 0.19804809E-01 0.89983724E+02</pdfrwt>
<totfact> 0.76172804E+04</totfact>
</mgrwt>
</event>
<event>
 7    1  0.3960685E-009  0.9174137E+02  0.7818608E-02  0.1298689E+00
          2   -1    0    0  501    0  0.00000000000E+00  0.00000000000E+00  0.69915611677E+03  0.69915611678E+03  0.25500000000E-02 0. -1.
         -2   -1    0    0    0  501 -0.00000000000E+00 -0.00000000000E+00 -0.30095129950E+01  0.30095140753E+01  0.25500000000E-02 0.  1.
         23    2    1    2    0    0  0.00000000000E+00  0.00000000000E+00  0.69614660378E+03  0.70216563085E+03  0.91741371254E+02 0.  0.
    9000005    2    3    3    0    0  0.41702951521E+02 -0.75473876022E+01  0.48076208345E+03  0.48265118755E+03  0.48876095805E+01 0.  0.
         22    1    3    3    0    0 -0.41702951521E+02  0.75473876022E+01  0.21538452032E+03  0.21951444331E+03  0.00000000000E+00 0. -1.
         22    1    4    4    0    0  0.81943743706E+01  0.14632730416E+00  0.81102439014E+02  0.81515488081E+02  0.00000000000E+00 0. -1.
         22    1    4    4    0    0  0.33508577150E+02 -0.76937149064E+01  0.39965964444E+03  0.40113569946E+03  0.00000000000E+00 0. -1.
<mgrwt>
<rscale>  0 0.91741371E+02</rscale>
<asrwt>0</asrwt>
<pdfrwt beam="1">  1        2 0.10756258E+00 0.91741371E+02</pdfrwt>
<pdfrwt beam="2">  1       -2 0.46300163E-03 0.91741371E+02</pdfrwt>
<totfact> 0.23324568E+05</totfact>
</mgrwt>
</event>
<event>
 7    1  0.3960685E-009  0.8583454E+02  0.7818608E-02  0.1313264E+00
          2   -1    0    0  501    0  0.00000000000E+00  0.00000000000E+00  0.51555332521E+02  0.51555332584E+02  0.25500000000E-02 0. -1.
         -2   -1    0    0    0  501 -0.00000000000E+00 -0.00000000000E+00 -0.35726506451E+02  0.35726506542E+02  0.25500000000E-02 0.  1.
         23    2    1    2    0    0  0.00000000000E+00  0.00000000000E+00  0.15828826070E+02  0.87281839127E+02  0.85834536794E+02 0.  0.
    9000005    2    3    3    0    0 -0.35964729733E+02 -0.13262136926E+02 -0.10941111311E+02  0.40527421068E+02  0.73087537326E+01 0.  0.
         22    1    3    3    0    0  0.35964729733E+02  0.13262136926E+02  0.26769937380E+02  0.46754418058E+02  0.00000000000E+00 0. -1.
         22    1    4    4    0    0 -0.28543129209E+02 -0.71977042993E+01 -0.80900909956E+01  0.30528130381E+02  0.00000000000E+00 0.  1.
         22    1    4    4    0    0 -0.74216005244E+01 -0.60644326264E+01 -0.28510203150E+01  0.99992906879E+01  0.00000000000E+00 0.  1.
<mgrwt>
<rscale>  0 0.85834537E+02</rscale>
<asrwt>0</asrwt>
<pdfrwt beam="1">  1        2 0.79315896E-02 0.85834537E+02</pdfrwt>
<pdfrwt beam="2">  1       -2 0.54963856E-02 0.85834537E+02</pdfrwt>
<totfact> 0.12086074E+05</totfact>
</mgrwt>
</event>
<event>
 7    1  0.3960685E-009  0.9067753E+02  0.7818608E-02  0.1301219E+00
          2   -1    0    0  501    0  0.00000000000E+00  0.00000000000E+00  0.32359507366E+02  0.32359507466E+02  0.25500000000E-02 0. -1.
         -2   -1    0    0    0  501 -0.00000000000E+00 -0.00000000000E+00 -0.63523943114E+02  0.63523943165E+02  0.25500000000E-02 0.  1.
         23    2    1    2    0    0 -0.35527136788E-14  0.00000000000E+00 -0.31164435748E+02  0.95883450631E+02  0.90677527808E+02 0.  0.
    9000005    2    3    3    0    0  0.24803260505E+02 -0.18811318025E+02  0.17867058166E+02  0.37804583451E+02  0.11869597505E+02 0.  0.
         22    1    3    3    0    0 -0.24803260505E+02  0.18811318025E+02 -0.49031493914E+02  0.58078867180E+02  0.00000000000E+00 0.  1.
         22    1    4    4    0    0  0.73235321472E+01 -0.12824812611E+02  0.67157535353E+01  0.16223787695E+02  0.00000000000E+00 0. -1.
         22    1    4    4    0    0  0.17479728357E+02 -0.59865054141E+01  0.11151304630E+02  0.21580795756E+02  0.00000000000E+00 0. -1.
<mgrwt>
<rscale>  0 0.90677528E+02</rscale>
<asrwt>0</asrwt>
<pdfrwt beam="1">  1        2 0.49783858E-02 0.90677528E+02</pdfrwt>
<pdfrwt beam="2">  1       -2 0.97729143E-02 0.90677528E+02</pdfrwt>
<totfact> 0.91732110E+04</totfact>
</mgrwt>
</event>
<event>
 7    1  0.3960685E-009  0.9248680E+02  0.7818608E-02  0.1296939E+00
          2   -1    0    0  501    0  0.00000000000E+00  0.00000000000E+00  0.23121314671E+02  0.23121314811E+02  0.25500000000E-02 0. -1.
         -2   -1    0    0    0  501 -0.00000000000E+00 -0.00000000000E+00 -0.92488332947E+02  0.92488332982E+02  0.25500000000E-02 0.  1.
         23    2    1    2    0    0 -0.71054273576E-14  0.93675067703E-16 -0.69367018276E+02  0.11560964779E+03  0.92486796022E+02 0.  0.
    9000005    2    3    3    0    0  0.45706305444E+02  0.27373369328E-01 -0.29631793675E+02  0.55046002091E+02  0.79342323668E+01 0.  0.
         22    1    3    3    0    0 -0.45706305444E+02 -0.27373369328E-01 -0.39735224601E+02  0.60563645702E+02  0.00000000000E+00 0.  1.
         22    1    4    4    0    0  0.61153548921E+01 -0.15595753371E+01 -0.69607031910E+01  0.93958091510E+01  0.00000000000E+00 0. -1.
         22    1    4    4    0    0  0.39590950552E+02  0.15869487065E+01 -0.22671090484E+02  0.45650192940E+02  0.00000000000E+00 0. -1.
<mgrwt>
<rscale>  0 0.92486796E+02</rscale>
<asrwt>0</asrwt>
<pdfrwt beam="1">  1        2 0.35571254E-02 0.92486796E+02</pdfrwt>
<pdfrwt beam="2">  1       -2 0.14228974E-01 0.92486796E+02</pdfrwt>
<totfact> 0.78821158E+04</totfact>
</mgrwt>
</event>
<event>
 7    1  0.3960685E-009  0.8888099E+02  0.7818608E-02  0.1305584E+00
          2   -1    0    0  501    0  0.00000000000E+00  0.00000000000E+00  0.94967377283E+02  0.94967377317E+02  0.25500000000E-02 0. -1.
         -2   -1    0    0    0  501 -0.00000000000E+00 -0.00000000000E+00 -0.20796168999E+02  0.20796169156E+02  0.25500000000E-02 0.  1.
         23    2    1    2    0    0  0.00000000000E+00  0.00000000000E+00  0.74171208283E+02  0.11576354647E+03  0.88880990958E+02 0.  0.
    9000005    2    3    3    0    0  0.32998545209E+02  0.98763019228E+01  0.73416627653E+02  0.81310466530E+02  0.59114656235E+01 0.  0.
         22    1    3    3    0    0 -0.32998545209E+02 -0.98763019228E+01  0.75458063077E+00  0.34453079943E+02  0.00000000000E+00 0.  1.
         22    1    4    4    0    0  0.32214534876E+02  0.98528690098E+01  0.73052354763E+02  0.80445645137E+02  0.00000000000E+00 0.  1.
         22    1    4    4    0    0  0.78401033335E+00  0.23432912960E-01  0.36427288941E+00  0.86482139322E+00  0.00000000000E+00 0.  1.
<mgrwt>
<rscale>  0 0.88880991E+02</rscale>
<asrwt>0</asrwt>
<pdfrwt beam="1">  1        2 0.14610365E-01 0.88880991E+02</pdfrwt>
<pdfrwt beam="2">  1       -2 0.31994107E-02 0.88880991E+02</pdfrwt>
<totfact> 0.12955458E+05</totfact>
</mgrwt>
</event>
<event>
 6    1  0.3960685E-009  0.1322360E+03  0.7818608E-02  0.1224175E+00
          2   -1    0    0  501    0  0.00000000000E+00  0.00000000000E+00  0.11418170103E+04  0.11418170103E+04  0.25500000000E-02 0. -1.
         -2   -1    0    0    0  501 -0.00000000000E+00 -0.00000000000E+00 -0.38286271295E+01  0.38286279787E+01  0.25500000000E-02 0.  1.
    9000005    2    1    2    0    0 -0.43482779683E+02  0.31005186363E+02  0.90230596078E+03  0.90398828181E+03  0.13663567921E+02 0.  0.
         22    1    1    2    0    0  0.43482779683E+02 -0.31005186363E+02  0.23568242236E+03  0.24165735644E+03  0.00000000000E+00 0.  1.
         22    1    3    3    0    0 -0.11946233844E+02  0.18451943421E+01  0.17812259793E+03  0.17853228598E+03  0.00000000000E+00 0. -1.
         22    1    3    3    0    0 -0.31536545840E+02  0.29159992021E+02  0.72418336285E+03  0.72545599583E+03  0.00000000000E+00 0. -1.
<mgrwt>
<rscale>  0 0.13223603E+03</rscale>
<asrwt>0</asrwt>
<pdfrwt beam="1">  1        2 0.17566431E+00 0.13223603E+03</pdfrwt>
<pdfrwt beam="2">  1       -2 0.58901910E-03 0.13223603E+03</pdfrwt>
<totfact> 0.92200358E+04</totfact>
</mgrwt>
</event>
<event>
 7    1  0.3960685E-009  0.9088924E+02  0.7818608E-02  0.1300712E+00
          2   -1    0    0  501    0  0.00000000000E+00  0.00000000000E+00  0.11480896626E+02  0.11480896909E+02  0.25500000000E-02 0. -1.
         -2   -1    0    0    0  501 -0.00000000000E+00 -0.00000000000E+00 -0.17988259603E+03  0.17988259605E+03  0.25500000000E-02 0.  1.
         23    2    1    2    0    0  0.13877787808E-15  0.00000000000E+00 -0.16840169940E+03  0.19136349296E+03  0.90889240697E+02 0.  0.
    9000005    2    3    3    0    0 -0.88475799584E-01 -0.33990387025E+02 -0.23716267690E+02  0.42739038750E+02  0.10431195621E+02 0.  0.
         22    1    3    3    0    0  0.88475799584E-01  0.33990387025E+02 -0.14468543171E+03  0.14862445421E+03  0.00000000000E+00 0.  1.
         22    1    4    4    0    0 -0.24212935007E+01 -0.15703694295E+01 -0.88737801843E+00  0.30192982809E+01  0.00000000000E+00 0.  1.
         22    1    4    4    0    0  0.23328177011E+01 -0.32420017595E+02 -0.22828889672E+02  0.39719740469E+02  0.00000000000E+00 0.  1.
<mgrwt>
<rscale>  0 0.90889241E+02</rscale>
<asrwt>0</asrwt>
<pdfrwt beam="1">  1        2 0.17662919E-02 0.90889241E+02</pdfrwt>
<pdfrwt beam="2">  1       -2 0.27674244E-01 0.90889241E+02</pdfrwt>
<totfact> 0.65676991E+04</totfact>
</mgrwt>
</event>
<event>
 7    1  0.3960685E-009  0.8998211E+02  0.7818608E-02  0.1302895E+00
          2   -1    0    0  501    0  0.00000000000E+00  0.00000000000E+00  0.32586361504E+03  0.32586361505E+03  0.25500000000E-02 0. -1.
         -2   -1    0    0    0  501 -0.00000000000E+00 -0.00000000000E+00 -0.62117859193E+01  0.62117864427E+01  0.25500000000E-02 0.  1.
         23    2    1    2    0    0  0.00000000000E+00  0.35527136788E-14  0.31965182913E+03  0.33207540150E+03  0.89982111647E+02 0.  0.
    9000005    2    3    3    0    0  0.26459722148E+02 -0.25397570652E+02  0.25329383495E+03  0.25625629518E+03  0.12820628177E+02 0.  0.
         22    1    3    3    0    0 -0.26459722148E+02  0.25397570652E+02  0.66357994178E+02  0.75819106315E+02  0.00000000000E+00 0.  1.
         22    1    4    4    0    0  0.15667398543E+02 -0.91302162951E+01  0.90720502273E+02  0.92515067742E+02  0.00000000000E+00 0. -1.
         22    1    4    4    0    0  0.10792323604E+02 -0.16267354357E+02  0.16257333267E+03  0.16374122744E+03  0.00000000000E+00 0. -1.
<mgrwt>
<rscale>  0 0.89982112E+02</rscale>
<asrwt>0</asrwt>
<pdfrwt beam="1">  1        2 0.50132865E-01 0.89982112E+02</pdfrwt>
<pdfrwt beam="2">  1       -2 0.95565939E-03 0.89982112E+02</pdfrwt>
<totfact> 0.19187866E+05</totfact>
</mgrwt>
</event>
<event>
 7    1  0.3960685E-009  0.9458581E+02  0.7818608E-02  0.1292112E+00
         -2   -1    0    0    0  501 -0.00000000000E+00  0.00000000000E+00  0.13394775725E+01  0.13394799997E+01  0.25500000000E-02 0.  1.
          2   -1    0    0  501    0  0.00000000000E+00 -0.00000000000E+00 -0.16697680467E+04  0.16697680467E+04  0.25500000000E-02 0. -1.
         23    2    1    2    0    0  0.00000000000E+00  0.00000000000E+00 -0.16684285691E+04  0.16711075267E+04  0.94585810342E+02 0.  0.
    9000005    2    3    3    0    0 -0.10286214032E+02  0.96708041950E+01 -0.16311987629E+04  0.16312905815E+04  0.10011322108E+02 0.  0.
         22    1    3    3    0    0  0.10286214032E+02 -0.96708041950E+01 -0.37229806209E+02  0.39816945177E+02  0.00000000000E+00 0.  1.
         22    1    4    4    0    0  0.95179879619E+00  0.45715471805E+01 -0.59526087706E+03  0.59527919224E+03  0.00000000000E+00 0. -1.
         22    1    4    4    0    0 -0.11238012828E+02  0.50992570145E+01 -0.10359378858E+04  0.10360113893E+04  0.00000000000E+00 0. -1.
<mgrwt>
<rscale>  0 0.94585810E+02</rscale>
<asrwt>0</asrwt>
<pdfrwt beam="2">  1        2 0.25688573E+00 0.94585810E+02</pdfrwt>
<pdfrwt beam="1">  1       -2 0.20607499E-03 0.94585810E+02</pdfrwt>
<totfact> 0.20381738E+05</totfact>
</mgrwt>
</event>
<event>
 7    1  0.3960685E-009  0.9072880E+02  0.7818608E-02  0.1301096E+00
          2   -1    0    0  501    0  0.00000000000E+00  0.00000000000E+00  0.32402825168E+03  0.32402825169E+03  0.25500000000E-02 0. -1.
         -2   -1    0    0    0  501 -0.00000000000E+00 -0.00000000000E+00 -0.63510779008E+01  0.63510784127E+01  0.25500000000E-02 0.  1.
         23    2    1    2    0    0  0.00000000000E+00  0.00000000000E+00  0.31767717378E+03  0.33037933011E+03  0.90728799281E+02 0.  0.
    9000005    2    3    3    0    0 -0.26976985329E+02 -0.18795424417E+02  0.27213280254E+03  0.27420713531E+03  0.72294619418E+01 0.  0.
         22    1    3    3    0    0  0.26976985329E+02  0.18795424417E+02  0.45544371247E+02  0.56172194801E+02  0.00000000000E+00 0.  1.
         22    1    4    4    0    0 -0.26882074298E+02 -0.18866066503E+02  0.27211238142E+03  0.27408707103E+03  0.00000000000E+00 0.  1.
         22    1    4    4    0    0 -0.94911030921E-01  0.70642086445E-01  0.20421115616E-01  0.12006427500E+00  0.00000000000E+00 0.  1.
<mgrwt>
<rscale>  0 0.90728799E+02</rscale>
<asrwt>0</asrwt>
<pdfrwt beam="1">  1        2 0.49850503E-01 0.90728799E+02</pdfrwt>
<pdfrwt beam="2">  1       -2 0.97708889E-03 0.90728799E+02</pdfrwt>
<totfact> 0.18731561E+05</totfact>
</mgrwt>
</event>
<event>
 7    1  0.3960685E-009  0.9137284E+02  0.7818608E-02  0.1299561E+00
         -2   -1    0    0    0  501 -0.00000000000E+00  0.00000000000E+00  0.11211537941E+02  0.11211538231E+02  0.25500000000E-02 0.  1.
          2   -1    0    0  501    0  0.00000000000E+00 -0.00000000000E+00 -0.18616972577E+03  0.18616972578E+03  0.25500000000E-02 0. -1.
         23    2    1    2    0    0  0.00000000000E+00  0.00000000000E+00 -0.17495818783E+03  0.19738126402E+03  0.91372840040E+02 0.  0.
    9000005    2    3    3    0    0 -0.87750474049E+01 -0.35952742640E+02 -0.14450621727E+03  0.14945503246E+03  0.92281492214E+01 0.  0.
         22    1    3    3    0    0  0.87750474049E+01  0.35952742640E+02 -0.30451970558E+02  0.47926231556E+02  0.00000000000E+00 0.  1.
         22    1    4    4    0    0 -0.57643218153E+01 -0.33703943843E+02 -0.13411258398E+03  0.13840292056E+03  0.00000000000E+00 0. -1.
         22    1    4    4    0    0 -0.30107255896E+01 -0.22487987967E+01 -0.10393633286E+02  0.11052111901E+02  0.00000000000E+00 0. -1.
<mgrwt>
<rscale>  0 0.91372840E+02</rscale>
<asrwt>0</asrwt>
<pdfrwt beam="2">  1        2 0.28641494E-01 0.91372840E+02</pdfrwt>
<pdfrwt beam="1">  1       -2 0.17248521E-02 0.91372840E+02</pdfrwt>
<totfact> 0.14987401E+05</totfact>
</mgrwt>
</event>
<event>
 7    1  0.3960685E-009  0.9152920E+02  0.7818608E-02  0.1299190E+00
          2   -1    0    0  501    0  0.00000000000E+00  0.00000000000E+00  0.15069030881E+02  0.15069031097E+02  0.25500000000E-02 0. -1.
         -2   -1    0    0    0  501 -0.00000000000E+00 -0.00000000000E+00 -0.13898693205E+03  0.13898693207E+03  0.25500000000E-02 0.  1.
         23    2    1    2    0    0  0.00000000000E+00 -0.88817841970E-15 -0.12391790117E+03  0.15405596317E+03  0.91529195114E+02 0.  0.
    9000005    2    3    3    0    0 -0.11723839147E+02  0.64010914201E+01 -0.13525431020E+03  0.13653635857E+03  0.13039417442E+02 0.  0.
         22    1    3    3    0    0  0.11723839147E+02 -0.64010914201E+01  0.11336409032E+02  0.17519604603E+02  0.00000000000E+00 0. -1.
         22    1    4    4    0    0 -0.61822779560E+01  0.10182177953E+02 -0.91036935961E+02  0.91812967591E+02  0.00000000000E+00 0. -1.
         22    1    4    4    0    0 -0.55415611915E+01 -0.37810865333E+01 -0.44217374238E+02  0.44723390975E+02  0.00000000000E+00 0. -1.
<mgrwt>
<rscale>  0 0.91529195E+02</rscale>
<asrwt>0</asrwt>
<pdfrwt beam="1">  1        2 0.23183126E-02 0.91529195E+02</pdfrwt>
<pdfrwt beam="2">  1       -2 0.21382604E-01 0.91529195E+02</pdfrwt>
<totfact> 0.71085689E+04</totfact>
</mgrwt>
</event>
<event>
 7    1  0.3960685E-009  0.9124972E+02  0.7818608E-02  0.1299853E+00
          2   -1    0    0  501    0  0.00000000000E+00  0.00000000000E+00  0.40004784053E+03  0.40004784054E+03  0.25500000000E-02 0.  1.
         -2   -1    0    0    0  501 -0.00000000000E+00 -0.00000000000E+00 -0.52034466262E+01  0.52034472510E+01  0.25500000000E-02 0. -1.
         23    2    1    2    0    0  0.00000000000E+00  0.00000000000E+00  0.39484439391E+03  0.40525128779E+03  0.91249717027E+02 0.  0.
    9000005    2    3    3    0    0 -0.25340047072E+02  0.34022204809E+02  0.14045828750E+03  0.14735223867E+03  0.13583935649E+02 0.  0.
         22    1    3    3    0    0  0.25340047072E+02 -0.34022204809E+02  0.25438610641E+03  0.25789904912E+03  0.00000000000E+00 0.  1.
         22    1    4    4    0    0 -0.56893525080E+01  0.17877931579E+02  0.68914163596E+02  0.71422343238E+02  0.00000000000E+00 0.  1.
         22    1    4    4    0    0 -0.19650694564E+02  0.16144273230E+02  0.71544123903E+02  0.75929895430E+02  0.00000000000E+00 0.  1.
<mgrwt>
<rscale>  0 0.91249717E+02</rscale>
<asrwt>0</asrwt>
<pdfrwt beam="1">  1        2 0.61545823E-01 0.91249717E+02</pdfrwt>
<pdfrwt beam="2">  1       -2 0.80053029E-03 0.91249717E+02</pdfrwt>
<totfact> 0.19921021E+05</totfact>
</mgrwt>
</event>
<event>
 7    1  0.3960685E-009  0.9007545E+02  0.7818608E-02  0.1302669E+00
          2   -1    0    0  501    0  0.00000000000E+00  0.00000000000E+00  0.93563235785E+02  0.93563235820E+02  0.25500000000E-02 0. -1.
         -2   -1    0    0    0  501 -0.00000000000E+00 -0.00000000000E+00 -0.21679417642E+02  0.21679417792E+02  0.25500000000E-02 0.  1.
         23    2    1    2    0    0 -0.17763568394E-14 -0.35527136788E-14  0.71883818143E+02  0.11524265361E+03  0.90075445603E+02 0.  0.
    9000005    2    3    3    0    0  0.15584622845E+02  0.17325054794E+02  0.84667058141E+02  0.88663541180E+02  0.12234165582E+02 0.  0.
         22    1    3    3    0    0 -0.15584622845E+02 -0.17325054794E+02 -0.12783239998E+02  0.26579112432E+02  0.00000000000E+00 0.  1.
         22    1    4    4    0    0 -0.15996051154E+01 -0.10495158711E+00  0.88315000594E+01  0.89758088582E+01  0.00000000000E+00 0. -1.
         22    1    4    4    0    0  0.17184227960E+02  0.17430006381E+02  0.75835558082E+02  0.79687732322E+02  0.00000000000E+00 0. -1.
<mgrwt>
<rscale>  0 0.90075446E+02</rscale>
<asrwt>0</asrwt>
<pdfrwt beam="1">  1        2 0.14394344E-01 0.90075446E+02</pdfrwt>
<pdfrwt beam="2">  1       -2 0.33352950E-02 0.90075446E+02</pdfrwt>
<totfact> 0.12433377E+05</totfact>
</mgrwt>
</event>
<event>
 7    1  0.3960685E-009  0.9683034E+02  0.7818608E-02  0.1287106E+00
          2   -1    0    0  501    0  0.00000000000E+00  0.00000000000E+00  0.11830341131E+04  0.11830341131E+04  0.25500000000E-02 0. -1.
         -2   -1    0    0    0  501 -0.00000000000E+00 -0.00000000000E+00 -0.19813695688E+01  0.19813712097E+01  0.25500000000E-02 0.  1.
         23    2    1    2    0    0  0.00000000000E+00  0.00000000000E+00  0.11810527435E+04  0.11850154843E+04  0.96830341617E+02 0.  0.
    9000005    2    3    3    0    0 -0.60874453235E+01 -0.14239149619E+02  0.11509759348E+04  0.11511861361E+04  0.15623932045E+02 0.  0.
         22    1    3    3    0    0  0.60874453235E+01  0.14239149619E+02  0.30076808764E+02  0.33829348174E+02  0.00000000000E+00 0.  1.
         22    1    4    4    0    0 -0.10944066969E+02 -0.12792859674E+02  0.83678232325E+03  0.83695166310E+03  0.00000000000E+00 0.  1.
         22    1    4    4    0    0  0.48566216452E+01 -0.14462899449E+01  0.31419361150E+03  0.31423447303E+03  0.00000000000E+00 0.  1.
<mgrwt>
<rscale>  0 0.96830342E+02</rscale>
<asrwt>0</asrwt>
<pdfrwt beam="1">  1        2 0.18200485E+00 0.96830342E+02</pdfrwt>
<pdfrwt beam="2">  1       -2 0.30482688E-03 0.96830342E+02</pdfrwt>
<totfact> 0.21247264E+05</totfact>
</mgrwt>
</event>
<event>
 7    1  0.4055207E-009  0.9161676E+02  0.7818608E-02  0.1298983E+00
         -2   -1    0    0    0  501 -0.00000000000E+00  0.00000000000E+00  0.63297726485E+01  0.63297731621E+01  0.25500000000E-02 0.  1.
          2   -1    0    0  501    0  0.00000000000E+00 -0.00000000000E+00 -0.33151387011E+03  0.33151387012E+03  0.25500000000E-02 0. -1.
         23    2    1    2    0    0  0.00000000000E+00  0.00000000000E+00 -0.32518409746E+03  0.33784364328E+03  0.91616756460E+02 0.  0.
    9000005    2    3    3    0    0 -0.35299355936E+02  0.32845804355E+01 -0.26750432046E+03  0.27013995303E+03  0.12657004499E+02 0.  0.
         22    1    3    3    0    0  0.35299355936E+02 -0.32845804355E+01 -0.57679777003E+02  0.67703690249E+02  0.00000000000E+00 0.  1.
         22    1    4    4    0    0 -0.15929193833E+02 -0.96029261613E+00 -0.79011838755E+02  0.80607270401E+02  0.00000000000E+00 0.  1.
         22    1    4    4    0    0 -0.19370162103E+02  0.42448730517E+01 -0.18849248170E+03  0.18953268263E+03  0.00000000000E+00 0.  1.
<mgrwt>
<rscale>  0 0.91616756E+02</rscale>
<asrwt>0</asrwt>
<pdfrwt beam="2">  1        2 0.51002120E-01 0.91616756E+02</pdfrwt>
<pdfrwt beam="1">  1       -2 0.97381148E-03 0.91616756E+02</pdfrwt>
<totfact> 0.18406438E+05</totfact>
</mgrwt>
</event>
<event>
 7    1  0.3960685E-009  0.9282527E+02  0.7818608E-02  0.1296151E+00
          2   -1    0    0  501    0  0.00000000000E+00  0.00000000000E+00  0.32931354910E+03  0.32931354911E+03  0.25500000000E-02 0. -1.
         -2   -1    0    0    0  501 -0.00000000000E+00 -0.00000000000E+00 -0.65412813806E+01  0.65412818776E+01  0.25500000000E-02 0.  1.
         23    2    1    2    0    0  0.00000000000E+00  0.00000000000E+00  0.32277226772E+03  0.33585483099E+03  0.92825269668E+02 0.  0.
    9000005    2    3    3    0    0 -0.21497618559E+02 -0.40908604656E+02  0.17093763943E+03  0.17714309265E+03  0.49332708001E+01 0.  0.
         22    1    3    3    0    0  0.21497618559E+02  0.40908604656E+02  0.15183462829E+03  0.15871173834E+03  0.00000000000E+00 0. -1.
         22    1    4    4    0    0 -0.63386210615E+01 -0.11250932017E+02  0.39846202123E+02  0.41886530196E+02  0.00000000000E+00 0. -1.
         22    1    4    4    0    0 -0.15158997498E+02 -0.29657672639E+02  0.13109143731E+03  0.13525656246E+03  0.00000000000E+00 0. -1.
<mgrwt>
<rscale>  0 0.92825270E+02</rscale>
<asrwt>0</asrwt>
<pdfrwt beam="1">  1        2 0.50663607E-01 0.92825270E+02</pdfrwt>
<pdfrwt beam="2">  1       -2 0.10063513E-02 0.92825270E+02</pdfrwt>
<totfact> 0.17730229E+05</totfact>
</mgrwt>
</event>
<event>
 7    1  0.3960685E-009  0.9056866E+02  0.7818608E-02  0.1301480E+00
         -2   -1    0    0    0  501 -0.00000000000E+00  0.00000000000E+00  0.75777572262E+02  0.75777572305E+02  0.25500000000E-02 0. -1.
          2   -1    0    0  501    0  0.00000000000E+00 -0.00000000000E+00 -0.27061705703E+02  0.27061705823E+02  0.25500000000E-02 0.  1.
         23    2    1    2    0    0  0.00000000000E+00  0.00000000000E+00  0.48715866559E+02  0.10283927813E+03  0.90568656119E+02 0.  0.
    9000005    2    3    3    0    0 -0.25364897392E+02 -0.75891184879E+01  0.64934474398E+02  0.71790671406E+02  0.15376664020E+02 0.  0.
         22    1    3    3    0    0  0.25364897392E+02  0.75891184879E+01 -0.16218607839E+02  0.31048606722E+02  0.00000000000E+00 0.  1.
         22    1    4    4    0    0  0.10948889902E+01 -0.36384136345E+01  0.66364575028E+01  0.76471827403E+01  0.00000000000E+00 0. -1.
         22    1    4    4    0    0 -0.26459786382E+02 -0.39507048534E+01  0.58298016895E+02  0.64143488665E+02  0.00000000000E+00 0. -1.
<mgrwt>
<rscale>  0 0.90568656E+02</rscale>
<asrwt>0</asrwt>
<pdfrwt beam="2">  1        2 0.41633394E-02 0.90568656E+02</pdfrwt>
<pdfrwt beam="1">  1       -2 0.11658088E-01 0.90568656E+02</pdfrwt>
<totfact> 0.87779271E+04</totfact>
</mgrwt>
</event>
<event>
 7    1  0.3960685E-009  0.9317715E+02  0.7818608E-02  0.1295335E+00
         -2   -1    0    0    0  501 -0.00000000000E+00  0.00000000000E+00  0.52327712681E+03  0.52327712682E+03  0.25500000000E-02 0.  1.
          2   -1    0    0  501    0  0.00000000000E+00 -0.00000000000E+00 -0.41478882986E+01  0.41478890825E+01  0.25500000000E-02 0. -1.
         23    2    1    2    0    0 -0.17763568394E-14 -0.71054273576E-14  0.51912923851E+03  0.52742501590E+03  0.93177149121E+02 0.  0.
    9000005    2    3    3    0    0  0.11862568019E+02  0.34357513987E+02  0.42194490757E+03  0.42366590320E+03  0.11581589837E+02 0.  0.
         22    1    3    3    0    0 -0.11862568019E+02 -0.34357513987E+02  0.97184330943E+02  0.10375911270E+03  0.00000000000E+00 0. -1.
         22    1    4    4    0    0  0.13542902914E+02  0.26702100377E+02  0.35602362379E+03  0.35728032842E+03  0.00000000000E+00 0. -1.
         22    1    4    4    0    0 -0.16803348954E+01  0.76554136101E+01  0.65921283782E+02  0.66385574776E+02  0.00000000000E+00 0. -1.
<mgrwt>
<rscale>  0 0.93177149E+02</rscale>
<asrwt>0</asrwt>
<pdfrwt beam="2">  1        2 0.63813704E-03 0.93177149E+02</pdfrwt>
<pdfrwt beam="1">  1       -2 0.80504133E-01 0.93177149E+02</pdfrwt>
<totfact> 0.33107699E+04</totfact>
</mgrwt>
</event>
<event>
 7    1  0.3960685E-009  0.9153032E+02  0.7818608E-02  0.1299188E+00
         -2   -1    0    0    0  501 -0.00000000000E+00  0.00000000000E+00  0.19516359881E+02  0.19516360048E+02  0.25500000000E-02 0.  1.
          2   -1    0    0  501    0  0.00000000000E+00 -0.00000000000E+00 -0.10731765685E+03  0.10731765688E+03  0.25500000000E-02 0. -1.
         23    2    1    2    0    0  0.00000000000E+00  0.00000000000E+00 -0.87801296970E+02  0.12683401693E+03  0.91530323395E+02 0.  0.
    9000005    2    3    3    0    0  0.21884420564E+02 -0.34262605877E+02 -0.70111894367E+02  0.82497023466E+02  0.15402179197E+02 0.  0.
         22    1    3    3    0    0 -0.21884420564E+02  0.34262605877E+02 -0.17689402603E+02  0.44336993464E+02  0.00000000000E+00 0.  1.
         22    1    4    4    0    0  0.77765365325E+01 -0.17541491783E+01 -0.11188926057E+02  0.13738399691E+02  0.00000000000E+00 0. -1.
         22    1    4    4    0    0  0.14107884032E+02 -0.32508456699E+02 -0.58922968311E+02  0.68758623774E+02  0.00000000000E+00 0. -1.
<mgrwt>
<rscale>  0 0.91530323E+02</rscale>
<asrwt>0</asrwt>
<pdfrwt beam="2">  1        2 0.16510408E-01 0.91530323E+02</pdfrwt>
<pdfrwt beam="1">  1       -2 0.30025170E-02 0.91530323E+02</pdfrwt>
<totfact> 0.12404337E+05</totfact>
</mgrwt>
</event>
<event>
 7    1  0.3960685E-009  0.8416418E+02  0.7818608E-02  0.1317633E+00
          2   -1    0    0  501    0  0.00000000000E+00  0.00000000000E+00  0.87521197189E+03  0.87521197189E+03  0.25500000000E-02 0. -1.
         -2   -1    0    0    0  501 -0.00000000000E+00 -0.00000000000E+00 -0.20233974299E+01  0.20233990368E+01  0.25500000000E-02 0.  1.
         23    2    1    2    0    0  0.00000000000E+00  0.35527136788E-14  0.87318857446E+03  0.87723537093E+03  0.84164181479E+02 0.  0.
    9000005    2    3    3    0    0 -0.96233113569E+01  0.17654208461E+02  0.82133573175E+03  0.82162065620E+03  0.79899462532E+01 0.  0.
         22    1    3    3    0    0  0.96233113569E+01 -0.17654208461E+02  0.51852842708E+02  0.55614714733E+02  0.00000000000E+00 0.  1.
         22    1    4    4    0    0 -0.10804981173E+02  0.13465483291E+02  0.64164643991E+03  0.64187866510E+03  0.00000000000E+00 0.  1.
         22    1    4    4    0    0  0.11816698159E+01  0.41887251694E+01  0.17968929184E+03  0.17974199110E+03  0.00000000000E+00 0.  1.
<mgrwt>
<rscale>  0 0.84164181E+02</rscale>
<asrwt>0</asrwt>
<pdfrwt beam="1">  1        2 0.13464782E+00 0.84164181E+02</pdfrwt>
<pdfrwt beam="2">  1       -2 0.31129244E-03 0.84164181E+02</pdfrwt>
<totfact> 0.30483821E+05</totfact>
</mgrwt>
</event>
<event>
 7    1  0.3960685E-009  0.1090813E+03  0.7818608E-02  0.1262281E+00
          2   -1    0    0  501    0  0.00000000000E+00  0.00000000000E+00  0.38224643951E+04  0.38224643951E+04  0.25500000000E-02 0.  1.
         -2   -1    0    0    0  501 -0.00000000000E+00 -0.00000000000E+00 -0.77820913346E+00  0.77821331131E+00  0.25500000000E-02 0. -1.
         23    2    1    2    0    0  0.00000000000E+00  0.00000000000E+00  0.38216861859E+04  0.38232426084E+04  0.10908134016E+03 0.  0.
    9000005    2    3    3    0    0 -0.58713325075E+01  0.13194352364E+02  0.37528747133E+04  0.37529319958E+04  0.14879101155E+02 0.  0.
         22    1    3    3    0    0  0.58713325075E+01 -0.13194352364E+02  0.68811472607E+02  0.70310612585E+02  0.00000000000E+00 0. -1.
         22    1    4    4    0    0 -0.19453485692E+01  0.95189331708E+00  0.22837934120E+04  0.22837944389E+04  0.00000000000E+00 0. -1.
         22    1    4    4    0    0 -0.39259839383E+01  0.12242459047E+02  0.14690813014E+04  0.14691375569E+04  0.00000000000E+00 0. -1.
<mgrwt>
<rscale>  0 0.10908134E+03</rscale>
<asrwt>0</asrwt>
<pdfrwt beam="1">  1        2 0.58807857E+00 0.10908134E+03</pdfrwt>
<pdfrwt beam="2">  1       -2 0.11972335E-03 0.10908134E+03</pdfrwt>
<totfact> 0.26621296E+04</totfact>
</mgrwt>
</event>
<event>
 7    1  0.3960685E-009  0.1076342E+03  0.7818608E-02  0.1265015E+00
         -2   -1    0    0    0  501 -0.00000000000E+00  0.00000000000E+00  0.22082631707E+02  0.22082631854E+02  0.25500000000E-02 0.  1.
          2   -1    0    0  501    0  0.00000000000E+00 -0.00000000000E+00 -0.13115639268E+03  0.13115639271E+03  0.25500000000E-02 0. -1.
         23    2    1    2    0    0  0.44408920985E-15 -0.35527136788E-14 -0.10907376098E+03  0.15323902456E+03  0.10763416426E+03 0.  0.
    9000005    2    3    3    0    0 -0.35976694584E+01  0.27355050322E+02 -0.12003679096E+03  0.12355013725E+03  0.97243625493E+01 0.  0.
         22    1    3    3    0    0  0.35976694584E+01 -0.27355050322E+02  0.10963029980E+02  0.29688887315E+02  0.00000000000E+00 0.  1.
         22    1    4    4    0    0  0.86305339778E+00  0.22624626788E+02 -0.97491101176E+02  0.10008563037E+03  0.00000000000E+00 0.  1.
         22    1    4    4    0    0 -0.44607228562E+01  0.47304235342E+01 -0.22545689781E+02  0.23464506876E+02  0.00000000000E+00 0.  1.
<mgrwt>
<rscale>  0 0.10763416E+03</rscale>
<asrwt>0</asrwt>
<pdfrwt beam="2">  1        2 0.20177906E-01 0.10763416E+03</pdfrwt>
<pdfrwt beam="1">  1       -2 0.33973280E-02 0.10763416E+03</pdfrwt>
<totfact> 0.84574840E+04</totfact>
</mgrwt>
</event>
<event>
 7    1  0.3960685E-009  0.9056365E+02  0.7818608E-02  0.1301492E+00
         -2   -1    0    0    0  501 -0.00000000000E+00  0.00000000000E+00  0.27343530288E+01  0.27343542178E+01  0.25500000000E-02 0.  1.
          2   -1    0    0  501    0  0.00000000000E+00 -0.00000000000E+00 -0.74988244108E+03  0.74988244109E+03  0.25500000000E-02 0. -1.
         23    2    1    2    0    0  0.00000000000E+00  0.00000000000E+00 -0.74714808806E+03  0.75261679531E+03  0.90563652159E+02 0.  0.
    9000005    2    3    3    0    0  0.57901045638E+01 -0.20022824126E+02 -0.70676293956E+03  0.70717013409E+03  0.11887262699E+02 0.  0.
         22    1    3    3    0    0 -0.57901045638E+01  0.20022824126E+02 -0.40385148495E+02  0.45446661217E+02  0.00000000000E+00 0.  1.
         22    1    4    4    0    0  0.80790975361E+00 -0.11389374062E+02 -0.21237111734E+03  0.21267783627E+03  0.00000000000E+00 0.  1.
         22    1    4    4    0    0  0.49821948101E+01 -0.86334500636E+01 -0.49439182222E+03  0.49449229782E+03  0.00000000000E+00 0.  1.
<mgrwt>
<rscale>  0 0.90563652E+02</rscale>
<asrwt>0</asrwt>
<pdfrwt beam="2">  1        2 0.11536637E+00 0.90563652E+02</pdfrwt>
<pdfrwt beam="1">  1       -2 0.42067039E-03 0.90563652E+02</pdfrwt>
<totfact> 0.24507011E+05</totfact>
</mgrwt>
</event>
<event>
 7    1  0.3960685E-009  0.9204180E+02  0.7818608E-02  0.1297981E+00
          2   -1    0    0  501    0  0.00000000000E+00  0.00000000000E+00  0.57460225294E+02  0.57460225351E+02  0.25500000000E-02 0. -1.
         -2   -1    0    0    0  501 -0.00000000000E+00 -0.00000000000E+00 -0.36858947137E+02  0.36858947225E+02  0.25500000000E-02 0.  1.
         23    2    1    2    0    0  0.00000000000E+00  0.55511151231E-16  0.20601278157E+02  0.94319172576E+02  0.92041803838E+02 0.  0.
    9000005    2    3    3    0    0  0.30587450788E+02  0.16388540891E+00  0.45268498738E+02  0.55024252098E+02  0.65431136947E+01 0.  0.
         22    1    3    3    0    0 -0.30587450788E+02 -0.16388540891E+00 -0.24667220582E+02  0.39294920478E+02  0.00000000000E+00 0.  1.
         22    1    4    4    0    0  0.30629318551E+02 -0.48095434998E+00  0.44284177874E+02  0.53846772252E+02  0.00000000000E+00 0.  1.
         22    1    4    4    0    0 -0.41867763187E-01  0.64483975888E+00  0.98432086415E+00  0.11774798460E+01  0.00000000000E+00 0.  1.
<mgrwt>
<rscale>  0 0.92041804E+02</rscale>
<asrwt>0</asrwt>
<pdfrwt beam="1">  1        2 0.88400346E-02 0.92041804E+02</pdfrwt>
<pdfrwt beam="2">  1       -2 0.56706073E-02 0.92041804E+02</pdfrwt>
<totfact> 0.10208305E+05</totfact>
</mgrwt>
</event>
<event>
 7    1  0.3960685E-009  0.9142755E+02  0.7818608E-02  0.1299431E+00
          2   -1    0    0  501    0  0.00000000000E+00  0.00000000000E+00  0.55233865043E+03  0.55233865044E+03  0.25500000000E-02 0. -1.
         -2   -1    0    0    0  501 -0.00000000000E+00 -0.00000000000E+00 -0.37834556185E+01  0.37834564778E+01  0.25500000000E-02 0.  1.
         23    2    1    2    0    0  0.00000000000E+00  0.00000000000E+00  0.54855519481E+03  0.55612210691E+03  0.91427545321E+02 0.  0.
    9000005    2    3    3    0    0  0.77220437805E+01  0.26451924822E+02  0.49437042505E+03  0.49533293386E+03  0.13901939115E+02 0.  0.
         22    1    3    3    0    0 -0.77220437805E+01 -0.26451924822E+02  0.54184769760E+02  0.60789173057E+02  0.00000000000E+00 0.  1.
         22    1    4    4    0    0  0.43383906831E+01  0.76420962136E+01  0.72629358764E+02  0.73159052910E+02  0.00000000000E+00 0.  1.
         22    1    4    4    0    0  0.33836530974E+01  0.18809828608E+02  0.42174106629E+03  0.42217388095E+03  0.00000000000E+00 0.  1.
<mgrwt>
<rscale>  0 0.91427545E+02</rscale>
<asrwt>0</asrwt>
<pdfrwt beam="1">  1        2 0.84975218E-01 0.91427545E+02</pdfrwt>
<pdfrwt beam="2">  1       -2 0.58206988E-03 0.91427545E+02</pdfrwt>
<totfact> 0.22075434E+05</totfact>
</mgrwt>
</event>
<event>
 7    1  0.3960685E-009  0.9143684E+02  0.7818608E-02  0.1299409E+00
          2   -1    0    0  501    0  0.00000000000E+00  0.00000000000E+00  0.94656243085E+01  0.94656246520E+01  0.25500000000E-02 0. -1.
         -2   -1    0    0    0  501 -0.00000000000E+00 -0.00000000000E+00 -0.22081733171E+03  0.22081733172E+03  0.25500000000E-02 0.  1.
         23    2    1    2    0    0 -0.17763568394E-14  0.35527136788E-14 -0.21135170740E+03  0.23028295638E+03  0.91436840366E+02 0.  0.
    9000005    2    3    3    0    0  0.15495958627E+02  0.31079038061E+02 -0.17881141227E+03  0.18269196828E+03  0.14028641279E+02 0.  0.
         22    1    3    3    0    0 -0.15495958627E+02 -0.31079038061E+02 -0.32540295131E+02  0.47590988094E+02  0.00000000000E+00 0. -1.
         22    1    4    4    0    0  0.12344547742E+02  0.19312005323E+02 -0.82904706924E+02  0.86014718733E+02  0.00000000000E+00 0.  1.
         22    1    4    4    0    0  0.31514108852E+01  0.11767032738E+02 -0.95906705346E+02  0.96677249549E+02  0.00000000000E+00 0.  1.
<mgrwt>
<rscale>  0 0.91436840E+02</rscale>
<asrwt>0</asrwt>
<pdfrwt beam="1">  1        2 0.14562501E-02 0.91436840E+02</pdfrwt>
<pdfrwt beam="2">  1       -2 0.33971893E-01 0.91436840E+02</pdfrwt>
<totfact> 0.59189482E+04</totfact>
</mgrwt>
</event>
<event>
 7    1  0.3960685E-009  0.8029022E+02  0.7818608E-02  0.1328230E+00
         -2   -1    0    0    0  501 -0.00000000000E+00  0.00000000000E+00  0.32085295724E+01  0.32085305857E+01  0.25500000000E-02 0. -1.
          2   -1    0    0  501    0  0.00000000000E+00 -0.00000000000E+00 -0.50229544421E+03  0.50229544422E+03  0.25500000000E-02 0.  1.
         23    2    1    2    0    0  0.00000000000E+00  0.00000000000E+00 -0.49908691464E+03  0.50550397480E+03  0.80290224674E+02 0.  0.
    9000005    2    3    3    0    0  0.27807886343E+02 -0.16649438189E+02 -0.39597692483E+03  0.39741996889E+03  0.97172189338E+01 0.  0.
         22    1    3    3    0    0 -0.27807886343E+02  0.16649438189E+02 -0.10310998981E+03  0.10808400591E+03  0.00000000000E+00 0. -1.
         22    1    4    4    0    0  0.16110636672E+02 -0.13000034977E+02 -0.20249651074E+03  0.20355193535E+03  0.00000000000E+00 0. -1.
         22    1    4    4    0    0  0.11697249670E+02 -0.36494032121E+01 -0.19348041409E+03  0.19386803354E+03  0.00000000000E+00 0. -1.
<mgrwt>
<rscale>  0 0.80290225E+02</rscale>
<asrwt>0</asrwt>
<pdfrwt beam="2">  1        2 0.77276160E-01 0.80290225E+02</pdfrwt>
<pdfrwt beam="1">  1       -2 0.49362041E-03 0.80290225E+02</pdfrwt>
<totfact> 0.30146433E+05</totfact>
</mgrwt>
</event>
<event>
 7    1  0.3960685E-009  0.8757830E+02  0.7818608E-02  0.1308824E+00
         -2   -1    0    0    0  501 -0.00000000000E+00  0.00000000000E+00  0.11866157023E+03  0.11866157025E+03  0.25500000000E-02 0.  1.
          2   -1    0    0  501    0  0.00000000000E+00 -0.00000000000E+00 -0.16159314522E+02  0.16159314723E+02  0.25500000000E-02 0. -1.
         23    2    1    2    0    0 -0.35527136788E-14  0.00000000000E+00  0.10250225571E+03  0.13482088498E+03  0.87578299833E+02 0.  0.
    9000005    2    3    3    0    0  0.17393266398E+02 -0.36833425490E+02  0.28458229319E+02  0.50312040513E+02  0.78869293981E+01 0.  0.
         22    1    3    3    0    0 -0.17393266398E+02  0.36833425490E+02  0.74044026387E+02  0.84508844465E+02  0.00000000000E+00 0.  1.
         22    1    4    4    0    0  0.16435349142E+02 -0.27778055672E+02  0.20648410142E+02  0.38315765942E+02  0.00000000000E+00 0.  1.
         22    1    4    4    0    0  0.95791725547E+00 -0.90553698176E+01  0.78098191768E+01  0.11996274571E+02  0.00000000000E+00 0.  1.
<mgrwt>
<rscale>  0 0.87578300E+02</rscale>
<asrwt>0</asrwt>
<pdfrwt beam="2">  1        2 0.24860483E-02 0.87578300E+02</pdfrwt>
<pdfrwt beam="1">  1       -2 0.18255627E-01 0.87578300E+02</pdfrwt>
<totfact> 0.83727875E+04</totfact>
</mgrwt>
</event>
<event>
 7    1  0.3960685E-009  0.9190156E+02  0.7818608E-02  0.1298311E+00
          2   -1    0    0  501    0  0.00000000000E+00  0.00000000000E+00  0.95233756998E+01  0.95233760412E+01  0.25500000000E-02 0. -1.
         -2   -1    0    0    0  501 -0.00000000000E+00 -0.00000000000E+00 -0.22171490038E+03  0.22171490039E+03  0.25500000000E-02 0.  1.
         23    2    1    2    0    0  0.00000000000E+00  0.00000000000E+00 -0.21219152468E+03  0.23123827644E+03  0.91901563332E+02 0.  0.
    9000005    2    3    3    0    0 -0.12004241701E+02  0.22220960178E+02 -0.20261481628E+03  0.20422742243E+03  0.42665453684E+01 0.  0.
         22    1    3    3    0    0  0.12004241701E+02 -0.22220960178E+02 -0.95767084045E+01  0.27010854002E+02  0.00000000000E+00 0. -1.
         22    1    4    4    0    0 -0.46642114765E+01  0.69723558278E+01 -0.82694280144E+02  0.83118665672E+02  0.00000000000E+00 0.  1.
         22    1    4    4    0    0 -0.73400302244E+01  0.15248604351E+02 -0.11992053613E+03  0.12110875676E+03  0.00000000000E+00 0.  1.
<mgrwt>
<rscale>  0 0.91901563E+02</rscale>
<asrwt>0</asrwt>
<pdfrwt beam="1">  1        2 0.14651349E-02 0.91901563E+02</pdfrwt>
<pdfrwt beam="2">  1       -2 0.34109981E-01 0.91901563E+02</pdfrwt>
<totfact> 0.58316178E+04</totfact>
</mgrwt>
</event>
<event>
 7    1  0.3960685E-009  0.9167366E+02  0.7818608E-02  0.1298849E+00
          2   -1    0    0  501    0  0.00000000000E+00  0.00000000000E+00  0.22170232084E+03  0.22170232085E+03  0.25500000000E-02 0. -1.
         -2   -1    0    0    0  501 -0.00000000000E+00 -0.00000000000E+00 -0.94767396136E+01  0.94767399567E+01  0.25500000000E-02 0.  1.
         23    2    1    2    0    0  0.00000000000E+00 -0.71054273576E-14  0.21222558122E+03  0.23117906081E+03  0.91673664870E+02 0.  0.
    9000005    2    3    3    0    0  0.14491698764E+01 -0.39875609229E+02  0.16060064331E+03  0.16593108368E+03  0.12181690989E+02 0.  0.
         22    1    3    3    0    0 -0.14491698764E+01  0.39875609229E+02  0.51624937918E+02  0.65247977132E+02  0.00000000000E+00 0.  1.
         22    1    4    4    0    0  0.26701410934E+01 -0.39899878074E+02  0.14923030294E+03  0.15449535022E+03  0.00000000000E+00 0. -1.
         22    1    4    4    0    0 -0.12209712171E+01  0.24268845175E-01  0.11370340363E+02  0.11435733456E+02  0.00000000000E+00 0. -1.
<mgrwt>
<rscale>  0 0.91673665E+02</rscale>
<asrwt>0</asrwt>
<pdfrwt beam="1">  1        2 0.34108044E-01 0.91673665E+02</pdfrwt>
<pdfrwt beam="2">  1       -2 0.14579602E-02 0.91673665E+02</pdfrwt>
<totfact> 0.15826386E+05</totfact>
</mgrwt>
</event>
<event>
 7    1  0.3960685E-009  0.9081268E+02  0.7818608E-02  0.1300896E+00
         -2   -1    0    0    0  501 -0.00000000000E+00  0.00000000000E+00  0.57708916855E+01  0.57708922489E+01  0.25500000000E-02 0.  1.
          2   -1    0    0  501    0  0.00000000000E+00 -0.00000000000E+00 -0.35726466927E+03  0.35726466928E+03  0.25500000000E-02 0. -1.
         23    2    1    2    0    0  0.00000000000E+00  0.00000000000E+00 -0.35149377759E+03  0.36303556153E+03  0.90812682227E+02 0.  0.
    9000005    2    3    3    0    0 -0.12390917778E+02 -0.27976593262E+02 -0.30961529131E+03  0.31117004093E+03  0.53796977109E+01 0.  0.
         22    1    3    3    0    0  0.12390917778E+02  0.27976593262E+02 -0.41878486276E+02  0.51865520596E+02  0.00000000000E+00 0.  1.
         22    1    4    4    0    0 -0.66395555713E+01 -0.19786813426E+02 -0.22464558265E+03  0.22561303040E+03  0.00000000000E+00 0. -1.
         22    1    4    4    0    0 -0.57513622066E+01 -0.81897798363E+01 -0.84969708659E+02  0.85557010529E+02  0.00000000000E+00 0. -1.
<mgrwt>
<rscale>  0 0.90812682E+02</rscale>
<asrwt>0</asrwt>
<pdfrwt beam="2">  1        2 0.54963778E-01 0.90812682E+02</pdfrwt>
<pdfrwt beam="1">  1       -2 0.88782982E-03 0.90812682E+02</pdfrwt>
<totfact> 0.19367960E+05</totfact>
</mgrwt>
</event>
<event>
 7    1  0.3960685E-009  0.8825637E+02  0.7818608E-02  0.1307130E+00
         -2   -1    0    0    0  501 -0.00000000000E+00  0.00000000000E+00  0.72948580132E+02  0.72948580177E+02  0.25500000000E-02 0. -1.
          2   -1    0    0  501    0  0.00000000000E+00 -0.00000000000E+00 -0.26694100640E+02  0.26694100762E+02  0.25500000000E-02 0.  1.
         23    2    1    2    0    0  0.00000000000E+00  0.00000000000E+00  0.46254479492E+02  0.99642680938E+02  0.88256370827E+02 0.  0.
    9000005    2    3    3    0    0  0.22383312848E+02  0.35206578177E+02  0.11208943911E+02  0.45156853376E+02  0.13152381619E+02 0.  0.
         22    1    3    3    0    0 -0.22383312848E+02 -0.35206578177E+02  0.35045535582E+02  0.54485827563E+02  0.00000000000E+00 0. -1.
         22    1    4    4    0    0  0.20289200659E+02  0.32858252244E+02  0.13873252936E+02  0.41033931702E+02  0.00000000000E+00 0.  1.
         22    1    4    4    0    0  0.20941121888E+01  0.23483259334E+01 -0.26643090252E+01  0.41229216741E+01  0.00000000000E+00 0.  1.
<mgrwt>
<rscale>  0 0.88256371E+02</rscale>
<asrwt>0</asrwt>
<pdfrwt beam="2">  1        2 0.41067848E-02 0.88256371E+02</pdfrwt>
<pdfrwt beam="1">  1       -2 0.11222858E-01 0.88256371E+02</pdfrwt>
<totfact> 0.94467551E+04</totfact>
</mgrwt>
</event>
<event>
 7    1  0.3960685E-009  0.1110165E+03  0.7818608E-02  0.1258699E+00
          2   -1    0    0  501    0  0.00000000000E+00  0.00000000000E+00  0.84753796930E+02  0.84753796969E+02  0.25500000000E-02 0. -1.
         -2   -1    0    0    0  501 -0.00000000000E+00 -0.00000000000E+00 -0.36354292068E+02  0.36354292157E+02  0.25500000000E-02 0.  1.
         23    2    1    2    0    0 -0.35527136788E-14  0.00000000000E+00  0.48399504863E+02  0.12110808913E+03  0.11101647256E+03 0.  0.
    9000005    2    3    3    0    0  0.24532938455E+02 -0.10709980463E+02 -0.27398409391E+02  0.40722191383E+02  0.13822274889E+02 0.  0.
         22    1    3    3    0    0 -0.24532938455E+02  0.10709980463E+02  0.75797914254E+02  0.80385897743E+02  0.00000000000E+00 0. -1.
         22    1    4    4    0    0  0.66058569546E+01 -0.41960936725E+01 -0.62703969728E+00  0.78509698124E+01  0.00000000000E+00 0. -1.
         22    1    4    4    0    0  0.17927081500E+02 -0.65138867904E+01 -0.26771369694E+02  0.32871221570E+02  0.00000000000E+00 0. -1.
<mgrwt>
<rscale>  0 0.11101647E+03</rscale>
<asrwt>0</asrwt>
<pdfrwt beam="1">  1        2 0.13039045E-01 0.11101647E+03</pdfrwt>
<pdfrwt beam="2">  1       -2 0.55929681E-02 0.11101647E+03</pdfrwt>
<totfact> 0.67047419E+04</totfact>
</mgrwt>
</event>
<event>
 7    1  0.3960685E-009  0.9275293E+02  0.7818608E-02  0.1296319E+00
         -2   -1    0    0    0  501 -0.00000000000E+00  0.00000000000E+00  0.66030469817E+01  0.66030474741E+01  0.25500000000E-02 0.  1.
          2   -1    0    0  501    0  0.00000000000E+00 -0.00000000000E+00 -0.32572482190E+03  0.32572482191E+03  0.25500000000E-02 0. -1.
         23    2    1    2    0    0  0.00000000000E+00  0.00000000000E+00 -0.31912177492E+03  0.33232786938E+03  0.92752927405E+02 0.  0.
    9000005    2    3    3    0    0 -0.40408523391E+02  0.19736747298E+02 -0.17138262932E+03  0.17789586785E+03  0.15891702484E+02 0.  0.
         22    1    3    3    0    0  0.40408523391E+02 -0.19736747298E+02 -0.14773914559E+03  0.15443200153E+03  0.00000000000E+00 0. -1.
         22    1    4    4    0    0 -0.11558143180E+02  0.60275958126E+01 -0.26482696406E+02  0.29517042433E+02  0.00000000000E+00 0.  1.
         22    1    4    4    0    0 -0.28850380211E+02  0.13709151486E+02 -0.14489993292E+03  0.14837882542E+03  0.00000000000E+00 0.  1.
<mgrwt>
<rscale>  0 0.92752927E+02</rscale>
<asrwt>0</asrwt>
<pdfrwt beam="2">  1        2 0.50111499E-01 0.92752927E+02</pdfrwt>
<pdfrwt beam="1">  1       -2 0.10158537E-02 0.92752927E+02</pdfrwt>
<totfact> 0.17695214E+05</totfact>
</mgrwt>
</event>
<event>
 7    1  0.3960685E-009  0.9080148E+02  0.7818608E-02  0.1300922E+00
         -2   -1    0    0    0  501 -0.00000000000E+00  0.00000000000E+00  0.50767057300E+03  0.50767057301E+03  0.25500000000E-02 0. -1.
          2   -1    0    0  501    0  0.00000000000E+00 -0.00000000000E+00 -0.40601664997E+01  0.40601673004E+01  0.25500000000E-02 0.  1.
         23    2    1    2    0    0  0.00000000000E+00 -0.35527136788E-14  0.50361040650E+03  0.51173074031E+03  0.90801481483E+02 0.  0.
    9000005    2    3    3    0    0  0.35793858757E+02  0.26695387240E+02  0.25137301339E+03  0.25557151930E+03  0.11600240991E+02 0.  0.
         22    1    3    3    0    0 -0.35793858757E+02 -0.26695387240E+02  0.25223739312E+03  0.25615922101E+03  0.00000000000E+00 0. -1.
         22    1    4    4    0    0  0.71548347215E+01  0.28420084051E+01  0.25256580060E+02  0.26403854037E+02  0.00000000000E+00 0.  1.
         22    1    4    4    0    0  0.28639024036E+02  0.23853378835E+02  0.22611643333E+03  0.22916766526E+03  0.00000000000E+00 0.  1.
<mgrwt>
<rscale>  0 0.90801481E+02</rscale>
<asrwt>0</asrwt>
<pdfrwt beam="2">  1        2 0.62464109E-03 0.90801481E+02</pdfrwt>
<pdfrwt beam="1">  1       -2 0.78103161E-01 0.90801481E+02</pdfrwt>
<totfact> 0.36260628E+04</totfact>
</mgrwt>
</event>
<event>
 7    1  0.3960685E-009  0.8774512E+02  0.7818608E-02  0.1308406E+00
         -2   -1    0    0    0  501 -0.00000000000E+00  0.00000000000E+00  0.24219752604E+02  0.24219752739E+02  0.25500000000E-02 0.  1.
          2   -1    0    0  501    0  0.00000000000E+00 -0.00000000000E+00 -0.79472391150E+02  0.79472391190E+02  0.25500000000E-02 0. -1.
         23    2    1    2    0    0  0.17763568394E-14  0.00000000000E+00 -0.55252638545E+02  0.10369214393E+03  0.87745123206E+02 0.  0.
    9000005    2    3    3    0    0 -0.12210919876E+02  0.21525584396E+02 -0.69824907407E+02  0.74972666782E+02  0.11529341796E+02 0.  0.
         22    1    3    3    0    0  0.12210919876E+02 -0.21525584396E+02  0.14572268862E+02  0.28719477147E+02  0.00000000000E+00 0.  1.
         22    1    4    4    0    0  0.20688286585E+01  0.52306844750E+01 -0.15240106769E+02  0.16245028975E+02  0.00000000000E+00 0.  1.
         22    1    4    4    0    0 -0.14279748534E+02  0.16294899921E+02 -0.54584800638E+02  0.58727637807E+02  0.00000000000E+00 0.  1.
<mgrwt>
<rscale>  0 0.87745123E+02</rscale>
<asrwt>0</asrwt>
<pdfrwt beam="2">  1        2 0.12226522E-01 0.87745123E+02</pdfrwt>
<pdfrwt beam="1">  1       -2 0.37261158E-02 0.87745123E+02</pdfrwt>
<totfact> 0.12748915E+05</totfact>
</mgrwt>
</event>
<event>
 7    1  0.3960685E-009  0.9116722E+02  0.7818608E-02  0.1300049E+00
         -2   -1    0    0    0  501 -0.00000000000E+00  0.00000000000E+00  0.51592523155E+02  0.51592523219E+02  0.25500000000E-02 0. -1.
          2   -1    0    0  501    0  0.00000000000E+00 -0.00000000000E+00 -0.40274546517E+02  0.40274546598E+02  0.25500000000E-02 0.  1.
         23    2    1    2    0    0  0.00000000000E+00  0.00000000000E+00  0.11317976639E+02  0.91867069816E+02  0.91167219555E+02 0.  0.
    9000005    2    3    3    0    0 -0.28809224916E+02 -0.95993217242E+01 -0.27972562610E+02  0.42209594122E+02  0.87787903027E+01 0.  0.
         22    1    3    3    0    0  0.28809224916E+02  0.95993217242E+01  0.39290539249E+02  0.49657475694E+02  0.00000000000E+00 0. -1.
         22    1    4    4    0    0 -0.14725389809E+02 -0.28924524839E+01 -0.84568615275E+01  0.17225617356E+02  0.00000000000E+00 0.  1.
         22    1    4    4    0    0 -0.14083835107E+02 -0.67068692403E+01 -0.19515701082E+02  0.24983976767E+02  0.00000000000E+00 0.  1.
<mgrwt>
<rscale>  0 0.91167220E+02</rscale>
<asrwt>0</asrwt>
<pdfrwt beam="2">  1        2 0.61960841E-02 0.91167220E+02</pdfrwt>
<pdfrwt beam="1">  1       -2 0.79373113E-02 0.91167220E+02</pdfrwt>
<totfact> 0.95586681E+04</totfact>
</mgrwt>
</event>
<event>
 7    1  0.3960685E-009  0.8922118E+02  0.7818608E-02  0.1304749E+00
          2   -1    0    0  501    0  0.00000000000E+00  0.00000000000E+00  0.14727963656E+04  0.14727963656E+04  0.25500000000E-02 0. -1.
         -2   -1    0    0    0  501 -0.00000000000E+00 -0.00000000000E+00 -0.13512411463E+01  0.13512435524E+01  0.25500000000E-02 0.  1.
         23    2    1    2    0    0  0.35527136788E-14  0.00000000000E+00  0.14714451244E+04  0.14741476091E+04  0.89221181887E+02 0.  0.
    9000005    2    3    3    0    0 -0.17561295186E+02  0.10771725248E+02  0.13872127661E+04  0.13874324470E+04  0.13605418285E+02 0.  0.
         22    1    3    3    0    0  0.17561295186E+02 -0.10771725248E+02  0.84232358338E+02  0.86715162138E+02  0.00000000000E+00 0.  1.
         22    1    4    4    0    0 -0.93232571201E+01  0.86038432541E+01  0.44399292877E+03  0.44417414382E+03  0.00000000000E+00 0. -1.
         22    1    4    4    0    0 -0.82380380661E+01  0.21678819937E+01  0.94321983732E+03  0.94325830317E+03  0.00000000000E+00 0. -1.
<mgrwt>
<rscale>  0 0.89221182E+02</rscale>
<asrwt>0</asrwt>
<pdfrwt beam="1">  1        2 0.22658372E+00 0.89221182E+02</pdfrwt>
<pdfrwt beam="2">  1       -2 0.20788374E-03 0.89221182E+02</pdfrwt>
<totfact> 0.25150149E+05</totfact>
</mgrwt>
</event>
<event>
 7    1  0.4079380E-009  0.9194665E+02  0.7818608E-02  0.1298205E+00
          2   -1    0    0  501    0  0.00000000000E+00  0.00000000000E+00  0.85289331836E+02  0.85289331874E+02  0.25500000000E-02 0.  1.
         -2   -1    0    0    0  501 -0.00000000000E+00 -0.00000000000E+00 -0.24780899949E+02  0.24780900081E+02  0.25500000000E-02 0. -1.
         23    2    1    2    0    0  0.00000000000E+00  0.00000000000E+00  0.60508431887E+02  0.11007023195E+03  0.91946645579E+02 0.  0.
    9000005    2    3    3    0    0  0.16253449681E+02 -0.17074218829E+02 -0.15296475826E+02  0.30684543015E+02  0.12322963611E+02 0.  0.
         22    1    3    3    0    0 -0.16253449681E+02  0.17074218829E+02  0.75804907713E+02  0.79385688940E+02  0.00000000000E+00 0.  1.
         22    1    4    4    0    0  0.14970388505E+01 -0.76415442694E+01 -0.93969498756E+01  0.12203974398E+02  0.00000000000E+00 0. -1.
         22    1    4    4    0    0  0.14756410831E+02 -0.94326745600E+01 -0.58995259504E+01  0.18480568617E+02  0.00000000000E+00 0. -1.
<mgrwt>
<rscale>  0 0.91946646E+02</rscale>
<asrwt>0</asrwt>
<pdfrwt beam="1">  1        2 0.13121435E-01 0.91946646E+02</pdfrwt>
<pdfrwt beam="2">  1       -2 0.38124462E-02 0.91946646E+02</pdfrwt>
<totfact> 0.11429873E+05</totfact>
</mgrwt>
</event>
<event>
 7    1  0.8834332E-009  0.8954064E+02  0.7818608E-02  0.1303968E+00
         -2   -1    0    0    0  501 -0.00000000000E+00  0.00000000000E+00  0.29696905271E+01  0.29696916219E+01  0.25500000000E-02 0.  1.
          2   -1    0    0  501    0  0.00000000000E+00 -0.00000000000E+00 -0.67494618940E+03  0.67494618940E+03  0.25500000000E-02 0. -1.
         23    2    1    2    0    0  0.00000000000E+00  0.00000000000E+00 -0.67197649887E+03  0.67791588102E+03  0.89540642787E+02 0.  0.
    9000005    2    3    3    0    0  0.30175785552E+02  0.10915106899E+02 -0.56745229282E+03  0.56857683383E+03  0.15741465668E+02 0.  0.
         22    1    3    3    0    0 -0.30175785552E+02 -0.10915106899E+02 -0.10452420604E+03  0.10933904720E+03  0.00000000000E+00 0.  1.
         22    1    4    4    0    0  0.23761082411E+02  0.10992873718E+02 -0.32964146599E+03  0.33067949499E+03  0.00000000000E+00 0.  1.
         22    1    4    4    0    0  0.64147031413E+01 -0.77766819343E-01 -0.23781082684E+03  0.23789733884E+03  0.00000000000E+00 0.  1.
<mgrwt>
<rscale>  0 0.89540643E+02</rscale>
<asrwt>0</asrwt>
<pdfrwt beam="2">  1        2 0.10383775E+00 0.89540643E+02</pdfrwt>
<pdfrwt beam="1">  1       -2 0.45687609E-03 0.89540643E+02</pdfrwt>
<totfact> 0.24657215E+05</totfact>
</mgrwt>
</event>
<event>
 7    1  0.3960685E-009  0.8354615E+02  0.7818608E-02  0.1319279E+00
         -2   -1    0    0    0  501 -0.00000000000E+00  0.00000000000E+00  0.89339057961E+01  0.89339061601E+01  0.25500000000E-02 0.  1.
          2   -1    0    0  501    0  0.00000000000E+00 -0.00000000000E+00 -0.19532217929E+03  0.19532217931E+03  0.25500000000E-02 0. -1.
         23    2    1    2    0    0 -0.22204460493E-15  0.00000000000E+00 -0.18638827350E+03  0.20425608547E+03  0.83546154635E+02 0.  0.
    9000005    2    3    3    0    0  0.18120894974E+01 -0.28574350243E+02 -0.16711342171E+03  0.16974091386E+03  0.80811484636E+01 0.  0.
         22    1    3    3    0    0 -0.18120894974E+01  0.28574350243E+02 -0.19274851786E+02  0.34515171614E+02  0.00000000000E+00 0.  1.
         22    1    4    4    0    0 -0.17303448898E+01 -0.21933682527E+02 -0.11486640637E+03  0.11695457167E+03  0.00000000000E+00 0. -1.
         22    1    4    4    0    0  0.35424343872E+01 -0.66406677166E+01 -0.52247015342E+02  0.52786342185E+02  0.00000000000E+00 0. -1.
<mgrwt>
<rscale>  0 0.83546155E+02</rscale>
<asrwt>0</asrwt>
<pdfrwt beam="2">  1        2 0.30049563E-01 0.83546155E+02</pdfrwt>
<pdfrwt beam="1">  1       -2 0.13744472E-02 0.83546155E+02</pdfrwt>
<totfact> 0.19381615E+05</totfact>
</mgrwt>
</event>
<event>
 7    1  0.3960685E-009  0.9053861E+02  0.7818608E-02  0.1301553E+00
         -2   -1    0    0    0  501 -0.00000000000E+00  0.00000000000E+00  0.11793470860E+02  0.11793471136E+02  0.25500000000E-02 0.  1.
          2   -1    0    0  501    0  0.00000000000E+00 -0.00000000000E+00 -0.17376650087E+03  0.17376650089E+03  0.25500000000E-02 0. -1.
         23    2    1    2    0    0  0.00000000000E+00 -0.17763568394E-14 -0.16197303001E+03  0.18555997203E+03  0.90538614787E+02 0.  0.
    9000005    2    3    3    0    0  0.35883807161E+02 -0.13608541635E+02 -0.32534194949E+02  0.50551631381E+02  0.49146284159E+01 0.  0.
         22    1    3    3    0    0 -0.35883807161E+02  0.13608541635E+02 -0.12943883506E+03  0.13500834065E+03  0.00000000000E+00 0. -1.
         22    1    4    4    0    0  0.23394786514E+02 -0.70755638494E+01 -0.22778643535E+02  0.33410271491E+02  0.00000000000E+00 0. -1.
         22    1    4    4    0    0  0.12489020647E+02 -0.65329777853E+01 -0.97555514139E+01  0.17141359889E+02  0.00000000000E+00 0. -1.
<mgrwt>
<rscale>  0 0.90538615E+02</rscale>
<asrwt>0</asrwt>
<pdfrwt beam="2">  1        2 0.26733306E-01 0.90538615E+02</pdfrwt>
<pdfrwt beam="1">  1       -2 0.18143803E-02 0.90538615E+02</pdfrwt>
<totfact> 0.14992035E+05</totfact>
</mgrwt>
</event>
<event>
 7    1  0.3960685E-009  0.8661677E+02  0.7818608E-02  0.1311258E+00
          2   -1    0    0  501    0  0.00000000000E+00  0.00000000000E+00  0.53857026963E+02  0.53857027023E+02  0.25500000000E-02 0. -1.
         -2   -1    0    0    0  501 -0.00000000000E+00 -0.00000000000E+00 -0.34825841223E+02  0.34825841317E+02  0.25500000000E-02 0.  1.
         23    2    1    2    0    0  0.00000000000E+00  0.00000000000E+00  0.19031185740E+02  0.88682868340E+02  0.86616771507E+02 0.  0.
    9000005    2    3    3    0    0 -0.31481301220E+02  0.11282853421E+02  0.36868176969E+02  0.50781240882E+02  0.10054692668E+02 0.  0.
         22    1    3    3    0    0  0.31481301220E+02 -0.11282853421E+02 -0.17836991230E+02  0.37901627458E+02  0.00000000000E+00 0.  1.
         22    1    4    4    0    0 -0.24289979495E+02  0.48964621112E+01  0.30266739509E+02  0.39115904253E+02  0.00000000000E+00 0. -1.
         22    1    4    4    0    0 -0.71913217253E+01  0.63863913094E+01  0.66014374604E+01  0.11665336629E+02  0.00000000000E+00 0. -1.
<mgrwt>
<rscale>  0 0.86616772E+02</rscale>
<asrwt>0</asrwt>
<pdfrwt beam="1">  1        2 0.82856965E-02 0.86616772E+02</pdfrwt>
<pdfrwt beam="2">  1       -2 0.53578217E-02 0.86616772E+02</pdfrwt>
<totfact> 0.11912916E+05</totfact>
</mgrwt>
</event>
<event>
 7    1  0.3960685E-009  0.9356508E+02  0.7818608E-02  0.1294441E+00
          2   -1    0    0  501    0  0.00000000000E+00  0.00000000000E+00  0.12441002590E+04  0.12441002590E+04  0.25500000000E-02 0. -1.
         -2   -1    0    0    0  501 -0.00000000000E+00 -0.00000000000E+00 -0.17591869619E+01  0.17591888100E+01  0.25500000000E-02 0.  1.
         23    2    1    2    0    0 -0.17763568394E-14 -0.17763568394E-14  0.12423410721E+04  0.12458594479E+04  0.93565081261E+02 0.  0.
    9000005    2    3    3    0    0 -0.10250600965E+02 -0.10738802202E+02  0.12117228643E+04  0.12118319392E+04  0.66296669409E+01 0.  0.
         22    1    3    3    0    0  0.10250600965E+02  0.10738802202E+02  0.30618207829E+02  0.34027508630E+02  0.00000000000E+00 0.  1.
         22    1    4    4    0    0 -0.32858971531E+00  0.62262295940E+00  0.15307256982E+03  0.15307418875E+03  0.00000000000E+00 0.  1.
         22    1    4    4    0    0 -0.99220112500E+01 -0.11361425161E+02  0.10586502944E+04  0.10587577505E+04  0.00000000000E+00 0.  1.
<mgrwt>
<rscale>  0 0.93565081E+02</rscale>
<asrwt>0</asrwt>
<pdfrwt beam="1">  1        2 0.19140074E+00 0.93565081E+02</pdfrwt>
<pdfrwt beam="2">  1       -2 0.27064331E-03 0.93565081E+02</pdfrwt>
<totfact> 0.23122825E+05</totfact>
</mgrwt>
</event>
<event>
 7    1  0.3960685E-009  0.8881019E+02  0.7818608E-02  0.1305759E+00
         -2   -1    0    0    0  501 -0.00000000000E+00  0.00000000000E+00  0.30964254824E+01  0.30964265324E+01  0.25500000000E-02 0. -1.
          2   -1    0    0  501    0  0.00000000000E+00 -0.00000000000E+00 -0.63680266642E+03  0.63680266642E+03  0.25500000000E-02 0.  1.
         23    2    1    2    0    0  0.00000000000E+00  0.00000000000E+00 -0.63370624094E+03  0.63989909296E+03  0.88810187279E+02 0.  0.
    9000005    2    3    3    0    0 -0.26350141686E+02  0.28105852055E+02 -0.47231989411E+03  0.47397796161E+03  0.92063472338E+01 0.  0.
         22    1    3    3    0    0  0.26350141686E+02 -0.28105852055E+02 -0.16138634682E+03  0.16592113135E+03  0.00000000000E+00 0. -1.
         22    1    4    4    0    0 -0.23467987743E+02  0.24391484043E+02 -0.44217794755E+03  0.44347156419E+03  0.00000000000E+00 0.  1.
         22    1    4    4    0    0 -0.28821539422E+01  0.37143680128E+01 -0.30141946559E+02  0.30506397418E+02  0.00000000000E+00 0.  1.
<mgrwt>
<rscale>  0 0.88810187E+02</rscale>
<asrwt>0</asrwt>
<pdfrwt beam="2">  1        2 0.97969537E-01 0.88810187E+02</pdfrwt>
<pdfrwt beam="1">  1       -2 0.47637374E-03 0.88810187E+02</pdfrwt>
<totfact> 0.24822890E+05</totfact>
</mgrwt>
</event>
<event>
 7    1  0.3960685E-009  0.9122984E+02  0.7818608E-02  0.1299901E+00
         -2   -1    0    0    0  501 -0.00000000000E+00  0.00000000000E+00  0.63266707566E+01  0.63266712705E+01  0.25500000000E-02 0.  1.
          2   -1    0    0  501    0  0.00000000000E+00 -0.00000000000E+00 -0.32888082157E+03  0.32888082158E+03  0.25500000000E-02 0. -1.
         23    2    1    2    0    0  0.00000000000E+00  0.00000000000E+00 -0.32255415081E+03  0.33520749285E+03  0.91229836435E+02 0.  0.
    9000005    2    3    3    0    0 -0.22393888215E+01  0.18815630152E+02 -0.31362742740E+03  0.31426162951E+03  0.62582554794E+01 0.  0.
         22    1    3    3    0    0  0.22393888215E+01 -0.18815630152E+02 -0.89267234106E+01  0.20945863342E+02  0.00000000000E+00 0.  1.
         22    1    4    4    0    0 -0.19325876793E+01  0.16297649976E+02 -0.29576509579E+03  0.29622008739E+03  0.00000000000E+00 0.  1.
         22    1    4    4    0    0 -0.30680114224E+00  0.25179801759E+01 -0.17862331614E+02  0.18041542112E+02  0.00000000000E+00 0.  1.
<mgrwt>
<rscale>  0 0.91229836E+02</rscale>
<asrwt>0</asrwt>
<pdfrwt beam="2">  1        2 0.50597036E-01 0.91229836E+02</pdfrwt>
<pdfrwt beam="1">  1       -2 0.97333426E-03 0.91229836E+02</pdfrwt>
<totfact> 0.18560544E+05</totfact>
</mgrwt>
</event>
<event>
 6    1  0.3960685E-009  0.1372293E+03  0.7818608E-02  0.1217107E+00
          2   -1    0    0  501    0  0.00000000000E+00  0.00000000000E+00  0.60316153074E+02  0.60316153128E+02  0.25500000000E-02 0. -1.
         -2   -1    0    0    0  501 -0.00000000000E+00 -0.00000000000E+00 -0.78054834663E+02  0.78054834705E+02  0.25500000000E-02 0.  1.
    9000005    2    1    2    0    0  0.55927837180E+02  0.38136868824E+02 -0.99962714295E+01  0.70236645167E+02  0.15840364469E+02 0.  0.
         22    1    1    2    0    0 -0.55927837180E+02 -0.38136868824E+02 -0.77424101599E+01  0.68134342665E+02  0.00000000000E+00 0. -1.
         22    1    3    3    0    0  0.77181363318E+01  0.12084408452E+02  0.89218591164E+00  0.14366577595E+02  0.00000000000E+00 0. -1.
         22    1    3    3    0    0  0.48209700848E+02  0.26052460372E+02 -0.10888457341E+02  0.55870067572E+02  0.00000000000E+00 0. -1.
<mgrwt>
<rscale>  0 0.13722926E+03</rscale>
<asrwt>0</asrwt>
<pdfrwt beam="1">  1        2 0.92794082E-02 0.13722926E+03</pdfrwt>
<pdfrwt beam="2">  1       -2 0.12008436E-01 0.13722926E+03</pdfrwt>
<totfact> 0.31901525E+04</totfact>
</mgrwt>
</event>
<event>
 7    1  0.3960685E-009  0.9150114E+02  0.7818608E-02  0.1299257E+00
         -2   -1    0    0    0  501 -0.00000000000E+00  0.00000000000E+00  0.50000999903E+03  0.50000999904E+03  0.25500000000E-02 0.  1.
          2   -1    0    0  501    0  0.00000000000E+00 -0.00000000000E+00 -0.41861456068E+01  0.41861463835E+01  0.25500000000E-02 0. -1.
         23    2    1    2    0    0  0.00000000000E+00  0.00000000000E+00  0.49582385342E+03  0.50419614542E+03  0.91501144435E+02 0.  0.
    9000005    2    3    3    0    0 -0.24460319807E+02  0.65915494826E+01  0.45775058984E+03  0.45846509284E+03  0.35893022213E+01 0.  0.
         22    1    3    3    0    0  0.24460319807E+02 -0.65915494826E+01  0.38073263587E+02  0.45731052577E+02  0.00000000000E+00 0. -1.
         22    1    4    4    0    0 -0.11522679464E+02  0.44158768474E+01  0.24471595927E+03  0.24502688186E+03  0.00000000000E+00 0. -1.
         22    1    4    4    0    0 -0.12937640343E+02  0.21756726352E+01  0.21303463057E+03  0.21343821099E+03  0.00000000000E+00 0. -1.
<mgrwt>
<rscale>  0 0.91501144E+02</rscale>
<asrwt>0</asrwt>
<pdfrwt beam="2">  1        2 0.64402239E-03 0.91501144E+02</pdfrwt>
<pdfrwt beam="1">  1       -2 0.76924624E-01 0.91501144E+02</pdfrwt>
<totfact> 0.35971523E+04</totfact>
</mgrwt>
</event>
<event>
 7    1  0.3960685E-009  0.8653942E+02  0.7818608E-02  0.1311455E+00
          2   -1    0    0  501    0  0.00000000000E+00  0.00000000000E+00  0.91246147670E+03  0.91246147671E+03  0.25500000000E-02 0.  1.
         -2   -1    0    0    0  501 -0.00000000000E+00 -0.00000000000E+00 -0.20518860939E+01  0.20518876784E+01  0.25500000000E-02 0. -1.
         23    2    1    2    0    0  0.00000000000E+00  0.00000000000E+00  0.91040959061E+03  0.91451336439E+03  0.86539418565E+02 0.  0.
    9000005    2    3    3    0    0 -0.32222564241E+02 -0.99390550246E+01  0.73960798287E+03  0.74041492193E+03  0.75637174418E+01 0.  0.
         22    1    3    3    0    0  0.32222564241E+02  0.99390550246E+01  0.17080160774E+03  0.17409844246E+03  0.00000000000E+00 0. -1.
         22    1    4    4    0    0 -0.11978410168E+01 -0.17378649533E+01  0.25898596762E+02  0.25984462895E+02  0.00000000000E+00 0.  1.
         22    1    4    4    0    0 -0.31024723225E+02 -0.82011900713E+01  0.71370938611E+03  0.71443045903E+03  0.00000000000E+00 0.  1.
<mgrwt>
<rscale>  0 0.86539419E+02</rscale>
<asrwt>0</asrwt>
<pdfrwt beam="1">  1        2 0.14037846E+00 0.86539419E+02</pdfrwt>
<pdfrwt beam="2">  1       -2 0.31567541E-03 0.86539419E+02</pdfrwt>
<totfact> 0.28480317E+05</totfact>
</mgrwt>
</event>
<event>
 7    1  0.3960685E-009  0.1028190E+03  0.7818608E-02  0.1274477E+00
         -2   -1    0    0    0  501 -0.00000000000E+00  0.00000000000E+00  0.10157780019E+03  0.10157780022E+03  0.25500000000E-02 0. -1.
          2   -1    0    0  501    0  0.00000000000E+00 -0.00000000000E+00 -0.26018818035E+02  0.26018818160E+02  0.25500000000E-02 0.  1.
         23    2    1    2    0    0  0.00000000000E+00  0.00000000000E+00  0.75558982155E+02  0.12759661838E+03  0.10281895369E+03 0.  0.
    9000005    2    3    3    0    0 -0.43707260270E+02 -0.22360037750E+02  0.19019622674E+02  0.52716747528E+02  0.26483078961E+01 0.  0.
         22    1    3    3    0    0  0.43707260270E+02  0.22360037750E+02  0.56539359482E+02  0.74879870854E+02  0.00000000000E+00 0. -1.
         22    1    4    4    0    0 -0.40140156780E+02 -0.21005150436E+02  0.16912399569E+02  0.48357810024E+02  0.00000000000E+00 0. -1.
         22    1    4    4    0    0 -0.35671034900E+01 -0.13548873143E+01  0.21072231049E+01  0.43589375032E+01  0.00000000000E+00 0. -1.
<mgrwt>
<rscale>  0 0.10281895E+03</rscale>
<asrwt>0</asrwt>
<pdfrwt beam="2">  1        2 0.40028951E-02 0.10281895E+03</pdfrwt>
<pdfrwt beam="1">  1       -2 0.15627354E-01 0.10281895E+03</pdfrwt>
<totfact> 0.58909203E+04</totfact>
</mgrwt>
</event>
<event>
 7    1  0.3960685E-009  0.9032698E+02  0.7818608E-02  0.1302062E+00
          2   -1    0    0  501    0  0.00000000000E+00  0.00000000000E+00  0.60372038829E+02  0.60372038883E+02  0.25500000000E-02 0.  1.
         -2   -1    0    0    0  501 -0.00000000000E+00 -0.00000000000E+00 -0.33786184442E+02  0.33786184538E+02  0.25500000000E-02 0. -1.
         23    2    1    2    0    0  0.00000000000E+00  0.00000000000E+00  0.26585854387E+02  0.94158223421E+02  0.90326980378E+02 0.  0.
    9000005    2    3    3    0    0  0.19166864531E+02 -0.39281113290E+02  0.10094690099E+02  0.47442775688E+02  0.15444728536E+02 0.  0.
         22    1    3    3    0    0 -0.19166864531E+02  0.39281113290E+02  0.16491164289E+02  0.46715447733E+02  0.00000000000E+00 0. -1.
         22    1    4    4    0    0  0.11299749441E+02 -0.19914791505E+02  0.13013159259E+02  0.26336772240E+02  0.00000000000E+00 0. -1.
         22    1    4    4    0    0  0.78671150898E+01 -0.19366321785E+02 -0.29184691604E+01  0.21106003448E+02  0.00000000000E+00 0. -1.
<mgrwt>
<rscale>  0 0.90326980E+02</rscale>
<asrwt>0</asrwt>
<pdfrwt beam="1">  1        2 0.92880060E-02 0.90326980E+02</pdfrwt>
<pdfrwt beam="2">  1       -2 0.51978745E-02 0.90326980E+02</pdfrwt>
<totfact> 0.10908402E+05</totfact>
</mgrwt>
</event>
<event>
 7    1  0.3960685E-009  0.8808306E+02  0.7818608E-02  0.1307561E+00
         -2   -1    0    0    0  501 -0.00000000000E+00  0.00000000000E+00  0.23297758901E+02  0.23297759040E+02  0.25500000000E-02 0.  1.
          2   -1    0    0  501    0  0.00000000000E+00 -0.00000000000E+00 -0.83255060737E+02  0.83255060776E+02  0.25500000000E-02 0. -1.
         23    2    1    2    0    0 -0.17763568394E-14  0.00000000000E+00 -0.59957301836E+02  0.10655281982E+03  0.88083059480E+02 0.  0.
    9000005    2    3    3    0    0 -0.15207519921E+02  0.70869931142E+01  0.18671679201E+02  0.26153747729E+02  0.73411703789E+01 0.  0.
         22    1    3    3    0    0  0.15207519921E+02 -0.70869931142E+01 -0.78628981037E+02  0.80399072087E+02  0.00000000000E+00 0. -1.
         22    1    4    4    0    0 -0.10739298997E+02  0.10919529695E+01  0.11892728214E+02  0.16061192005E+02  0.00000000000E+00 0. -1.
         22    1    4    4    0    0 -0.44682209235E+01  0.59950401447E+01  0.67789509870E+01  0.10092555724E+02  0.00000000000E+00 0. -1.
<mgrwt>
<rscale>  0 0.88083059E+02</rscale>
<asrwt>0</asrwt>
<pdfrwt beam="2">  1        2 0.12808471E-01 0.88083059E+02</pdfrwt>
<pdfrwt beam="1">  1       -2 0.35842707E-02 0.88083059E+02</pdfrwt>
<totfact> 0.12781419E+05</totfact>
</mgrwt>
</event>
<event>
 7    1  0.3960685E-009  0.9268339E+02  0.7818608E-02  0.1296481E+00
         -2   -1    0    0    0  501 -0.00000000000E+00  0.00000000000E+00  0.34557309643E+03  0.34557309644E+03  0.25500000000E-02 0.  1.
          2   -1    0    0  501    0  0.00000000000E+00 -0.00000000000E+00 -0.62144666529E+01  0.62144671761E+01  0.25500000000E-02 0. -1.
         23    2    1    2    0    0  0.00000000000E+00  0.00000000000E+00  0.33935862978E+03  0.35178756362E+03  0.92683387457E+02 0.  0.
    9000005    2    3    3    0    0 -0.91465575360E+01  0.10325591994E+02  0.33729113113E+03  0.33783937680E+03  0.13411189989E+02 0.  0.
         22    1    3    3    0    0  0.91465575360E+01 -0.10325591994E+02  0.20674986543E+01  0.13948186817E+02  0.00000000000E+00 0. -1.
         22    1    4    4    0    0 -0.12308532155E+02  0.99301468329E+01  0.25801106036E+03  0.25849529019E+03  0.00000000000E+00 0.  1.
         22    1    4    4    0    0  0.31619746190E+01  0.39544516123E+00  0.79280070762E+02  0.79344086613E+02  0.00000000000E+00 0.  1.
<mgrwt>
<rscale>  0 0.92683387E+02</rscale>
<asrwt>0</asrwt>
<pdfrwt beam="2">  1        2 0.95607152E-03 0.92683387E+02</pdfrwt>
<pdfrwt beam="1">  1       -2 0.53165109E-01 0.92683387E+02</pdfrwt>
<totfact> 0.44979421E+04</totfact>
</mgrwt>
</event>
<event>
 7    1  0.3960685E-009  0.9170180E+02  0.7818608E-02  0.1298782E+00
         -2   -1    0    0    0  501 -0.00000000000E+00  0.00000000000E+00  0.43499270887E+01  0.43499278361E+01  0.25500000000E-02 0.  1.
          2   -1    0    0  501    0  0.00000000000E+00 -0.00000000000E+00 -0.48329653856E+03  0.48329653857E+03  0.25500000000E-02 0. -1.
         23    2    1    2    0    0  0.00000000000E+00  0.00000000000E+00 -0.47894661147E+03  0.48764646640E+03  0.91701796904E+02 0.  0.
    9000005    2    3    3    0    0  0.22524282072E+02  0.17096697441E+02 -0.43008308696E+03  0.43119042710E+03  0.12412992618E+02 0.  0.
         22    1    3    3    0    0 -0.22524282072E+02 -0.17096697441E+02 -0.48863524509E+02  0.56456039303E+02  0.00000000000E+00 0.  1.
         22    1    4    4    0    0  0.18692223499E+02  0.16448294262E+02 -0.40864901087E+03  0.40940683884E+03  0.00000000000E+00 0.  1.
         22    1    4    4    0    0  0.38320585735E+01  0.64840317931E+00 -0.21434076092E+02  0.21783588261E+02  0.00000000000E+00 0.  1.
<mgrwt>
<rscale>  0 0.91701797E+02</rscale>
<asrwt>0</asrwt>
<pdfrwt beam="2">  1        2 0.74353271E-01 0.91701797E+02</pdfrwt>
<pdfrwt beam="1">  1       -2 0.66921999E-03 0.91701797E+02</pdfrwt>
<totfact> 0.20989031E+05</totfact>
</mgrwt>
</event>
<event>
 7    1  0.3960685E-009  0.9109936E+02  0.7818608E-02  0.1300211E+00
         -2   -1    0    0    0  501 -0.00000000000E+00  0.00000000000E+00  0.22241707834E+01  0.22241722451E+01  0.25500000000E-02 0.  1.
          2   -1    0    0  501    0  0.00000000000E+00 -0.00000000000E+00 -0.93282980797E+03  0.93282980798E+03  0.25500000000E-02 0. -1.
         23    2    1    2    0    0  0.00000000000E+00  0.00000000000E+00 -0.93060563719E+03  0.93505398022E+03  0.91099363111E+02 0.  0.
    9000005    2    3    3    0    0  0.10238462269E+02  0.26566206866E+02 -0.82959366363E+03  0.83010633490E+03  0.63475225966E+01 0.  0.
         22    1    3    3    0    0 -0.10238462269E+02 -0.26566206866E+02 -0.10101197356E+03  0.10494764532E+03  0.00000000000E+00 0.  1.
         22    1    4    4    0    0  0.89650842155E+01  0.21842099888E+02 -0.74255277245E+03  0.74292803819E+03  0.00000000000E+00 0. -1.
         22    1    4    4    0    0  0.12733780533E+01  0.47241069783E+01 -0.87040891184E+02  0.87178296706E+02  0.00000000000E+00 0. -1.
<mgrwt>
<rscale>  0 0.91099363E+02</rscale>
<asrwt>0</asrwt>
<pdfrwt beam="2">  1        2 0.14351197E+00 0.91099363E+02</pdfrwt>
<pdfrwt beam="1">  1       -2 0.34218098E-03 0.91099363E+02</pdfrwt>
<totfact> 0.24940262E+05</totfact>
</mgrwt>
</event>
<event>
 7    1  0.3960685E-009  0.9337265E+02  0.7818608E-02  0.1294884E+00
          2   -1    0    0  501    0  0.00000000000E+00  0.00000000000E+00  0.31347018878E+02  0.31347018981E+02  0.25500000000E-02 0. -1.
         -2   -1    0    0    0  501 -0.00000000000E+00 -0.00000000000E+00 -0.69531749040E+02  0.69531749086E+02  0.25500000000E-02 0.  1.
         23    2    1    2    0    0 -0.35527136788E-14  0.00000000000E+00 -0.38184730162E+02  0.10087876807E+03  0.93372652470E+02 0.  0.
    9000005    2    3    3    0    0 -0.25738045885E+02 -0.86681033273E+01  0.19558719500E+02  0.37067413278E+02  0.15933191689E+02 0.  0.
         22    1    3    3    0    0  0.25738045885E+02  0.86681033273E+01 -0.57743449661E+02  0.63811354790E+02  0.00000000000E+00 0.  1.
         22    1    4    4    0    0 -0.24986196968E+02 -0.35564307643E+01  0.19511157092E+02  0.31900524914E+02  0.00000000000E+00 0. -1.
         22    1    4    4    0    0 -0.75184891703E+00 -0.51116725630E+01  0.47562407542E-01  0.51668883642E+01  0.00000000000E+00 0. -1.
<mgrwt>
<rscale>  0 0.93372652E+02</rscale>
<asrwt>0</asrwt>
<pdfrwt beam="1">  1        2 0.48226183E-02 0.93372652E+02</pdfrwt>
<pdfrwt beam="2">  1       -2 0.10697192E-01 0.93372652E+02</pdfrwt>
<totfact> 0.83403146E+04</totfact>
</mgrwt>
</event>
<event>
 7    1  0.3960685E-009  0.9092929E+02  0.7818608E-02  0.1300617E+00
          2   -1    0    0  501    0  0.00000000000E+00  0.00000000000E+00  0.10399997022E+03  0.10399997025E+03  0.25500000000E-02 0. -1.
         -2   -1    0    0    0  501 -0.00000000000E+00 -0.00000000000E+00 -0.19875332442E+02  0.19875332605E+02  0.25500000000E-02 0.  1.
         23    2    1    2    0    0  0.00000000000E+00 -0.35527136788E-14  0.84124637780E+02  0.12387530286E+03  0.90929291081E+02 0.  0.
    9000005    2    3    3    0    0 -0.40879997314E+02 -0.17628060590E+02  0.48228308292E+02  0.66687286881E+02  0.11802618792E+02 0.  0.
         22    1    3    3    0    0  0.40879997314E+02  0.17628060590E+02  0.35896329488E+02  0.57188015976E+02  0.00000000000E+00 0.  1.
         22    1    4    4    0    0 -0.10787128061E+02 -0.84116736004E+01  0.89140018629E+01  0.16327210839E+02  0.00000000000E+00 0.  1.
         22    1    4    4    0    0 -0.30092869253E+02 -0.92163869900E+01  0.39314306429E+02  0.50360076043E+02  0.00000000000E+00 0.  1.
<mgrwt>
<rscale>  0 0.90929291E+02</rscale>
<asrwt>0</asrwt>
<pdfrwt beam="1">  1        2 0.15999996E-01 0.90929291E+02</pdfrwt>
<pdfrwt beam="2">  1       -2 0.30577434E-02 0.90929291E+02</pdfrwt>
<totfact> 0.12508955E+05</totfact>
</mgrwt>
</event>
<event>
 7    1  0.3960685E-009  0.8957390E+02  0.7818608E-02  0.1303887E+00
          2   -1    0    0  501    0  0.00000000000E+00  0.00000000000E+00  0.25207306106E+03  0.25207306107E+03  0.25500000000E-02 0. -1.
         -2   -1    0    0    0  501 -0.00000000000E+00 -0.00000000000E+00 -0.79574973757E+01  0.79574977843E+01  0.25500000000E-02 0.  1.
         23    2    1    2    0    0  0.00000000000E+00  0.00000000000E+00  0.24411556368E+03  0.26003055886E+03  0.89573897463E+02 0.  0.
    9000005    2    3    3    0    0  0.24818393809E+02 -0.33064265558E+02  0.16956535777E+03  0.17478425964E+03  0.93770216216E+01 0.  0.
         22    1    3    3    0    0 -0.24818393809E+02  0.33064265558E+02  0.74550205916E+02  0.85246299217E+02  0.00000000000E+00 0.  1.
         22    1    4    4    0    0  0.19110567249E+02 -0.28341796058E+02  0.12420564370E+03  0.12882357359E+03  0.00000000000E+00 0. -1.
         22    1    4    4    0    0  0.57078265604E+01 -0.47224695000E+01  0.45359714065E+02  0.45960686051E+02  0.00000000000E+00 0. -1.
<mgrwt>
<rscale>  0 0.89573897E+02</rscale>
<asrwt>0</asrwt>
<pdfrwt beam="1">  1        2 0.38780470E-01 0.89573897E+02</pdfrwt>
<pdfrwt beam="2">  1       -2 0.12242304E-02 0.89573897E+02</pdfrwt>
<totfact> 0.17655033E+05</totfact>
</mgrwt>
</event>
<event>
 7    1  0.3960685E-009  0.8975091E+02  0.7818608E-02  0.1303456E+00
         -2   -1    0    0    0  501 -0.00000000000E+00  0.00000000000E+00  0.20671501974E+01  0.20671517702E+01  0.25500000000E-02 0.  1.
          2   -1    0    0  501    0  0.00000000000E+00 -0.00000000000E+00 -0.97419425903E+03  0.97419425903E+03  0.25500000000E-02 0. -1.
         23    2    1    2    0    0  0.71054273576E-14  0.00000000000E+00 -0.97212710883E+03  0.97626141080E+03  0.89750913626E+02 0.  0.
    9000005    2    3    3    0    0 -0.33633591694E+02 -0.46627580961E+01 -0.80302384190E+03  0.80378278983E+03  0.81561494950E+01 0.  0.
         22    1    3    3    0    0  0.33633591694E+02  0.46627580961E+01 -0.16910326693E+03  0.17247862097E+03  0.00000000000E+00 0.  1.
         22    1    4    4    0    0 -0.53875156409E+01 -0.38968086772E+01 -0.14377035250E+03  0.14392402406E+03  0.00000000000E+00 0. -1.
         22    1    4    4    0    0 -0.28246076053E+02 -0.76594941889E+00 -0.65925348939E+03  0.65985876577E+03  0.00000000000E+00 0. -1.
<mgrwt>
<rscale>  0 0.89750914E+02</rscale>
<asrwt>0</asrwt>
<pdfrwt beam="2">  1        2 0.14987567E+00 0.89750914E+02</pdfrwt>
<pdfrwt beam="1">  1       -2 0.31802401E-03 0.89750914E+02</pdfrwt>
<totfact> 0.26024184E+05</totfact>
</mgrwt>
</event>
<event>
 7    1  0.3960685E-009  0.9464999E+02  0.7818608E-02  0.1291966E+00
         -2   -1    0    0    0  501 -0.00000000000E+00  0.00000000000E+00  0.95035959161E+02  0.95035959196E+02  0.25500000000E-02 0.  1.
          2   -1    0    0  501    0  0.00000000000E+00 -0.00000000000E+00 -0.23566397831E+02  0.23566397969E+02  0.25500000000E-02 0. -1.
         23    2    1    2    0    0  0.00000000000E+00  0.17763568394E-14  0.71469561330E+02  0.11860235716E+03  0.94649991698E+02 0.  0.
    9000005    2    3    3    0    0  0.22268889300E+02 -0.14017504352E+02  0.84258933952E+02  0.89345530423E+02  0.13808041024E+02 0.  0.
         22    1    3    3    0    0 -0.22268889300E+02  0.14017504352E+02 -0.12789372622E+02  0.29256826742E+02  0.00000000000E+00 0. -1.
         22    1    4    4    0    0  0.95032336209E+01 -0.13554030429E+02  0.40275890601E+02  0.43545040520E+02  0.00000000000E+00 0. -1.
         22    1    4    4    0    0  0.12765655679E+02 -0.46347392322E+00  0.43983043351E+02  0.45800489904E+02  0.00000000000E+00 0. -1.
<mgrwt>
<rscale>  0 0.94649992E+02</rscale>
<asrwt>0</asrwt>
<pdfrwt beam="2">  1        2 0.36255997E-02 0.94649992E+02</pdfrwt>
<pdfrwt beam="1">  1       -2 0.14620917E-01 0.94649992E+02</pdfrwt>
<totfact> 0.73834982E+04</totfact>
</mgrwt>
</event>
<event>
 7    1  0.3960685E-009  0.9055478E+02  0.7818608E-02  0.1301514E+00
         -2   -1    0    0    0  501 -0.00000000000E+00  0.00000000000E+00  0.72870445272E+01  0.72870449734E+01  0.25500000000E-02 0.  1.
          2   -1    0    0  501    0  0.00000000000E+00 -0.00000000000E+00 -0.28132691600E+03  0.28132691602E+03  0.25500000000E-02 0. -1.
         23    2    1    2    0    0 -0.71054273576E-14  0.17763568394E-14 -0.27403987148E+03  0.28861396099E+03  0.90554775240E+02 0.  0.
    9000005    2    3    3    0    0 -0.42682348486E+02  0.12632251274E+02 -0.13907739041E+03  0.14650052763E+03  0.11769767585E+02 0.  0.
         22    1    3    3    0    0  0.42682348486E+02 -0.12632251274E+02 -0.13496248107E+03  0.14211343336E+03  0.00000000000E+00 0.  1.
         22    1    4    4    0    0 -0.15577762517E+02  0.47368042429E+01 -0.34011741113E+02  0.37708122905E+02  0.00000000000E+00 0.  1.
         22    1    4    4    0    0 -0.27104585969E+02  0.78954470306E+01 -0.10506564930E+03  0.10879240473E+03  0.00000000000E+00 0.  1.
<mgrwt>
<rscale>  0 0.90554775E+02</rscale>
<asrwt>0</asrwt>
<pdfrwt beam="2">  1        2 0.43281056E-01 0.90554775E+02</pdfrwt>
<pdfrwt beam="1">  1       -2 0.11210840E-02 0.90554775E+02</pdfrwt>
<totfact> 0.17864132E+05</totfact>
</mgrwt>
</event>
<event>
 7    1  0.3960685E-009  0.9325854E+02  0.7818608E-02  0.1295147E+00
          2   -1    0    0  501    0  0.00000000000E+00  0.00000000000E+00  0.11047639672E+03  0.11047639675E+03  0.25500000000E-02 0. -1.
         -2   -1    0    0    0  501 -0.00000000000E+00 -0.00000000000E+00 -0.19681024021E+02  0.19681024186E+02  0.25500000000E-02 0.  1.
         23    2    1    2    0    0  0.17763568394E-14  0.00000000000E+00  0.90795372696E+02  0.13015742093E+03  0.93258535913E+02 0.  0.
    9000005    2    3    3    0    0 -0.15708930186E+02  0.34251129579E+02  0.83002998778E+02  0.91678446721E+02  0.97739153912E+01 0.  0.
         22    1    3    3    0    0  0.15708930186E+02 -0.34251129579E+02  0.77923739180E+01  0.38478974210E+02  0.00000000000E+00 0.  1.
         22    1    4    4    0    0 -0.22339694455E+00  0.10308193353E+02  0.19190511529E+02  0.21784960160E+02  0.00000000000E+00 0. -1.
         22    1    4    4    0    0 -0.15485533241E+02  0.23942936226E+02  0.63812487248E+02  0.69893486561E+02  0.00000000000E+00 0. -1.
<mgrwt>
<rscale>  0 0.93258536E+02</rscale>
<asrwt>0</asrwt>
<pdfrwt beam="1">  1        2 0.16996369E-01 0.93258536E+02</pdfrwt>
<pdfrwt beam="2">  1       -2 0.30278498E-02 0.93258536E+02</pdfrwt>
<totfact> 0.11889602E+05</totfact>
</mgrwt>
</event>
<event>
 7    1  0.3960685E-009  0.9202568E+02  0.7818608E-02  0.1298019E+00
         -2   -1    0    0    0  501 -0.00000000000E+00  0.00000000000E+00  0.14727380589E+02  0.14727380810E+02  0.25500000000E-02 0. -1.
          2   -1    0    0  501    0  0.00000000000E+00 -0.00000000000E+00 -0.14375817559E+03  0.14375817561E+03  0.25500000000E-02 0.  1.
         23    2    1    2    0    0 -0.88817841970E-15  0.00000000000E+00 -0.12903079500E+03  0.15848555642E+03  0.92025678677E+02 0.  0.
    9000005    2    3    3    0    0  0.66550401077E+01 -0.17930600642E+02 -0.13649444219E+03  0.13795504187E+03  0.59215563875E+01 0.  0.
         22    1    3    3    0    0 -0.66550401077E+01  0.17930600642E+02  0.74636471944E+01  0.20530514549E+02  0.00000000000E+00 0. -1.
         22    1    4    4    0    0  0.65035823525E+01 -0.11786074119E+02 -0.10565257745E+03  0.10650669110E+03  0.00000000000E+00 0. -1.
         22    1    4    4    0    0  0.15145775519E+00 -0.61445265222E+01 -0.30841864738E+02  0.31448350770E+02  0.00000000000E+00 0. -1.
<mgrwt>
<rscale>  0 0.92025679E+02</rscale>
<asrwt>0</asrwt>
<pdfrwt beam="2">  1        2 0.22116641E-01 0.92025679E+02</pdfrwt>
<pdfrwt beam="1">  1       -2 0.22657510E-02 0.92025679E+02</pdfrwt>
<totfact> 0.13438068E+05</totfact>
</mgrwt>
</event>
<event>
 7    1  0.3960685E-009  0.9093577E+02  0.7818608E-02  0.1300601E+00
          2   -1    0    0  501    0  0.00000000000E+00  0.00000000000E+00  0.41966043800E+02  0.41966043877E+02  0.25500000000E-02 0. -1.
         -2   -1    0    0    0  501 -0.00000000000E+00 -0.00000000000E+00 -0.49261934600E+02  0.49261934666E+02  0.25500000000E-02 0.  1.
         23    2    1    2    0    0  0.00000000000E+00 -0.35527136788E-14 -0.72958908000E+01  0.91227978543E+02  0.90935768796E+02 0.  0.
    9000005    2    3    3    0    0  0.42444552142E+01 -0.18023576824E+02  0.37965651738E+02  0.42325300144E+02  0.26787308207E+01 0.  0.
         22    1    3    3    0    0 -0.42444552142E+01  0.18023576824E+02 -0.45261542538E+02  0.48902678398E+02  0.00000000000E+00 0.  1.
         22    1    4    4    0    0  0.35441987990E-01 -0.54471338793E+01  0.11015312581E+02  0.12288597759E+02  0.00000000000E+00 0. -1.
         22    1    4    4    0    0  0.42090132262E+01 -0.12576442944E+02  0.26950339158E+02  0.30036702385E+02  0.00000000000E+00 0. -1.
<mgrwt>
<rscale>  0 0.90935769E+02</rscale>
<asrwt>0</asrwt>
<pdfrwt beam="1">  1        2 0.64563144E-02 0.90935769E+02</pdfrwt>
<pdfrwt beam="2">  1       -2 0.75787592E-02 0.90935769E+02</pdfrwt>
<totfact> 0.97321142E+04</totfact>
</mgrwt>
</event>
<event>
 7    1  0.3960685E-009  0.1199325E+03  0.7818608E-02  0.1243208E+00
         -2   -1    0    0    0  501 -0.00000000000E+00  0.00000000000E+00  0.55243326376E+01  0.55243332262E+01  0.25500000000E-02 0.  1.
          2   -1    0    0  501    0  0.00000000000E+00 -0.00000000000E+00 -0.65092916055E+03  0.65092916055E+03  0.25500000000E-02 0. -1.
         23    2    1    2    0    0  0.35527136788E-14  0.00000000000E+00 -0.64540482791E+03  0.65645349378E+03  0.11993247102E+03 0.  0.
    9000005    2    3    3    0    0  0.17394533775E+02  0.20496254435E+02 -0.61589866928E+03  0.61653758657E+03  0.80472716751E+01 0.  0.
         22    1    3    3    0    0 -0.17394533775E+02 -0.20496254435E+02 -0.29506158626E+02  0.39915907205E+02  0.00000000000E+00 0.  1.
         22    1    4    4    0    0  0.72142456362E+01  0.13026573927E+02 -0.39249730148E+03  0.39277966933E+03  0.00000000000E+00 0. -1.
         22    1    4    4    0    0  0.10180288139E+02  0.74696805082E+01 -0.22340136780E+03  0.22375791724E+03  0.00000000000E+00 0. -1.
<mgrwt>
<rscale>  0 0.11993247E+03</rscale>
<asrwt>0</asrwt>
<pdfrwt beam="2">  1        2 0.10014289E+00 0.11993247E+03</pdfrwt>
<pdfrwt beam="1">  1       -2 0.84989789E-03 0.11993247E+03</pdfrwt>
<totfact> 0.11184332E+05</totfact>
</mgrwt>
</event>
<event>
 7    1  0.3960685E-009  0.9006126E+02  0.7818608E-02  0.1302703E+00
         -2   -1    0    0    0  501 -0.00000000000E+00  0.00000000000E+00  0.25024565911E+01  0.25024578904E+01  0.25500000000E-02 0. -1.
          2   -1    0    0  501    0  0.00000000000E+00 -0.00000000000E+00 -0.81030663890E+03  0.81030663891E+03  0.25500000000E-02 0.  1.
         23    2    1    2    0    0 -0.11102230246E-15  0.00000000000E+00 -0.80780418231E+03  0.81280909680E+03  0.90061261795E+02 0.  0.
    9000005    2    3    3    0    0 -0.46898331797E+00  0.27144236118E+02 -0.72525195288E+03  0.72590742774E+03  0.14634514030E+02 0.  0.
         22    1    3    3    0    0  0.46898331797E+00 -0.27144236118E+02 -0.82552229438E+02  0.86901669057E+02  0.00000000000E+00 0. -1.
         22    1    4    4    0    0  0.31452533214E+01  0.26540285702E+02 -0.67088193187E+03  0.67141406442E+03  0.00000000000E+00 0. -1.
         22    1    4    4    0    0 -0.36142366394E+01  0.60395041636E+00 -0.54370021001E+02  0.54493363323E+02  0.00000000000E+00 0. -1.
<mgrwt>
<rscale>  0 0.90061262E+02</rscale>
<asrwt>0</asrwt>
<pdfrwt beam="2">  1        2 0.12466235E+00 0.90061262E+02</pdfrwt>
<pdfrwt beam="1">  1       -2 0.38499407E-03 0.90061262E+02</pdfrwt>
<totfact> 0.25232672E+05</totfact>
</mgrwt>
</event>
<event>
 6    1  0.8782487E-009  0.2184779E+03  0.7818608E-02  0.1135023E+00
         -2   -1    0    0    0  501 -0.00000000000E+00  0.00000000000E+00  0.11272893295E+02  0.11272893583E+02  0.25500000000E-02 0. -1.
          2   -1    0    0  501    0  0.00000000000E+00 -0.00000000000E+00 -0.10585701865E+04  0.10585701865E+04  0.25500000000E-02 0.  1.
    9000005    2    1    2    0    0 -0.81901237179E+00  0.10875538715E+03 -0.54689821881E+03  0.55776140821E+03  0.13104264103E+02 0.  0.
         22    1    1    2    0    0  0.81901237179E+00 -0.10875538715E+03 -0.50039907443E+03  0.51208167191E+03  0.00000000000E+00 0. -1.
         22    1    3    3    0    0 -0.68345919175E+01  0.68753279131E+02 -0.34611709774E+03  0.35294584625E+03  0.00000000000E+00 0. -1.
         22    1    3    3    0    0  0.60155795457E+01  0.40002108019E+02 -0.20078112107E+03  0.20481556196E+03  0.00000000000E+00 0. -1.
<mgrwt>
<rscale>  0 0.21847791E+03</rscale>
<asrwt>0</asrwt>
<pdfrwt beam="2">  1        2 0.16285687E+00 0.21847791E+03</pdfrwt>
<pdfrwt beam="1">  1       -2 0.17342921E-02 0.21847791E+03</pdfrwt>
<totfact> 0.22712739E+04</totfact>
</mgrwt>
</event>
<event>
 7    1  0.3960685E-009  0.9182606E+02  0.7818608E-02  0.1298489E+00
         -2   -1    0    0    0  501 -0.00000000000E+00  0.00000000000E+00  0.17067812692E+01  0.17067831741E+01  0.25500000000E-02 0.  1.
          2   -1    0    0  501    0  0.00000000000E+00 -0.00000000000E+00 -0.12350764122E+04  0.12350764122E+04  0.25500000000E-02 0. -1.
         23    2    1    2    0    0  0.35527136788E-14  0.00000000000E+00 -0.12333696310E+04  0.12367831954E+04  0.91826063098E+02 0.  0.
    9000005    2    3    3    0    0  0.25584951987E+02  0.17995483773E+02 -0.10648444273E+04  0.10653796614E+04  0.12717757149E+02 0.  0.
         22    1    3    3    0    0 -0.25584951987E+02 -0.17995483773E+02 -0.16852520364E+03  0.17140353400E+03  0.00000000000E+00 0.  1.
         22    1    4    4    0    0  0.25230958610E+01  0.45264576374E+01 -0.34683234079E+03  0.34687105306E+03  0.00000000000E+00 0.  1.
         22    1    4    4    0    0  0.23061856126E+02  0.13469026136E+02 -0.71801208654E+03  0.71850860836E+03  0.00000000000E+00 0.  1.
<mgrwt>
<rscale>  0 0.91826063E+02</rscale>
<asrwt>0</asrwt>
<pdfrwt beam="2">  1        2 0.19001104E+00 0.91826063E+02</pdfrwt>
<pdfrwt beam="1">  1       -2 0.26258287E-03 0.91826063E+02</pdfrwt>
<totfact> 0.24320783E+05</totfact>
</mgrwt>
</event>
<event>
 7    1  0.3960685E-009  0.8729404E+02  0.7818608E-02  0.1309540E+00
          2   -1    0    0  501    0  0.00000000000E+00  0.00000000000E+00  0.13987949952E+03  0.13987949954E+03  0.25500000000E-02 0. -1.
         -2   -1    0    0    0  501 -0.00000000000E+00 -0.00000000000E+00 -0.13619309546E+02  0.13619309785E+02  0.25500000000E-02 0.  1.
         23    2    1    2    0    0  0.00000000000E+00  0.00000000000E+00  0.12626018997E+03  0.15349880933E+03  0.87294036983E+02 0.  0.
    9000005    2    3    3    0    0 -0.37929879450E+02 -0.19181708193E+02  0.78457607209E+02  0.89532407183E+02  0.73377191783E+01 0.  0.
         22    1    3    3    0    0  0.37929879450E+02  0.19181708193E+02  0.47802582762E+02  0.63966402142E+02  0.00000000000E+00 0. -1.
         22    1    4    4    0    0 -0.22564320713E+02 -0.13432838892E+02  0.41696979910E+02  0.49277052099E+02  0.00000000000E+00 0.  1.
         22    1    4    4    0    0 -0.15365558737E+02 -0.57488693007E+01  0.36760627299E+02  0.40255355084E+02  0.00000000000E+00 0.  1.
<mgrwt>
<rscale>  0 0.87294037E+02</rscale>
<asrwt>0</asrwt>
<pdfrwt beam="1">  1        2 0.21519924E-01 0.87294037E+02</pdfrwt>
<pdfrwt beam="2">  1       -2 0.20952783E-02 0.87294037E+02</pdfrwt>
<totfact> 0.15364908E+05</totfact>
</mgrwt>
</event>
<event>
 7    1  0.3960685E-009  0.9903849E+02  0.7818608E-02  0.1282331E+00
          2   -1    0    0  501    0  0.00000000000E+00  0.00000000000E+00  0.23053876892E+03  0.23053876893E+03  0.25500000000E-02 0. -1.
         -2   -1    0    0    0  501 -0.00000000000E+00 -0.00000000000E+00 -0.10636629546E+02  0.10636629852E+02  0.25500000000E-02 0.  1.
         23    2    1    2    0    0  0.35527136788E-14 -0.44408920985E-15  0.21990213937E+03  0.24117539879E+03  0.99038487864E+02 0.  0.
    9000005    2    3    3    0    0  0.20317654540E+02  0.35008236168E+01  0.21932024448E+03  0.22055013627E+03  0.10767084980E+02 0.  0.
         22    1    3    3    0    0 -0.20317654540E+02 -0.35008236168E+01  0.58189489222E+00  0.20625262512E+02  0.00000000000E+00 0.  1.
         22    1    4    4    0    0  0.14228610431E+02 -0.11647076323E+01  0.17405607829E+03  0.17464056885E+03  0.00000000000E+00 0.  1.
         22    1    4    4    0    0  0.60890441093E+01  0.46655312492E+01  0.45264166192E+02  0.45909567424E+02  0.00000000000E+00 0.  1.
<mgrwt>
<rscale>  0 0.99038488E+02</rscale>
<asrwt>0</asrwt>
<pdfrwt beam="1">  1        2 0.35467499E-01 0.99038488E+02</pdfrwt>
<pdfrwt beam="2">  1       -2 0.16364048E-02 0.99038488E+02</pdfrwt>
<totfact> 0.13033506E+05</totfact>
</mgrwt>
</event>
<event>
 7    1  0.3960685E-009  0.9280078E+02  0.7818608E-02  0.1296208E+00
         -2   -1    0    0    0  501 -0.00000000000E+00  0.00000000000E+00  0.16136672302E+02  0.16136672503E+02  0.25500000000E-02 0.  1.
          2   -1    0    0  501    0  0.00000000000E+00 -0.00000000000E+00 -0.13342257525E+03  0.13342257527E+03  0.25500000000E-02 0. -1.
         23    2    1    2    0    0  0.00000000000E+00  0.00000000000E+00 -0.11728590295E+03  0.14955924777E+03  0.92800784292E+02 0.  0.
    9000005    2    3    3    0    0  0.21697612524E+02  0.37947241142E+02 -0.42821290357E+02  0.63212516352E+02  0.15854961880E+02 0.  0.
         22    1    3    3    0    0 -0.21697612524E+02 -0.37947241142E+02 -0.74464612589E+02  0.86346731423E+02  0.00000000000E+00 0.  1.
         22    1    4    4    0    0  0.10098906814E+02  0.26854588335E+02 -0.18724358404E+02  0.34260158072E+02  0.00000000000E+00 0. -1.
         22    1    4    4    0    0  0.11598705710E+02  0.11092652807E+02 -0.24096931952E+02  0.28952358279E+02  0.00000000000E+00 0. -1.
<mgrwt>
<rscale>  0 0.92800784E+02</rscale>
<asrwt>0</asrwt>
<pdfrwt beam="2">  1        2 0.20526549E-01 0.92800784E+02</pdfrwt>
<pdfrwt beam="1">  1       -2 0.24825651E-02 0.92800784E+02</pdfrwt>
<totfact> 0.12810131E+05</totfact>
</mgrwt>
</event>
<event>
 7    1  0.3960685E-009  0.1037229E+03  0.7818608E-02  0.1272656E+00
          2   -1    0    0  501    0  0.00000000000E+00  0.00000000000E+00  0.33860513693E+02  0.33860513789E+02  0.25500000000E-02 0. -1.
         -2   -1    0    0    0  501 -0.00000000000E+00 -0.00000000000E+00 -0.79432113158E+02  0.79432113199E+02  0.25500000000E-02 0.  1.
         23    2    1    2    0    0  0.00000000000E+00  0.00000000000E+00 -0.45571599465E+02  0.11329262699E+03  0.10372294178E+03 0.  0.
    9000005    2    3    3    0    0  0.13584241973E+02 -0.32881395544E+02  0.18271583029E+02  0.40205899369E+02  0.41165270268E+01 0.  0.
         22    1    3    3    0    0 -0.13584241973E+02  0.32881395544E+02 -0.63843182495E+02  0.73086727618E+02  0.00000000000E+00 0.  1.
         22    1    4    4    0    0  0.60915325021E+01 -0.19289715461E+02  0.11539149295E+02  0.23288449009E+02  0.00000000000E+00 0. -1.
         22    1    4    4    0    0  0.74927094711E+01 -0.13591680084E+02  0.67324337343E+01  0.16917450361E+02  0.00000000000E+00 0. -1.
<mgrwt>
<rscale>  0 0.10372294E+03</rscale>
<asrwt>0</asrwt>
<pdfrwt beam="1">  1        2 0.52093098E-02 0.10372294E+03</pdfrwt>
<pdfrwt beam="2">  1       -2 0.12220325E-01 0.10372294E+03</pdfrwt>
<totfact> 0.62167477E+04</totfact>
</mgrwt>
</event>
<event>
 7    1  0.3960685E-009  0.9493479E+02  0.7818608E-02  0.1291323E+00
          2   -1    0    0  501    0  0.00000000000E+00  0.00000000000E+00  0.22143746324E+01  0.22143761006E+01  0.25500000000E-02 0. -1.
         -2   -1    0    0    0  501 -0.00000000000E+00 -0.00000000000E+00 -0.10175120175E+04  0.10175120175E+04  0.25500000000E-02 0.  1.
         23    2    1    2    0    0  0.00000000000E+00  0.00000000000E+00 -0.10152976429E+04  0.10197263936E+04  0.94934789198E+02 0.  0.
    9000005    2    3    3    0    0  0.52535704860E+00  0.24763143622E+02 -0.94150660694E+03  0.94188934417E+03  0.10361296289E+02 0.  0.
         22    1    3    3    0    0 -0.52535704860E+00 -0.24763143622E+02 -0.73791035955E+02  0.77837049465E+02  0.00000000000E+00 0. -1.
         22    1    4    4    0    0 -0.55779461005E+00  0.21660085052E+02 -0.64362236642E+03  0.64398697268E+03  0.00000000000E+00 0.  1.
         22    1    4    4    0    0  0.10831516587E+01  0.31030585698E+01 -0.29788424052E+03  0.29790237149E+03  0.00000000000E+00 0.  1.
<mgrwt>
<rscale>  0 0.94934789E+02</rscale>
<asrwt>0</asrwt>
<pdfrwt beam="1">  1        2 0.34067395E-03 0.94934789E+02</pdfrwt>
<pdfrwt beam="2">  1       -2 0.15653994E+00 0.94934789E+02</pdfrwt>
<totfact> 0.16477845E+04</totfact>
</mgrwt>
</event>
<event>
 7    1  0.3960685E-009  0.9243437E+02  0.7818608E-02  0.1297061E+00
          2   -1    0    0  501    0  0.00000000000E+00  0.00000000000E+00  0.58722800085E+02  0.58722800141E+02  0.25500000000E-02 0. -1.
         -2   -1    0    0    0  501 -0.00000000000E+00 -0.00000000000E+00 -0.36374765825E+02  0.36374765914E+02  0.25500000000E-02 0.  1.
         23    2    1    2    0    0  0.00000000000E+00  0.00000000000E+00  0.22348034260E+02  0.95097566055E+02  0.92434368253E+02 0.  0.
    9000005    2    3    3    0    0  0.34633465580E+01  0.43892133311E+02  0.23094868543E+02  0.51062671966E+02  0.11640849600E+02 0.  0.
         22    1    3    3    0    0 -0.34633465580E+01 -0.43892133311E+02 -0.74683428224E+00  0.44034894088E+02  0.00000000000E+00 0.  1.
         22    1    4    4    0    0  0.40010470132E+01  0.15180454520E+02  0.29217313465E+01  0.15968440459E+02  0.00000000000E+00 0.  1.
         22    1    4    4    0    0 -0.53770045521E+00  0.28711678791E+02  0.20173137196E+02  0.35094231508E+02  0.00000000000E+00 0.  1.
<mgrwt>
<rscale>  0 0.92434368E+02</rscale>
<asrwt>0</asrwt>
<pdfrwt beam="1">  1        2 0.90342770E-02 0.92434368E+02</pdfrwt>
<pdfrwt beam="2">  1       -2 0.55961178E-02 0.92434368E+02</pdfrwt>
<totfact> 0.10144956E+05</totfact>
</mgrwt>
</event>
<event>
 7    1  0.3960685E-009  0.9365590E+02  0.7818608E-02  0.1294232E+00
         -2   -1    0    0    0  501 -0.00000000000E+00  0.00000000000E+00  0.26727438938E+03  0.26727438940E+03  0.25500000000E-02 0.  1.
          2   -1    0    0  501    0  0.00000000000E+00 -0.00000000000E+00 -0.82045151887E+01  0.82045155850E+01  0.25500000000E-02 0. -1.
         23    2    1    2    0    0  0.88817841970E-15  0.00000000000E+00  0.25906987420E+03  0.27547890498E+03  0.93655898768E+02 0.  0.
    9000005    2    3    3    0    0  0.52874603768E+01 -0.37206235618E+02  0.20899915364E+03  0.21287428644E+03  0.14918257213E+02 0.  0.
         22    1    3    3    0    0 -0.52874603768E+01  0.37206235618E+02  0.50070720559E+02  0.62604618547E+02  0.00000000000E+00 0. -1.
         22    1    4    4    0    0 -0.22381217501E+01 -0.64909780166E+01  0.17814359375E+02  0.19091709838E+02  0.00000000000E+00 0. -1.
         22    1    4    4    0    0  0.75255821269E+01 -0.30715257601E+02  0.19118479426E+03  0.19378257660E+03  0.00000000000E+00 0. -1.
<mgrwt>
<rscale>  0 0.93655899E+02</rscale>
<asrwt>0</asrwt>
<pdfrwt beam="2">  1        2 0.12622332E-02 0.93655899E+02</pdfrwt>
<pdfrwt beam="1">  1       -2 0.41119136E-01 0.93655899E+02</pdfrwt>
<totfact> 0.50672635E+04</totfact>
</mgrwt>
</event>
<event>
 7    1  0.3960685E-009  0.1160287E+03  0.7818608E-02  0.1249796E+00
         -2   -1    0    0    0  501 -0.00000000000E+00  0.00000000000E+00  0.16321179017E+03  0.16321179019E+03  0.25500000000E-02 0.  1.
          2   -1    0    0  501    0  0.00000000000E+00 -0.00000000000E+00 -0.20621453137E+02  0.20621453294E+02  0.25500000000E-02 0. -1.
         23    2    1    2    0    0  0.00000000000E+00  0.00000000000E+00  0.14259033704E+03  0.18383324349E+03  0.11602869126E+03 0.  0.
    9000005    2    3    3    0    0 -0.20926149540E+02 -0.52818221128E+02  0.85746650550E+02  0.10346613012E+03  0.11184086179E+02 0.  0.
         22    1    3    3    0    0  0.20926149540E+02  0.52818221128E+02  0.56843686486E+02  0.80367113368E+02  0.00000000000E+00 0. -1.
         22    1    4    4    0    0 -0.16739959303E+02 -0.45864327722E+02  0.65833135683E+02  0.81961970137E+02  0.00000000000E+00 0.  1.
         22    1    4    4    0    0 -0.41861902365E+01 -0.69538934065E+01  0.19913514868E+02  0.21504159983E+02  0.00000000000E+00 0.  1.
<mgrwt>
<rscale>  0 0.11602869E+03</rscale>
<asrwt>0</asrwt>
<pdfrwt beam="2">  1        2 0.31725312E-02 0.11602869E+03</pdfrwt>
<pdfrwt beam="1">  1       -2 0.25109506E-01 0.11602869E+03</pdfrwt>
<totfact> 0.36689001E+04</totfact>
</mgrwt>
</event>
<event>
 7    1  0.3960685E-009  0.9202953E+02  0.7818608E-02  0.1298010E+00
          2   -1    0    0  501    0  0.00000000000E+00  0.00000000000E+00  0.29104789475E+03  0.29104789476E+03  0.25500000000E-02 0. -1.
         -2   -1    0    0    0  501 -0.00000000000E+00 -0.00000000000E+00 -0.72749494272E+01  0.72749498741E+01  0.25500000000E-02 0.  1.
         23    2    1    2    0    0  0.00000000000E+00  0.00000000000E+00  0.28377294533E+03  0.29832284464E+03  0.92029534032E+02 0.  0.
    9000005    2    3    3    0    0 -0.43323147844E+02  0.10403749428E+02  0.17011192213E+03  0.17624106330E+03  0.11735126773E+02 0.  0.
         22    1    3    3    0    0  0.43323147844E+02 -0.10403749428E+02  0.11366102320E+03  0.12208178134E+03  0.00000000000E+00 0.  1.
         22    1    4    4    0    0 -0.54391526374E+01 -0.15826427291E+01  0.33195548367E+02  0.33675414931E+02  0.00000000000E+00 0. -1.
         22    1    4    4    0    0 -0.37883995207E+02  0.11986392157E+02  0.13691637376E+03  0.14256564837E+03  0.00000000000E+00 0. -1.
<mgrwt>
<rscale>  0 0.92029534E+02</rscale>
<asrwt>0</asrwt>
<pdfrwt beam="1">  1        2 0.44776598E-01 0.92029534E+02</pdfrwt>
<pdfrwt beam="2">  1       -2 0.11192231E-02 0.92029534E+02</pdfrwt>
<totfact> 0.17327796E+05</totfact>
</mgrwt>
</event>
<event>
 7    1  0.3960685E-009  0.9211624E+02  0.7818608E-02  0.1297806E+00
          2   -1    0    0  501    0  0.00000000000E+00  0.00000000000E+00  0.18388275640E+02  0.18388275817E+02  0.25500000000E-02 0. -1.
         -2   -1    0    0    0  501 -0.00000000000E+00 -0.00000000000E+00 -0.11536427973E+03  0.11536427976E+03  0.25500000000E-02 0.  1.
         23    2    1    2    0    0  0.00000000000E+00  0.00000000000E+00 -0.96976004088E+02  0.13375255557E+03  0.92116235017E+02 0.  0.
    9000005    2    3    3    0    0 -0.19427676193E+02  0.17838428514E+02 -0.10319995970E+03  0.10665307666E+03  0.53854381026E+01 0.  0.
         22    1    3    3    0    0  0.19427676193E+02 -0.17838428514E+02  0.62239556144E+01  0.27099478918E+02  0.00000000000E+00 0.  1.
         22    1    4    4    0    0 -0.96499461229E+01  0.74099432660E+01 -0.37833071634E+02  0.39741288714E+02  0.00000000000E+00 0.  1.
         22    1    4    4    0    0 -0.97777300700E+01  0.10428485248E+02 -0.65366888069E+02  0.66911787943E+02  0.00000000000E+00 0.  1.
<mgrwt>
<rscale>  0 0.92116235E+02</rscale>
<asrwt>0</asrwt>
<pdfrwt beam="1">  1        2 0.28289656E-02 0.92116235E+02</pdfrwt>
<pdfrwt beam="2">  1       -2 0.17748350E-01 0.92116235E+02</pdfrwt>
<totfact> 0.74436498E+04</totfact>
</mgrwt>
</event>
<event>
 7    1  0.3960685E-009  0.9154902E+02  0.7818608E-02  0.1299143E+00
         -2   -1    0    0    0  501 -0.00000000000E+00  0.00000000000E+00  0.57254926199E+02  0.57254926256E+02  0.25500000000E-02 0.  1.
          2   -1    0    0  501    0  0.00000000000E+00 -0.00000000000E+00 -0.36596081318E+02  0.36596081407E+02  0.25500000000E-02 0. -1.
         23    2    1    2    0    0  0.00000000000E+00  0.00000000000E+00  0.20658844881E+02  0.93851007662E+02  0.91549023848E+02 0.  0.
    9000005    2    3    3    0    0  0.37640325647E+02  0.22871065376E+01  0.36141501975E+02  0.53086591295E+02  0.94843576083E+01 0.  0.
         22    1    3    3    0    0 -0.37640325647E+02 -0.22871065376E+01 -0.15482657094E+02  0.40764416367E+02  0.00000000000E+00 0. -1.
         22    1    4    4    0    0  0.19048583892E+02 -0.23383720184E+01  0.22470160567E+02  0.29550374750E+02  0.00000000000E+00 0. -1.
         22    1    4    4    0    0  0.18591741755E+02  0.46254785561E+01  0.13671341408E+02  0.23536216545E+02  0.00000000000E+00 0. -1.
<mgrwt>
<rscale>  0 0.91549024E+02</rscale>
<asrwt>0</asrwt>
<pdfrwt beam="2">  1        2 0.56301664E-02 0.91549024E+02</pdfrwt>
<pdfrwt beam="1">  1       -2 0.88084502E-02 0.91549024E+02</pdfrwt>
<totfact> 0.92111823E+04</totfact>
</mgrwt>
</event>
<event>
 7    1  0.3960685E-009  0.9144962E+02  0.7818608E-02  0.1299379E+00
          2   -1    0    0  501    0  0.00000000000E+00  0.00000000000E+00  0.25045112832E+03  0.25045112833E+03  0.25500000000E-02 0. -1.
         -2   -1    0    0    0  501 -0.00000000000E+00 -0.00000000000E+00 -0.83479684735E+01  0.83479688630E+01  0.25500000000E-02 0.  1.
         23    2    1    2    0    0  0.71054273576E-14  0.88817841970E-15  0.24210315985E+03  0.25879909720E+03  0.91449618380E+02 0.  0.
    9000005    2    3    3    0    0  0.41044395663E+02  0.69137097749E+01  0.76744827297E+02  0.88282763838E+02  0.13100995224E+02 0.  0.
         22    1    3    3    0    0 -0.41044395663E+02 -0.69137097749E+01  0.16535833255E+03  0.17051633336E+03  0.00000000000E+00 0. -1.
         22    1    4    4    0    0  0.18151898673E+02 -0.34793670297E+01  0.33547149787E+02  0.38301549306E+02  0.00000000000E+00 0.  1.
         22    1    4    4    0    0  0.22892496990E+02  0.10393076805E+02  0.43197677509E+02  0.49981214532E+02  0.00000000000E+00 0.  1.
<mgrwt>
<rscale>  0 0.91449618E+02</rscale>
<asrwt>0</asrwt>
<pdfrwt beam="1">  1        2 0.38530937E-01 0.91449618E+02</pdfrwt>
<pdfrwt beam="2">  1       -2 0.12843031E-02 0.91449618E+02</pdfrwt>
<totfact> 0.16663287E+05</totfact>
</mgrwt>
</event>
<event>
 7    1  0.3960685E-009  0.9045840E+02  0.7818608E-02  0.1301745E+00
          2   -1    0    0  501    0  0.00000000000E+00  0.00000000000E+00  0.91782506627E+01  0.91782510169E+01  0.25500000000E-02 0. -1.
         -2   -1    0    0    0  501 -0.00000000000E+00 -0.00000000000E+00 -0.22288350842E+03  0.22288350843E+03  0.25500000000E-02 0.  1.
         23    2    1    2    0    0  0.00000000000E+00 -0.35527136788E-14 -0.21370525776E+03  0.23206175945E+03  0.90458404842E+02 0.  0.
    9000005    2    3    3    0    0  0.13030276454E+02  0.22849219432E+02 -0.20046768905E+03  0.20261505915E+03  0.13179260595E+02 0.  0.
         22    1    3    3    0    0 -0.13030276454E+02 -0.22849219432E+02 -0.13237568707E+02  0.29446700297E+02  0.00000000000E+00 0. -1.
         22    1    4    4    0    0  0.27092707476E+01 -0.52423018961E+00 -0.80827769438E+01  0.85408575915E+01  0.00000000000E+00 0. -1.
         22    1    4    4    0    0  0.10321005706E+02  0.23373449622E+02 -0.19238491210E+03  0.19407420156E+03  0.00000000000E+00 0. -1.
<mgrwt>
<rscale>  0 0.90458405E+02</rscale>
<asrwt>0</asrwt>
<pdfrwt beam="1">  1        2 0.14120388E-02 0.90458405E+02</pdfrwt>
<pdfrwt beam="2">  1       -2 0.34289767E-01 0.90458405E+02</pdfrwt>
<totfact> 0.60580780E+04</totfact>
</mgrwt>
</event>
<event>
 7    1  0.3960685E-009  0.8989632E+02  0.7818608E-02  0.1303103E+00
          2   -1    0    0  501    0  0.00000000000E+00  0.00000000000E+00  0.15955087252E+02  0.15955087456E+02  0.25500000000E-02 0.  1.
         -2   -1    0    0    0  501 -0.00000000000E+00 -0.00000000000E+00 -0.12662651877E+03  0.12662651879E+03  0.25500000000E-02 0. -1.
         23    2    1    2    0    0 -0.35527136788E-14  0.00000000000E+00 -0.11067143151E+03  0.14258160625E+03  0.89896321876E+02 0.  0.
    9000005    2    3    3    0    0 -0.20609524729E+02 -0.36094798734E+02 -0.80831664980E+02  0.91415224003E+02  0.97671956516E+01 0.  0.
         22    1    3    3    0    0  0.20609524729E+02  0.36094798734E+02 -0.29839766533E+02  0.51166382244E+02  0.00000000000E+00 0.  1.
         22    1    4    4    0    0 -0.17970316309E+02 -0.26658595469E+02 -0.53943770992E+02  0.62797638566E+02  0.00000000000E+00 0.  1.
         22    1    4    4    0    0 -0.26392084199E+01 -0.94362032650E+01 -0.26887893988E+02  0.28617585437E+02  0.00000000000E+00 0.  1.
<mgrwt>
<rscale>  0 0.89896322E+02</rscale>
<asrwt>0</asrwt>
<pdfrwt beam="1">  1        2 0.24546289E-02 0.89896322E+02</pdfrwt>
<pdfrwt beam="2">  1       -2 0.19481002E-01 0.89896322E+02</pdfrwt>
<totfact> 0.76779231E+04</totfact>
</mgrwt>
</event>
<event>
 7    1  0.3960685E-009  0.9204534E+02  0.7818608E-02  0.1297973E+00
         -2   -1    0    0    0  501 -0.00000000000E+00  0.00000000000E+00  0.89005539411E+01  0.89005543064E+01  0.25500000000E-02 0.  1.
          2   -1    0    0  501    0  0.00000000000E+00 -0.00000000000E+00 -0.23797237022E+03  0.23797237024E+03  0.25500000000E-02 0. -1.
         23    2    1    2    0    0 -0.71054273576E-14 -0.71054273576E-14 -0.22907181628E+03  0.24687292454E+03  0.92045335883E+02 0.  0.
    9000005    2    3    3    0    0 -0.31160951753E+02 -0.31676401379E+02 -0.13165625212E+03  0.13980195995E+03  0.15388955921E+02 0.  0.
         22    1    3    3    0    0  0.31160951753E+02  0.31676401379E+02 -0.97415564159E+02  0.10707096459E+03  0.00000000000E+00 0. -1.
         22    1    4    4    0    0 -0.29266312599E+02 -0.20897400721E+02 -0.96570933312E+02  0.10304932591E+03  0.00000000000E+00 0.  1.
         22    1    4    4    0    0 -0.18946391539E+01 -0.10779000658E+02 -0.35085318813E+02  0.36752634040E+02  0.00000000000E+00 0.  1.
<mgrwt>
<rscale>  0 0.92045336E+02</rscale>
<asrwt>0</asrwt>
<pdfrwt beam="2">  1        2 0.36611129E-01 0.92045336E+02</pdfrwt>
<pdfrwt beam="1">  1       -2 0.13693162E-02 0.92045336E+02</pdfrwt>
<totfact> 0.16068836E+05</totfact>
</mgrwt>
</event>
<event>
 7    1  0.3960685E-009  0.9006714E+02  0.7818608E-02  0.1302689E+00
          2   -1    0    0  501    0  0.00000000000E+00  0.00000000000E+00  0.15335449327E+03  0.15335449329E+03  0.25500000000E-02 0.  1.
         -2   -1    0    0    0  501 -0.00000000000E+00 -0.00000000000E+00 -0.13224408164E+02  0.13224408410E+02  0.25500000000E-02 0. -1.
         23    2    1    2    0    0  0.17763568394E-14  0.00000000000E+00  0.14013008511E+03  0.16657890170E+03  0.90067140179E+02 0.  0.
    9000005    2    3    3    0    0 -0.10990069258E+02 -0.42154525714E+02  0.77969492514E+02  0.90672874721E+02  0.15637863880E+02 0.  0.
         22    1    3    3    0    0  0.10990069258E+02  0.42154525714E+02  0.62160592592E+02  0.75906026980E+02  0.00000000000E+00 0.  1.
         22    1    4    4    0    0 -0.87146536393E+01 -0.37774068928E+02  0.76080203267E+02  0.85387486206E+02  0.00000000000E+00 0.  1.
         22    1    4    4    0    0 -0.22754156191E+01 -0.43804567861E+01  0.18892892474E+01  0.52853885151E+01  0.00000000000E+00 0.  1.
<mgrwt>
<rscale>  0 0.90067140E+02</rscale>
<asrwt>0</asrwt>
<pdfrwt beam="1">  1        2 0.23592999E-01 0.90067140E+02</pdfrwt>
<pdfrwt beam="2">  1       -2 0.20345243E-02 0.90067140E+02</pdfrwt>
<totfact> 0.14561875E+05</totfact>
</mgrwt>
</event>
<event>
 7    1  0.3960685E-009  0.1041513E+03  0.7818608E-02  0.1271801E+00
         -2   -1    0    0    0  501 -0.00000000000E+00  0.00000000000E+00  0.17260833330E+02  0.17260833519E+02  0.25500000000E-02 0.  1.
          2   -1    0    0  501    0  0.00000000000E+00 -0.00000000000E+00 -0.15711148016E+03  0.15711148018E+03  0.25500000000E-02 0. -1.
         23    2    1    2    0    0  0.00000000000E+00  0.00000000000E+00 -0.13985064683E+03  0.17437231370E+03  0.10415133396E+03 0.  0.
    9000005    2    3    3    0    0  0.16595697593E+02 -0.29720872643E+02 -0.46381641086E+01  0.34940742910E+02  0.63714597652E+01 0.  0.
         22    1    3    3    0    0 -0.16595697593E+02  0.29720872643E+02 -0.13521248272E+03  0.13943157079E+03  0.00000000000E+00 0. -1.
         22    1    4    4    0    0  0.52338328511E+01 -0.15763983164E+02 -0.28835305299E+01  0.16858556280E+02  0.00000000000E+00 0. -1.
         22    1    4    4    0    0  0.11361864742E+02 -0.13956889478E+02 -0.17546335786E+01  0.18082186630E+02  0.00000000000E+00 0. -1.
<mgrwt>
<rscale>  0 0.10415133E+03</rscale>
<asrwt>0</asrwt>
<pdfrwt beam="2">  1        2 0.24170996E-01 0.10415133E+03</pdfrwt>
<pdfrwt beam="1">  1       -2 0.26555129E-02 0.10415133E+03</pdfrwt>
<totfact> 0.98712720E+04</totfact>
</mgrwt>
</event>
<event>
 7    1  0.3960685E-009  0.8777424E+02  0.7818608E-02  0.1308333E+00
         -2   -1    0    0    0  501 -0.00000000000E+00  0.00000000000E+00  0.58362133081E+01  0.58362138652E+01  0.25500000000E-02 0. -1.
          2   -1    0    0  501    0  0.00000000000E+00 -0.00000000000E+00 -0.33002205936E+03  0.33002205937E+03  0.25500000000E-02 0.  1.
         23    2    1    2    0    0 -0.71054273576E-14 -0.22204460493E-15 -0.32418584605E+03  0.33585827323E+03  0.87774238362E+02 0.  0.
    9000005    2    3    3    0    0  0.43051627108E+02  0.12375458997E+01 -0.17708293133E+03  0.18257995893E+03  0.11050009864E+02 0.  0.
         22    1    3    3    0    0 -0.43051627108E+02 -0.12375458997E+01 -0.14710291472E+03  0.15327831431E+03  0.00000000000E+00 0. -1.
         22    1    4    4    0    0  0.32208741202E+02  0.29318379754E+01 -0.14806594152E+03  0.15155699167E+03  0.00000000000E+00 0. -1.
         22    1    4    4    0    0  0.10842885906E+02 -0.16942920757E+01 -0.29016989805E+02  0.31022967262E+02  0.00000000000E+00 0. -1.
<mgrwt>
<rscale>  0 0.87774238E+02</rscale>
<asrwt>0</asrwt>
<pdfrwt beam="2">  1        2 0.50772610E-01 0.87774238E+02</pdfrwt>
<pdfrwt beam="1">  1       -2 0.89787927E-03 0.87774238E+02</pdfrwt>
<totfact> 0.20591896E+05</totfact>
</mgrwt>
</event>
<event>
 6    1  0.3960685E-009  0.1768672E+03  0.7818608E-02  0.1170870E+00
         -2   -1    0    0    0  501 -0.00000000000E+00  0.00000000000E+00  0.53375007903E+01  0.53375013994E+01  0.25500000000E-02 0.  1.
          2   -1    0    0  501    0  0.00000000000E+00 -0.00000000000E+00 -0.14651994087E+04  0.14651994087E+04  0.25500000000E-02 0. -1.
    9000005    2    1    2    0    0  0.42737560333E+02 -0.24577308711E+02 -0.13392160246E+04  0.13402066667E+04  0.14960145620E+02 0.  0.
         22    1    1    2    0    0 -0.42737560333E+02  0.24577308711E+02 -0.12064588335E+03  0.13033024337E+03  0.00000000000E+00 0.  1.
         22    1    3    3    0    0  0.19112636976E+02 -0.18678843476E+02 -0.61232311541E+03  0.61290602032E+03  0.00000000000E+00 0. -1.
         22    1    3    3    0    0  0.23624923357E+02 -0.58984652354E+01 -0.72689290916E+03  0.72730064642E+03  0.00000000000E+00 0. -1.
<mgrwt>
<rscale>  0 0.17686722E+03</rscale>
<asrwt>0</asrwt>
<pdfrwt beam="2">  1        2 0.22541497E+00 0.17686722E+03</pdfrwt>
<pdfrwt beam="1">  1       -2 0.82115518E-03 0.17686722E+03</pdfrwt>
<totfact> 0.39310730E+04</totfact>
</mgrwt>
</event>
<event>
 7    1  0.3960685E-009  0.6905749E+02  0.7818608E-02  0.1363328E+00
         -2   -1    0    0    0  501 -0.00000000000E+00  0.00000000000E+00  0.17076181445E+02  0.17076181635E+02  0.25500000000E-02 0.  1.
          2   -1    0    0  501    0  0.00000000000E+00 -0.00000000000E+00 -0.69818541763E+02  0.69818541809E+02  0.25500000000E-02 0. -1.
         23    2    1    2    0    0  0.00000000000E+00  0.00000000000E+00 -0.52742360318E+02  0.86894723444E+02  0.69057486129E+02 0.  0.
    9000005    2    3    3    0    0 -0.17921047436E+02 -0.22055299566E+02 -0.53778394169E+01  0.31658883446E+02  0.12874919964E+02 0.  0.
         22    1    3    3    0    0  0.17921047436E+02  0.22055299566E+02 -0.47364520901E+02  0.55235839999E+02  0.00000000000E+00 0. -1.
         22    1    4    4    0    0  0.10767695329E+00  0.12299478712E+01  0.92540524195E+00  0.15429649879E+01  0.00000000000E+00 0.  1.
         22    1    4    4    0    0 -0.18028724389E+02 -0.23285247437E+02 -0.63032446588E+01  0.30115918458E+02  0.00000000000E+00 0.  1.
<mgrwt>
<rscale>  0 0.69057486E+02</rscale>
<asrwt>0</asrwt>
<pdfrwt beam="2">  1        2 0.10741314E-01 0.69057486E+02</pdfrwt>
<pdfrwt beam="1">  1       -2 0.26271049E-02 0.69057486E+02</pdfrwt>
<totfact> 0.23628811E+05</totfact>
</mgrwt>
</event>
<event>
 7    1  0.3960685E-009  0.9152392E+02  0.7818608E-02  0.1299203E+00
          2   -1    0    0  501    0  0.00000000000E+00  0.00000000000E+00  0.83218608293E+01  0.83218612200E+01  0.25500000000E-02 0. -1.
         -2   -1    0    0    0  501 -0.00000000000E+00 -0.00000000000E+00 -0.25164528542E+03  0.25164528543E+03  0.25500000000E-02 0.  1.
         23    2    1    2    0    0  0.00000000000E+00  0.00000000000E+00 -0.24332342459E+03  0.25996714665E+03  0.91523922470E+02 0.  0.
    9000005    2    3    3    0    0 -0.26056352377E+02  0.26340915266E+02 -0.19621176487E+03  0.20003146615E+03  0.11863956280E+02 0.  0.
         22    1    3    3    0    0  0.26056352377E+02 -0.26340915266E+02 -0.47111659717E+02  0.59935680504E+02  0.00000000000E+00 0. -1.
         22    1    4    4    0    0 -0.96937428012E+01  0.11078482235E+02 -0.10924150941E+03  0.11022889275E+03  0.00000000000E+00 0.  1.
         22    1    4    4    0    0 -0.16362609575E+02  0.15262433030E+02 -0.86970255465E+02  0.89802573403E+02  0.00000000000E+00 0.  1.
<mgrwt>
<rscale>  0 0.91523922E+02</rscale>
<asrwt>0</asrwt>
<pdfrwt beam="1">  1        2 0.12802865E-02 0.91523922E+02</pdfrwt>
<pdfrwt beam="2">  1       -2 0.38714653E-01 0.91523922E+02</pdfrwt>
<totfact> 0.55449113E+04</totfact>
</mgrwt>
</event>
<event>
 7    1  0.3960685E-009  0.9413046E+02  0.7818608E-02  0.1293147E+00
         -2   -1    0    0    0  501 -0.00000000000E+00  0.00000000000E+00  0.46586886344E+01  0.46586893323E+01  0.25500000000E-02 0.  1.
          2   -1    0    0  501    0  0.00000000000E+00 -0.00000000000E+00 -0.47548485134E+03  0.47548485135E+03  0.25500000000E-02 0. -1.
         23    2    1    2    0    0  0.00000000000E+00  0.00000000000E+00 -0.47082616271E+03  0.48014354068E+03  0.94130463549E+02 0.  0.
    9000005    2    3    3    0    0 -0.37266111716E+02 -0.90462996929E+01 -0.37175563716E+03  0.37390998829E+03  0.11654482621E+02 0.  0.
         22    1    3    3    0    0  0.37266111716E+02  0.90462996929E+01 -0.99070525549E+02  0.10623355239E+03  0.00000000000E+00 0.  1.
         22    1    4    4    0    0 -0.15820346665E+02  0.15536157658E+01 -0.16978619984E+03  0.17052873877E+03  0.00000000000E+00 0. -1.
         22    1    4    4    0    0 -0.21445765051E+02 -0.10599915459E+02 -0.20196943732E+03  0.20338124952E+03  0.00000000000E+00 0. -1.
<mgrwt>
<rscale>  0 0.94130464E+02</rscale>
<asrwt>0</asrwt>
<pdfrwt beam="2">  1        2 0.73151477E-01 0.94130464E+02</pdfrwt>
<pdfrwt beam="1">  1       -2 0.71672176E-03 0.94130464E+02</pdfrwt>
<totfact> 0.19475998E+05</totfact>
</mgrwt>
</event>
<event>
 7    1  0.3960685E-009  0.9074414E+02  0.7818608E-02  0.1301060E+00
         -2   -1    0    0    0  501 -0.00000000000E+00  0.00000000000E+00  0.24781187986E+03  0.24781187987E+03  0.25500000000E-02 0.  1.
          2   -1    0    0  501    0  0.00000000000E+00 -0.00000000000E+00 -0.83072071851E+01  0.83072075765E+01  0.25500000000E-02 0. -1.
         23    2    1    2    0    0  0.00000000000E+00  0.00000000000E+00  0.23950467268E+03  0.25611908745E+03  0.90744138780E+02 0.  0.
    9000005    2    3    3    0    0  0.37547914432E+02 -0.22858150685E+02  0.13847845289E+03  0.14594360009E+03  0.13817074995E+02 0.  0.
         22    1    3    3    0    0 -0.37547914432E+02  0.22858150685E+02  0.10102621979E+03  0.11017548736E+03  0.00000000000E+00 0. -1.
         22    1    4    4    0    0 -0.81273996984E+00  0.16809599486E+00  0.70961679946E+00  0.10919517041E+01  0.00000000000E+00 0.  1.
         22    1    4    4    0    0  0.38360654402E+02 -0.23026246680E+02  0.13776883609E+03  0.14485164838E+03  0.00000000000E+00 0.  1.
<mgrwt>
<rscale>  0 0.90744139E+02</rscale>
<asrwt>0</asrwt>
<pdfrwt beam="2">  1        2 0.12780319E-02 0.90744139E+02</pdfrwt>
<pdfrwt beam="1">  1       -2 0.38124906E-01 0.90744139E+02</pdfrwt>
<totfact> 0.57116022E+04</totfact>
</mgrwt>
</event>
<event>
 7    1  0.3960685E-009  0.9266913E+02  0.7818608E-02  0.1296514E+00
         -2   -1    0    0    0  501 -0.00000000000E+00  0.00000000000E+00  0.21884214346E+01  0.21884229203E+01  0.25500000000E-02 0.  1.
          2   -1    0    0  501    0  0.00000000000E+00 -0.00000000000E+00 -0.98102263498E+03  0.98102263498E+03  0.25500000000E-02 0. -1.
         23    2    1    2    0    0  0.00000000000E+00 -0.35527136788E-14 -0.97883421355E+03  0.98321105790E+03  0.92669125263E+02 0.  0.
    9000005    2    3    3    0    0  0.58267262758E+01  0.20133925340E+02 -0.92745050870E+03  0.92771681665E+03  0.73973047554E+01 0.  0.
         22    1    3    3    0    0 -0.58267262758E+01 -0.20133925340E+02 -0.51383704842E+02  0.55494241251E+02  0.00000000000E+00 0.  1.
         22    1    4    4    0    0 -0.30444150928E+00  0.11394605272E+02 -0.42441574988E+03  0.42456879120E+03  0.00000000000E+00 0. -1.
         22    1    4    4    0    0  0.61311677850E+01  0.87393200686E+01 -0.50303475882E+03  0.50314802545E+03  0.00000000000E+00 0. -1.
<mgrwt>
<rscale>  0 0.92669125E+02</rscale>
<asrwt>0</asrwt>
<pdfrwt beam="2">  1        2 0.15092621E+00 0.92669125E+02</pdfrwt>
<pdfrwt beam="1">  1       -2 0.33668112E-03 0.92669125E+02</pdfrwt>
<totfact> 0.23931243E+05</totfact>
</mgrwt>
</event>
<event>
 7    1  0.3960685E-009  0.8768475E+02  0.7818608E-02  0.1308557E+00
          2   -1    0    0  501    0  0.00000000000E+00  0.00000000000E+00  0.15485011077E+02  0.15485011287E+02  0.25500000000E-02 0. -1.
         -2   -1    0    0    0  501 -0.00000000000E+00 -0.00000000000E+00 -0.12412995718E+03  0.12412995721E+03  0.25500000000E-02 0.  1.
         23    2    1    2    0    0  0.35527136788E-14  0.71054273576E-14 -0.10864494610E+03  0.13961496849E+03  0.87684748465E+02 0.  0.
    9000005    2    3    3    0    0  0.18557016865E+02  0.36848195528E+02 -0.33656176425E+02  0.54026020804E+02  0.91608036637E+01 0.  0.
         22    1    3    3    0    0 -0.18557016865E+02 -0.36848195528E+02 -0.74988769677E+02  0.85588947687E+02  0.00000000000E+00 0.  1.
         22    1    4    4    0    0  0.66193762826E+01  0.13070235342E+02 -0.17796816879E+02  0.23051548436E+02  0.00000000000E+00 0.  1.
         22    1    4    4    0    0  0.11937640583E+02  0.23777960186E+02 -0.15859359546E+02  0.30974472368E+02  0.00000000000E+00 0.  1.
<mgrwt>
<rscale>  0 0.87684748E+02</rscale>
<asrwt>0</asrwt>
<pdfrwt beam="1">  1        2 0.23823095E-02 0.87684748E+02</pdfrwt>
<pdfrwt beam="2">  1       -2 0.19096916E-01 0.87684748E+02</pdfrwt>
<totfact> 0.82273380E+04</totfact>
</mgrwt>
</event>
<event>
 7    1  0.3960685E-009  0.9157849E+02  0.7818608E-02  0.1299074E+00
          2   -1    0    0  501    0  0.00000000000E+00  0.00000000000E+00  0.13254742833E+02  0.13254743078E+02  0.25500000000E-02 0. -1.
         -2   -1    0    0    0  501 -0.00000000000E+00 -0.00000000000E+00 -0.15818150365E+03  0.15818150367E+03  0.25500000000E-02 0.  1.
         23    2    1    2    0    0  0.00000000000E+00 -0.17763568394E-14 -0.14492676082E+03  0.17143624675E+03  0.91578494739E+02 0.  0.
    9000005    2    3    3    0    0  0.34503752335E+02  0.14389181518E+02 -0.12156626813E+03  0.12735370952E+03  0.65614260448E+01 0.  0.
         22    1    3    3    0    0 -0.34503752335E+02 -0.14389181518E+02 -0.23360492688E+02  0.44082537230E+02  0.00000000000E+00 0. -1.
         22    1    4    4    0    0  0.16143069382E+02  0.65676458853E+01 -0.45821804606E+02  0.49024182185E+02  0.00000000000E+00 0.  1.
         22    1    4    4    0    0  0.18360682953E+02  0.78215356330E+01 -0.75744463527E+02  0.78329527339E+02  0.00000000000E+00 0.  1.
<mgrwt>
<rscale>  0 0.91578495E+02</rscale>
<asrwt>0</asrwt>
<pdfrwt beam="1">  1        2 0.20391913E-02 0.91578495E+02</pdfrwt>
<pdfrwt beam="2">  1       -2 0.24335615E-01 0.91578495E+02</pdfrwt>
<totfact> 0.67738878E+04</totfact>
</mgrwt>
</event>
<event>
 7    1  0.3960685E-009  0.9020169E+02  0.7818608E-02  0.1302364E+00
          2   -1    0    0  501    0  0.00000000000E+00  0.00000000000E+00  0.22861518225E+02  0.22861518367E+02  0.25500000000E-02 0. -1.
         -2   -1    0    0    0  501 -0.00000000000E+00 -0.00000000000E+00 -0.88974243696E+02  0.88974243733E+02  0.25500000000E-02 0.  1.
         23    2    1    2    0    0  0.00000000000E+00  0.00000000000E+00 -0.66112725472E+02  0.11183576210E+03  0.90201691864E+02 0.  0.
    9000005    2    3    3    0    0  0.16514545975E+02  0.30887216615E+02 -0.67433709753E+02  0.76785863691E+02  0.11045961831E+02 0.  0.
         22    1    3    3    0    0 -0.16514545975E+02 -0.30887216615E+02  0.13209842815E+01  0.35049898408E+02  0.00000000000E+00 0. -1.
         22    1    4    4    0    0  0.15113692408E+02  0.17849199204E+02 -0.47158167155E+02  0.52639437115E+02  0.00000000000E+00 0.  1.
         22    1    4    4    0    0  0.14008535667E+01  0.13038017411E+02 -0.20275542598E+02  0.24146426576E+02  0.00000000000E+00 0.  1.
<mgrwt>
<rscale>  0 0.90201692E+02</rscale>
<asrwt>0</asrwt>
<pdfrwt beam="1">  1        2 0.35171567E-02 0.90201692E+02</pdfrwt>
<pdfrwt beam="2">  1       -2 0.13688345E-01 0.90201692E+02</pdfrwt>
<totfact> 0.84798649E+04</totfact>
</mgrwt>
</event>
<event>
 7    1  0.3960685E-009  0.1109030E+03  0.7818608E-02  0.1258907E+00
          2   -1    0    0  501    0  0.00000000000E+00  0.00000000000E+00  0.24121955288E+03  0.24121955290E+03  0.25500000000E-02 0. -1.
         -2   -1    0    0    0  501 -0.00000000000E+00 -0.00000000000E+00 -0.12747187494E+02  0.12747187749E+02  0.25500000000E-02 0.  1.
         23    2    1    2    0    0  0.00000000000E+00  0.00000000000E+00  0.22847236539E+03  0.25396674064E+03  0.11090303696E+03 0.  0.
    9000005    2    3    3    0    0 -0.40542957636E+02 -0.35563854138E+02  0.13704992374E+03  0.14782258409E+03  0.12661580993E+02 0.  0.
         22    1    3    3    0    0  0.40542957636E+02  0.35563854138E+02  0.91422441643E+02  0.10614415656E+03  0.00000000000E+00 0.  1.
         22    1    4    4    0    0 -0.12386948052E+02 -0.18485735249E+02  0.48993704424E+02  0.53810240317E+02  0.00000000000E+00 0. -1.
         22    1    4    4    0    0 -0.28156009584E+02 -0.17078118888E+02  0.88056219320E+02  0.94012343772E+02  0.00000000000E+00 0. -1.
<mgrwt>
<rscale>  0 0.11090304E+03</rscale>
<asrwt>0</asrwt>
<pdfrwt beam="1">  1        2 0.37110698E-01 0.11090304E+03</pdfrwt>
<pdfrwt beam="2">  1       -2 0.19611059E-02 0.11090304E+03</pdfrwt>
<totfact> 0.97390747E+04</totfact>
</mgrwt>
</event>
<event>
 7    1  0.3960685E-009  0.9482186E+02  0.7818608E-02  0.1291578E+00
          2   -1    0    0  501    0  0.00000000000E+00  0.00000000000E+00  0.10216779392E+04  0.10216779392E+04  0.25500000000E-02 0. -1.
         -2   -1    0    0    0  501 -0.00000000000E+00 -0.00000000000E+00 -0.22001017461E+01  0.22001032239E+01  0.25500000000E-02 0.  1.
         23    2    1    2    0    0  0.00000000000E+00  0.35527136788E-14  0.10194778374E+04  0.10238780424E+04  0.94821857736E+02 0.  0.
    9000005    2    3    3    0    0  0.16727428507E+02 -0.16838342193E+02  0.95129729654E+03  0.95168439457E+03  0.13164490831E+02 0.  0.
         22    1    3    3    0    0 -0.16727428507E+02  0.16838342193E+02  0.68180540880E+02  0.72193647830E+02  0.00000000000E+00 0.  1.
         22    1    4    4    0    0  0.14671485626E+02 -0.16232112700E+02  0.93379948808E+03  0.93405578951E+03  0.00000000000E+00 0. -1.
         22    1    4    4    0    0  0.20559428815E+01 -0.60622949290E+00  0.17497808466E+02  0.17628605062E+02  0.00000000000E+00 0. -1.
<mgrwt>
<rscale>  0 0.94821858E+02</rscale>
<asrwt>0</asrwt>
<pdfrwt beam="1">  1        2 0.15718142E+00 0.94821858E+02</pdfrwt>
<pdfrwt beam="2">  1       -2 0.33847688E-03 0.94821858E+02</pdfrwt>
<totfact> 0.22562476E+05</totfact>
</mgrwt>
</event>
<event>
 7    1  0.3960685E-009  0.9179211E+02  0.7818608E-02  0.1298569E+00
          2   -1    0    0  501    0  0.00000000000E+00  0.00000000000E+00  0.30219371188E+02  0.30219371296E+02  0.25500000000E-02 0. -1.
         -2   -1    0    0    0  501 -0.00000000000E+00 -0.00000000000E+00 -0.69705221542E+02  0.69705221589E+02  0.25500000000E-02 0.  1.
         23    2    1    2    0    0  0.00000000000E+00  0.00000000000E+00 -0.39485850354E+02  0.99924592884E+02  0.91792112324E+02 0.  0.
    9000005    2    3    3    0    0 -0.31998571888E+02  0.19614276574E+02 -0.46732950761E+02  0.61699615282E+02  0.14637123715E+02 0.  0.
         22    1    3    3    0    0  0.31998571888E+02 -0.19614276574E+02  0.72471004072E+01  0.38224977603E+02  0.00000000000E+00 0. -1.
         22    1    4    4    0    0 -0.25484034303E+01  0.40042504002E+01 -0.14790986300E+02  0.15533887377E+02  0.00000000000E+00 0.  1.
         22    1    4    4    0    0 -0.29450168458E+02  0.15610026174E+02 -0.31941964462E+02  0.46165727905E+02  0.00000000000E+00 0.  1.
<mgrwt>
<rscale>  0 0.91792112E+02</rscale>
<asrwt>0</asrwt>
<pdfrwt beam="1">  1        2 0.46491341E-02 0.91792112E+02</pdfrwt>
<pdfrwt beam="2">  1       -2 0.10723880E-01 0.91792112E+02</pdfrwt>
<totfact> 0.86884628E+04</totfact>
</mgrwt>
</event>
<event>
 7    1  0.3960685E-009  0.9550376E+02  0.7818608E-02  0.1290046E+00
          2   -1    0    0  501    0  0.00000000000E+00  0.00000000000E+00  0.40867982345E+03  0.40867982345E+03  0.25500000000E-02 0. -1.
         -2   -1    0    0    0  501 -0.00000000000E+00 -0.00000000000E+00 -0.55795319250E+01  0.55795325077E+01  0.25500000000E-02 0.  1.
         23    2    1    2    0    0  0.00000000000E+00  0.00000000000E+00  0.40310029152E+03  0.41425935596E+03  0.95503764205E+02 0.  0.
    9000005    2    3    3    0    0 -0.21785834897E+02  0.41454601440E+02  0.23514396140E+03  0.23989641434E+03  0.80312171115E+01 0.  0.
         22    1    3    3    0    0  0.21785834897E+02 -0.41454601440E+02  0.16795633012E+03  0.17436294162E+03  0.00000000000E+00 0.  1.
         22    1    4    4    0    0 -0.71849516839E+01  0.92135402385E+01  0.45373971971E+02  0.46854137350E+02  0.00000000000E+00 0.  1.
         22    1    4    4    0    0 -0.14600883213E+02  0.32241061201E+02  0.18976998943E+03  0.19304227699E+03  0.00000000000E+00 0.  1.
<mgrwt>
<rscale>  0 0.95503764E+02</rscale>
<asrwt>0</asrwt>
<pdfrwt beam="1">  1        2 0.62873831E-01 0.95503764E+02</pdfrwt>
<pdfrwt beam="2">  1       -2 0.85838942E-03 0.95503764E+02</pdfrwt>
<totfact> 0.17780380E+05</totfact>
</mgrwt>
</event>
<event>
 7    1  0.3960685E-009  0.9381732E+02  0.7818608E-02  0.1293862E+00
          2   -1    0    0  501    0  0.00000000000E+00  0.00000000000E+00  0.38525965662E+03  0.38525965663E+03  0.25500000000E-02 0. -1.
         -2   -1    0    0    0  501 -0.00000000000E+00 -0.00000000000E+00 -0.57115309392E+01  0.57115315084E+01  0.25500000000E-02 0.  1.
         23    2    1    2    0    0  0.00000000000E+00  0.88817841970E-15  0.37954812568E+03  0.39097118814E+03  0.93817323802E+02 0.  0.
    9000005    2    3    3    0    0 -0.18718065434E+02 -0.57246964784E+01  0.36735656701E+03  0.36791100110E+03  0.49516946524E+01 0.  0.
         22    1    3    3    0    0  0.18718065434E+02  0.57246964784E+01  0.12191558667E+02  0.23060187035E+02  0.00000000000E+00 0.  1.
         22    1    4    4    0    0 -0.50716841377E+01 -0.26689268805E+01  0.74156501760E+02  0.74377630400E+02  0.00000000000E+00 0. -1.
         22    1    4    4    0    0 -0.13646381296E+02 -0.30557695978E+01  0.29320006526E+03  0.29353337070E+03  0.00000000000E+00 0. -1.
<mgrwt>
<rscale>  0 0.93817324E+02</rscale>
<asrwt>0</asrwt>
<pdfrwt beam="1">  1        2 0.59270727E-01 0.93817324E+02</pdfrwt>
<pdfrwt beam="2">  1       -2 0.87869696E-03 0.93817324E+02</pdfrwt>
<totfact> 0.18253787E+05</totfact>
</mgrwt>
</event>
<event>
 7    1  0.4039522E-009  0.9081184E+02  0.7818608E-02  0.1300898E+00
         -2   -1    0    0    0  501 -0.00000000000E+00  0.00000000000E+00  0.26784618612E+01  0.26784630751E+01  0.25500000000E-02 0.  1.
          2   -1    0    0  501    0  0.00000000000E+00 -0.00000000000E+00 -0.76973178418E+03  0.76973178419E+03  0.25500000000E-02 0. -1.
         23    2    1    2    0    0  0.00000000000E+00 -0.22204460493E-15 -0.76705332232E+03  0.77241024726E+03  0.90811842790E+02 0.  0.
    9000005    2    3    3    0    0 -0.25487875274E+02  0.14078798562E+01 -0.70041401668E+03  0.70104911660E+03  0.15441995521E+02 0.  0.
         22    1    3    3    0    0  0.25487875274E+02 -0.14078798562E+01 -0.66639305646E+02  0.71361130657E+02  0.00000000000E+00 0.  1.
         22    1    4    4    0    0 -0.23366585241E+02  0.57226641120E+01 -0.50113142693E+03  0.50170853416E+03  0.00000000000E+00 0. -1.
         22    1    4    4    0    0 -0.21212900326E+01 -0.43147842558E+01 -0.19928258974E+03  0.19934058244E+03  0.00000000000E+00 0. -1.
<mgrwt>
<rscale>  0 0.90811843E+02</rscale>
<asrwt>0</asrwt>
<pdfrwt beam="2">  1        2 0.11842010E+00 0.90811843E+02</pdfrwt>
<pdfrwt beam="1">  1       -2 0.41207176E-03 0.90811843E+02</pdfrwt>
<totfact> 0.24458081E+05</totfact>
</mgrwt>
</event>
<event>
 7    1  0.3960685E-009  0.8917570E+02  0.7818608E-02  0.1304860E+00
         -2   -1    0    0    0  501 -0.00000000000E+00  0.00000000000E+00  0.13656461499E+01  0.13656485306E+01  0.25500000000E-02 0.  1.
          2   -1    0    0  501    0  0.00000000000E+00 -0.00000000000E+00 -0.14557756735E+04  0.14557756735E+04  0.25500000000E-02 0. -1.
         23    2    1    2    0    0  0.00000000000E+00  0.17763568394E-14 -0.14544100274E+04  0.14571413220E+04  0.89175695786E+02 0.  0.
    9000005    2    3    3    0    0 -0.63592407867E+01 -0.97933721587E+01 -0.14302587739E+04  0.14303153435E+04  0.50469210537E+01 0.  0.
         22    1    3    3    0    0  0.63592407867E+01  0.97933721587E+01 -0.24151253421E+02  0.26825978518E+02  0.00000000000E+00 0.  1.
         22    1    4    4    0    0 -0.37803209575E+01 -0.80923611155E+01 -0.81771746929E+03  0.81776624821E+03  0.00000000000E+00 0. -1.
         22    1    4    4    0    0 -0.25789198293E+01 -0.17010110432E+01 -0.61254130464E+03  0.61254909530E+03  0.00000000000E+00 0. -1.
<mgrwt>
<rscale>  0 0.89175696E+02</rscale>
<asrwt>0</asrwt>
<pdfrwt beam="2">  1        2 0.22396425E+00 0.89175696E+02</pdfrwt>
<pdfrwt beam="1">  1       -2 0.21010076E-03 0.89175696E+02</pdfrwt>
<totfact> 0.25284729E+05</totfact>
</mgrwt>
</event>
<event>
 7    1  0.3960685E-009  0.9138221E+02  0.7818608E-02  0.1299539E+00
         -2   -1    0    0    0  501 -0.00000000000E+00  0.00000000000E+00  0.19587918250E+01  0.19587934848E+01  0.25500000000E-02 0.  1.
          2   -1    0    0  501    0  0.00000000000E+00 -0.00000000000E+00 -0.10657977717E+04  0.10657977717E+04  0.25500000000E-02 0. -1.
         23    2    1    2    0    0  0.00000000000E+00  0.00000000000E+00 -0.10638389798E+04  0.10677565652E+04  0.91382205052E+02 0.  0.
    9000005    2    3    3    0    0  0.40857993361E+01  0.19925314646E+02 -0.10091316640E+04  0.10093904592E+04  0.10424580257E+02 0.  0.
         22    1    3    3    0    0 -0.40857993361E+01 -0.19925314646E+02 -0.54707315811E+02  0.58366105946E+02  0.00000000000E+00 0.  1.
         22    1    4    4    0    0  0.33997798809E+01  0.10002845188E+02 -0.73940990786E+03  0.73948538002E+03  0.00000000000E+00 0.  1.
         22    1    4    4    0    0  0.68601945516E+00  0.99224694589E+01 -0.26972175617E+03  0.26990507920E+03  0.00000000000E+00 0.  1.
<mgrwt>
<rscale>  0 0.91382205E+02</rscale>
<asrwt>0</asrwt>
<pdfrwt beam="2">  1        2 0.16396842E+00 0.91382205E+02</pdfrwt>
<pdfrwt beam="1">  1       -2 0.30135357E-03 0.91382205E+02</pdfrwt>
<totfact> 0.24885106E+05</totfact>
</mgrwt>
</event>
<event>
 7    1  0.3960685E-009  0.9108763E+02  0.7818608E-02  0.1300239E+00
          2   -1    0    0  501    0  0.00000000000E+00  0.00000000000E+00  0.73536755989E+01  0.73536760410E+01  0.25500000000E-02 0. -1.
         -2   -1    0    0    0  501 -0.00000000000E+00 -0.00000000000E+00 -0.28206834077E+03  0.28206834078E+03  0.25500000000E-02 0.  1.
         23    2    1    2    0    0  0.00000000000E+00  0.00000000000E+00 -0.27471466517E+03  0.28942201682E+03  0.91087631222E+02 0.  0.
    9000005    2    3    3    0    0 -0.35880667253E+02  0.26663028085E+02 -0.11502403311E+03  0.12359247387E+03  0.67994157255E+01 0.  0.
         22    1    3    3    0    0  0.35880667253E+02 -0.26663028085E+02 -0.15969063206E+03  0.16582954296E+03  0.00000000000E+00 0. -1.
         22    1    4    4    0    0 -0.10239381514E+02  0.40300971817E+01 -0.29224257873E+02  0.31227293596E+02  0.00000000000E+00 0. -1.
         22    1    4    4    0    0 -0.25641285739E+02  0.22632930903E+02 -0.85799775237E+02  0.92365180270E+02  0.00000000000E+00 0. -1.
<mgrwt>
<rscale>  0 0.91087631E+02</rscale>
<asrwt>0</asrwt>
<pdfrwt beam="1">  1        2 0.11313350E-02 0.91087631E+02</pdfrwt>
<pdfrwt beam="2">  1       -2 0.43395121E-01 0.91087631E+02</pdfrwt>
<totfact> 0.52896714E+04</totfact>
</mgrwt>
</event>
<event>
 7    1  0.3960685E-009  0.8890322E+02  0.7818608E-02  0.1305530E+00
          2   -1    0    0  501    0  0.00000000000E+00  0.00000000000E+00  0.99426861719E+03  0.99426861719E+03  0.25500000000E-02 0. -1.
         -2   -1    0    0    0  501 -0.00000000000E+00 -0.00000000000E+00 -0.19873347750E+01  0.19873364110E+01  0.25500000000E-02 0.  1.
         23    2    1    2    0    0  0.00000000000E+00  0.00000000000E+00  0.99228128241E+03  0.99625595360E+03  0.88903215131E+02 0.  0.
    9000005    2    3    3    0    0 -0.13543695315E+02 -0.68739177204E+01  0.96387847276E+03  0.96404722771E+03  0.97295719198E+01 0.  0.
         22    1    3    3    0    0  0.13543695315E+02  0.68739177204E+01  0.28402809647E+02  0.32208725890E+02  0.00000000000E+00 0.  1.
         22    1    4    4    0    0 -0.94855470552E+01  0.22813020497E+00  0.61298172739E+03  0.61305515719E+03  0.00000000000E+00 0. -1.
         22    1    4    4    0    0 -0.40581482603E+01 -0.71020479254E+01  0.35089674537E+03  0.35099207051E+03  0.00000000000E+00 0. -1.
<mgrwt>
<rscale>  0 0.88903215E+02</rscale>
<asrwt>0</asrwt>
<pdfrwt beam="1">  1        2 0.15296408E+00 0.88903215E+02</pdfrwt>
<pdfrwt beam="2">  1       -2 0.30574458E-03 0.88903215E+02</pdfrwt>
<totfact> 0.26711016E+05</totfact>
</mgrwt>
</event>
<event>
 7    1  0.3960685E-009  0.8978418E+02  0.7818608E-02  0.1303375E+00
          2   -1    0    0  501    0  0.00000000000E+00  0.00000000000E+00  0.21311392094E+03  0.21311392096E+03  0.25500000000E-02 0. -1.
         -2   -1    0    0    0  501 -0.00000000000E+00 -0.00000000000E+00 -0.94564431161E+01  0.94564434599E+01  0.25500000000E-02 0.  1.
         23    2    1    2    0    0  0.35527136788E-14  0.00000000000E+00  0.20365747783E+03  0.22257036442E+03  0.89784179244E+02 0.  0.
    9000005    2    3    3    0    0 -0.30535297400E+02  0.14107999744E+02  0.32082028544E+02  0.47728793730E+02  0.10832412074E+02 0.  0.
         22    1    3    3    0    0  0.30535297400E+02 -0.14107999744E+02  0.17157544928E+03  0.17484157069E+03  0.00000000000E+00 0. -1.
         22    1    4    4    0    0 -0.17633498545E+02  0.77060046031E+01  0.25359365949E+02  0.31834261719E+02  0.00000000000E+00 0.  1.
         22    1    4    4    0    0 -0.12901798855E+02  0.64019951412E+01  0.67226625956E+01  0.15894532011E+02  0.00000000000E+00 0.  1.
<mgrwt>
<rscale>  0 0.89784179E+02</rscale>
<asrwt>0</asrwt>
<pdfrwt beam="1">  1        2 0.32786757E-01 0.89784179E+02</pdfrwt>
<pdfrwt beam="2">  1       -2 0.14548374E-02 0.89784179E+02</pdfrwt>
<totfact> 0.16496614E+05</totfact>
</mgrwt>
</event>
<event>
 7    1  0.3960685E-009  0.1034984E+03  0.7818608E-02  0.1273107E+00
          2   -1    0    0  501    0  0.00000000000E+00  0.00000000000E+00  0.23438393298E+01  0.23438407170E+01  0.25500000000E-02 0. -1.
         -2   -1    0    0    0  501 -0.00000000000E+00 -0.00000000000E+00 -0.11425607974E+04  0.11425607974E+04  0.25500000000E-02 0.  1.
         23    2    1    2    0    0  0.00000000000E+00  0.35527136788E-14 -0.11402169581E+04  0.11449046381E+04  0.10349840056E+03 0.  0.
    9000005    2    3    3    0    0 -0.15862084421E+02 -0.23161786377E+02 -0.10509655573E+04  0.10513424309E+04  0.20568005575E+01 0.  0.
         22    1    3    3    0    0  0.15862084421E+02  0.23161786377E+02 -0.89251400830E+02  0.93562207223E+02  0.00000000000E+00 0. -1.
         22    1    4    4    0    0 -0.85017170434E+01 -0.10895406147E+02 -0.49527331565E+03  0.49546608992E+03  0.00000000000E+00 0.  1.
         22    1    4    4    0    0 -0.73603673772E+01 -0.12266380230E+02 -0.55569224161E+03  0.55587634099E+03  0.00000000000E+00 0.  1.
<mgrwt>
<rscale>  0 0.10349840E+03</rscale>
<asrwt>0</asrwt>
<pdfrwt beam="1">  1        2 0.36059169E-03 0.10349840E+03</pdfrwt>
<pdfrwt beam="2">  1       -2 0.17577814E+00 0.10349840E+03</pdfrwt>
<totfact> 0.11377679E+04</totfact>
</mgrwt>
</event>
<event>
 7    1  0.3960685E-009  0.9337822E+02  0.7818608E-02  0.1294871E+00
         -2   -1    0    0    0  501 -0.00000000000E+00  0.00000000000E+00  0.20134156780E+01  0.20134172928E+01  0.25500000000E-02 0.  1.
          2   -1    0    0  501    0  0.00000000000E+00 -0.00000000000E+00 -0.10826736778E+04  0.10826736778E+04  0.25500000000E-02 0. -1.
         23    2    1    2    0    0  0.71054273576E-14  0.00000000000E+00 -0.10806602621E+04  0.10846870951E+04  0.93378220894E+02 0.  0.
    9000005    2    3    3    0    0 -0.35471601144E+02 -0.24338265730E+01 -0.88491289011E+03  0.88573687105E+03  0.13957924213E+02 0.  0.
         22    1    3    3    0    0  0.35471601144E+02  0.24338265730E+01 -0.19574737198E+03  0.19895022402E+03  0.00000000000E+00 0.  1.
         22    1    4    4    0    0 -0.11832698151E+02  0.57795281140E+01 -0.31018062859E+03  0.31046004259E+03  0.00000000000E+00 0. -1.
         22    1    4    4    0    0 -0.23638902993E+02 -0.82133546870E+01 -0.57473226152E+03  0.57527682846E+03  0.00000000000E+00 0. -1.
<mgrwt>
<rscale>  0 0.93378221E+02</rscale>
<asrwt>0</asrwt>
<pdfrwt beam="2">  1        2 0.16656472E+00 0.93378221E+02</pdfrwt>
<pdfrwt beam="1">  1       -2 0.30975725E-03 0.93378221E+02</pdfrwt>
<totfact> 0.23503259E+05</totfact>
</mgrwt>
</event>
<event>
 7    1  0.3960685E-009  0.9361909E+02  0.7818608E-02  0.1294317E+00
         -2   -1    0    0    0  501 -0.00000000000E+00  0.00000000000E+00  0.10204157961E+02  0.10204158280E+02  0.25500000000E-02 0.  1.
          2   -1    0    0  501    0  0.00000000000E+00 -0.00000000000E+00 -0.21472948969E+03  0.21472948970E+03  0.25500000000E-02 0. -1.
         23    2    1    2    0    0  0.88817841970E-15  0.00000000000E+00 -0.20452533172E+03  0.22493364798E+03  0.93619093549E+02 0.  0.
    9000005    2    3    3    0    0 -0.59805826168E+01 -0.43848144494E+02 -0.67787791452E+02  0.81213148177E+02  0.64779335385E+01 0.  0.
         22    1    3    3    0    0  0.59805826168E+01  0.43848144494E+02 -0.13673754027E+03  0.14372049980E+03  0.00000000000E+00 0. -1.
         22    1    4    4    0    0 -0.53363246232E+01 -0.35655914797E+02 -0.50250397164E+02  0.61845962161E+02  0.00000000000E+00 0. -1.
         22    1    4    4    0    0 -0.64425799359E+00 -0.81922296966E+01 -0.17537394288E+02  0.19367186016E+02  0.00000000000E+00 0. -1.
<mgrwt>
<rscale>  0 0.93619094E+02</rscale>
<asrwt>0</asrwt>
<pdfrwt beam="2">  1        2 0.33035303E-01 0.93619094E+02</pdfrwt>
<pdfrwt beam="1">  1       -2 0.15698706E-02 0.93619094E+02</pdfrwt>
<totfact> 0.14781723E+05</totfact>
</mgrwt>
</event>
<event>
 7    1  0.3960685E-009  0.9156564E+02  0.7818608E-02  0.1299104E+00
          2   -1    0    0  501    0  0.00000000000E+00  0.00000000000E+00  0.15748281400E+03  0.15748281402E+03  0.25500000000E-02 0. -1.
         -2   -1    0    0    0  501 -0.00000000000E+00 -0.00000000000E+00 -0.13309811648E+02  0.13309811893E+02  0.25500000000E-02 0.  1.
         23    2    1    2    0    0  0.00000000000E+00  0.00000000000E+00  0.14417300235E+03  0.17079262591E+03  0.91565640168E+02 0.  0.
    9000005    2    3    3    0    0 -0.41488316586E+02 -0.38249609264E+01  0.10376741116E+03  0.11275365160E+03  0.14484460377E+02 0.  0.
         22    1    3    3    0    0  0.41488316586E+02  0.38249609264E+01  0.40405591195E+02  0.58038974311E+02  0.00000000000E+00 0.  1.
         22    1    4    4    0    0 -0.25865187162E+02  0.59116124763E+00  0.79093901862E+02  0.83217802725E+02  0.00000000000E+00 0. -1.
         22    1    4    4    0    0 -0.15623129424E+02 -0.44161221740E+01  0.24673509295E+02  0.29535848879E+02  0.00000000000E+00 0. -1.
<mgrwt>
<rscale>  0 0.91565640E+02</rscale>
<asrwt>0</asrwt>
<pdfrwt beam="1">  1        2 0.24228125E-01 0.91565640E+02</pdfrwt>
<pdfrwt beam="2">  1       -2 0.20476633E-02 0.91565640E+02</pdfrwt>
<totfact> 0.14052565E+05</totfact>
</mgrwt>
</event>
<event>
 7    1  0.3960685E-009  0.9104761E+02  0.7818608E-02  0.1300334E+00
         -2   -1    0    0    0  501 -0.00000000000E+00  0.00000000000E+00  0.17901181381E+02  0.17901181562E+02  0.25500000000E-02 0.  1.
          2   -1    0    0  501    0  0.00000000000E+00 -0.00000000000E+00 -0.11576984571E+03  0.11576984573E+03  0.25500000000E-02 0. -1.
         23    2    1    2    0    0 -0.35527136788E-14 -0.35527136788E-14 -0.97868664324E+02  0.13367102730E+03  0.91047614365E+02 0.  0.
    9000005    2    3    3    0    0 -0.21371907592E+02 -0.29571102177E+02 -0.87326559221E+02  0.95692816462E+02  0.14141381084E+02 0.  0.
         22    1    3    3    0    0  0.21371907592E+02  0.29571102177E+02 -0.10542105103E+02  0.37978210833E+02  0.00000000000E+00 0.  1.
         22    1    4    4    0    0 -0.16781194504E+02 -0.21444964653E+02 -0.77480121633E+02  0.82125904843E+02  0.00000000000E+00 0.  1.
         22    1    4    4    0    0 -0.45907130874E+01 -0.81261375241E+01 -0.98464375880E+01  0.13566911619E+02  0.00000000000E+00 0.  1.
<mgrwt>
<rscale>  0 0.91047614E+02</rscale>
<asrwt>0</asrwt>
<pdfrwt beam="2">  1        2 0.17810745E-01 0.91047614E+02</pdfrwt>
<pdfrwt beam="1">  1       -2 0.27540280E-02 0.91047614E+02</pdfrwt>
<totfact> 0.12888747E+05</totfact>
</mgrwt>
</event>
<event>
 7    1  0.3960685E-009  0.1030897E+03  0.7818608E-02  0.1273930E+00
         -2   -1    0    0    0  501 -0.00000000000E+00  0.00000000000E+00  0.19533391378E+03  0.19533391379E+03  0.25500000000E-02 0.  1.
          2   -1    0    0  501    0  0.00000000000E+00 -0.00000000000E+00 -0.13601693018E+02  0.13601693257E+02  0.25500000000E-02 0. -1.
         23    2    1    2    0    0  0.71054273576E-14 -0.35527136788E-14  0.18173222076E+03  0.20893560705E+03  0.10308970769E+03 0.  0.
    9000005    2    3    3    0    0  0.39278105619E+02 -0.25779042493E+02  0.55365241399E+02  0.74117425467E+02  0.14857798960E+02 0.  0.
         22    1    3    3    0    0 -0.39278105619E+02  0.25779042493E+02  0.12636697936E+03  0.13481818158E+03  0.00000000000E+00 0. -1.
         22    1    4    4    0    0  0.30357001326E+02 -0.13941509130E+02  0.30860609798E+02  0.45478461313E+02  0.00000000000E+00 0. -1.
         22    1    4    4    0    0  0.89211042923E+01 -0.11837533363E+02  0.24504631601E+02  0.28638964154E+02  0.00000000000E+00 0. -1.
<mgrwt>
<rscale>  0 0.10308971E+03</rscale>
<asrwt>0</asrwt>
<pdfrwt beam="2">  1        2 0.20925683E-02 0.10308971E+03</pdfrwt>
<pdfrwt beam="1">  1       -2 0.30051370E-01 0.10308971E+03</pdfrwt>
<totfact> 0.45992405E+04</totfact>
</mgrwt>
</event>
<event>
 7    1  0.3960685E-009  0.9059897E+02  0.7818608E-02  0.1301408E+00
          2   -1    0    0  501    0  0.00000000000E+00  0.00000000000E+00  0.33804064132E+03  0.33804064133E+03  0.25500000000E-02 0. -1.
         -2   -1    0    0    0  501 -0.00000000000E+00 -0.00000000000E+00 -0.60704042831E+01  0.60704048187E+01  0.25500000000E-02 0.  1.
         23    2    1    2    0    0  0.00000000000E+00  0.00000000000E+00  0.33197023703E+03  0.34411104614E+03  0.90598972416E+02 0.  0.
    9000005    2    3    3    0    0 -0.17513434130E+02  0.18622927721E+02  0.30724893053E+03  0.30854875141E+03  0.12119936883E+02 0.  0.
         22    1    3    3    0    0  0.17513434130E+02 -0.18622927721E+02  0.24721306504E+02  0.35562294740E+02  0.00000000000E+00 0.  1.
         22    1    4    4    0    0 -0.76409426760E+01  0.11089700427E+02  0.96617545007E+02  0.97551604107E+02  0.00000000000E+00 0. -1.
         22    1    4    4    0    0 -0.98724914536E+01  0.75332272935E+01  0.21063138552E+03  0.21099714730E+03  0.00000000000E+00 0. -1.
<mgrwt>
<rscale>  0 0.90598972E+02</rscale>
<asrwt>0</asrwt>
<pdfrwt beam="1">  1        2 0.52006261E-01 0.90598972E+02</pdfrwt>
<pdfrwt beam="2">  1       -2 0.93390825E-03 0.90598972E+02</pdfrwt>
<totfact> 0.19098887E+05</totfact>
</mgrwt>
</event>
<event>
 7    1  0.3960685E-009  0.9222379E+02  0.7818608E-02  0.1297554E+00
         -2   -1    0    0    0  501 -0.00000000000E+00  0.00000000000E+00  0.37177404424E+02  0.37177404511E+02  0.25500000000E-02 0.  1.
          2   -1    0    0  501    0  0.00000000000E+00 -0.00000000000E+00 -0.57193527545E+02  0.57193527602E+02  0.25500000000E-02 0. -1.
         23    2    1    2    0    0  0.00000000000E+00  0.00000000000E+00 -0.20016123121E+02  0.94370932113E+02  0.92223791091E+02 0.  0.
    9000005    2    3    3    0    0 -0.30977856599E+02 -0.12993527120E+02  0.20850049980E+02  0.41470048847E+02  0.12513233822E+02 0.  0.
         22    1    3    3    0    0  0.30977856599E+02  0.12993527120E+02 -0.40866173101E+02  0.52900883267E+02  0.00000000000E+00 0. -1.
         22    1    4    4    0    0 -0.74162869410E+01 -0.80726578103E+01  0.26070703199E+01  0.11267916035E+02  0.00000000000E+00 0. -1.
         22    1    4    4    0    0 -0.23561569658E+02 -0.49208693099E+01  0.18242979660E+02  0.30202132812E+02  0.00000000000E+00 0. -1.
<mgrwt>
<rscale>  0 0.92223791E+02</rscale>
<asrwt>0</asrwt>
<pdfrwt beam="2">  1        2 0.87990043E-02 0.92223791E+02</pdfrwt>
<pdfrwt beam="1">  1       -2 0.57196007E-02 0.92223791E+02</pdfrwt>
<totfact> 0.10138642E+05</totfact>
</mgrwt>
</event>
<event>
 7    1  0.3960685E-009  0.9201118E+02  0.7818608E-02  0.1298053E+00
         -2   -1    0    0    0  501 -0.00000000000E+00  0.00000000000E+00  0.53664887324E+01  0.53664893382E+01  0.25500000000E-02 0.  1.
          2   -1    0    0  501    0  0.00000000000E+00 -0.00000000000E+00 -0.39439459052E+03  0.39439459053E+03  0.25500000000E-02 0. -1.
         23    2    1    2    0    0 -0.35527136788E-14  0.00000000000E+00 -0.38902810179E+03  0.39976107987E+03  0.92011178645E+02 0.  0.
    9000005    2    3    3    0    0 -0.26043200553E+02 -0.36272894876E+02 -0.22464457273E+03  0.22942049215E+03  0.13213892845E+02 0.  0.
         22    1    3    3    0    0  0.26043200553E+02  0.36272894876E+02 -0.16438352907E+03  0.17034058772E+03  0.00000000000E+00 0.  1.
         22    1    4    4    0    0 -0.89854266090E+01 -0.54601796475E+01 -0.72127248780E+02  0.72889584096E+02  0.00000000000E+00 0. -1.
         22    1    4    4    0    0 -0.17057773944E+02 -0.30812715229E+02 -0.15251732395E+03  0.15653090805E+03  0.00000000000E+00 0. -1.
<mgrwt>
<rscale>  0 0.92011179E+02</rscale>
<asrwt>0</asrwt>
<pdfrwt beam="2">  1        2 0.60676068E-01 0.92011179E+02</pdfrwt>
<pdfrwt beam="1">  1       -2 0.82561401E-03 0.92011179E+02</pdfrwt>
<totfact> 0.19386679E+05</totfact>
</mgrwt>
</event>
<event>
 7    1  0.3960685E-009  0.8955101E+02  0.7818608E-02  0.1303943E+00
         -2   -1    0    0    0  501 -0.00000000000E+00  0.00000000000E+00  0.25149286814E+02  0.25149286943E+02  0.25500000000E-02 0. -1.
          2   -1    0    0  501    0  0.00000000000E+00 -0.00000000000E+00 -0.79717801174E+02  0.79717801215E+02  0.25500000000E-02 0.  1.
         23    2    1    2    0    0  0.00000000000E+00 -0.11102230246E-15 -0.54568514360E+02  0.10486708816E+03  0.89551010152E+02 0.  0.
    9000005    2    3    3    0    0  0.40331200416E+02 -0.33665520597E+00 -0.49129369060E+02  0.64169381032E+02  0.87917856011E+01 0.  0.
         22    1    3    3    0    0 -0.40331200416E+02  0.33665520597E+00 -0.54391453004E+01  0.40697707126E+02  0.00000000000E+00 0. -1.
         22    1    4    4    0    0  0.35468706421E+02 -0.32321837278E+01 -0.42722703023E+02  0.55621088631E+02  0.00000000000E+00 0.  1.
         22    1    4    4    0    0  0.48624939947E+01  0.28955285218E+01 -0.64066660364E+01  0.85482924009E+01  0.00000000000E+00 0.  1.
<mgrwt>
<rscale>  0 0.89551010E+02</rscale>
<asrwt>0</asrwt>
<pdfrwt beam="2">  1        2 0.12264277E-01 0.89551010E+02</pdfrwt>
<pdfrwt beam="1">  1       -2 0.38691211E-02 0.89551010E+02</pdfrwt>
<totfact> 0.12061084E+05</totfact>
</mgrwt>
</event>
<event>
 7    1  0.3960685E-009  0.9162671E+02  0.7818608E-02  0.1298960E+00
         -2   -1    0    0    0  501 -0.00000000000E+00  0.00000000000E+00  0.31758025919E+02  0.31758026021E+02  0.25500000000E-02 0.  1.
          2   -1    0    0  501    0  0.00000000000E+00 -0.00000000000E+00 -0.66089226002E+02  0.66089226051E+02  0.25500000000E-02 0. -1.
         23    2    1    2    0    0 -0.88817841970E-15  0.00000000000E+00 -0.34331200083E+02  0.97847252072E+02  0.91626707018E+02 0.  0.
    9000005    2    3    3    0    0  0.61180092744E+01 -0.45040116151E+02 -0.12526070904E+02  0.47433903058E+02  0.51990967099E+01 0.  0.
         22    1    3    3    0    0 -0.61180092744E+01  0.45040116151E+02 -0.21805129179E+02  0.50413349015E+02  0.00000000000E+00 0.  1.
         22    1    4    4    0    0  0.22637459240E+01 -0.80124691980E+01 -0.62222308107E+00  0.83493334956E+01  0.00000000000E+00 0.  1.
         22    1    4    4    0    0  0.38542633503E+01 -0.37027646953E+02 -0.11903847823E+02  0.39084569562E+02  0.00000000000E+00 0.  1.
<mgrwt>
<rscale>  0 0.91626707E+02</rscale>
<asrwt>0</asrwt>
<pdfrwt beam="2">  1        2 0.10167573E-01 0.91626707E+02</pdfrwt>
<pdfrwt beam="1">  1       -2 0.48858501E-02 0.91626707E+02</pdfrwt>
<totfact> 0.10738735E+05</totfact>
</mgrwt>
</event>
<event>
 7    1  0.3960685E-009  0.9020558E+02  0.7818608E-02  0.1302355E+00
          2   -1    0    0  501    0  0.00000000000E+00  0.00000000000E+00  0.33485417148E+02  0.33485417245E+02  0.25500000000E-02 0. -1.
         -2   -1    0    0    0  501 -0.00000000000E+00 -0.00000000000E+00 -0.60750674524E+02  0.60750674578E+02  0.25500000000E-02 0.  1.
         23    2    1    2    0    0  0.22204460493E-15  0.00000000000E+00 -0.27265257377E+02  0.94236091823E+02  0.90205580438E+02 0.  0.
    9000005    2    3    3    0    0  0.11145776264E+01 -0.10776339725E+02  0.31025340928E+02  0.34947259553E+02  0.11889801907E+02 0.  0.
         22    1    3    3    0    0 -0.11145776264E+01  0.10776339725E+02 -0.58290598305E+02  0.59288832270E+02  0.00000000000E+00 0.  1.
         22    1    4    4    0    0 -0.41408462477E+01 -0.98229239405E+01  0.22299666830E+02  0.24716625642E+02  0.00000000000E+00 0. -1.
         22    1    4    4    0    0  0.52554238741E+01 -0.95341578431E+00  0.87256740985E+01  0.10230633911E+02  0.00000000000E+00 0. -1.
<mgrwt>
<rscale>  0 0.90205580E+02</rscale>
<asrwt>0</asrwt>
<pdfrwt beam="1">  1        2 0.51516027E-02 0.90205580E+02</pdfrwt>
<pdfrwt beam="2">  1       -2 0.93462576E-02 0.90205580E+02</pdfrwt>
<totfact> 0.93983180E+04</totfact>
</mgrwt>
</event>
<event>
 7    1  0.3960685E-009  0.9013696E+02  0.7818608E-02  0.1302520E+00
         -2   -1    0    0    0  501 -0.00000000000E+00  0.00000000000E+00  0.14558174218E+03  0.14558174220E+03  0.25500000000E-02 0.  1.
          2   -1    0    0  501    0  0.00000000000E+00 -0.00000000000E+00 -0.13952079723E+02  0.13952079956E+02  0.25500000000E-02 0. -1.
         23    2    1    2    0    0 -0.35527136788E-14 -0.17763568394E-14  0.13162966246E+03  0.15953382216E+03  0.90136964525E+02 0.  0.
    9000005    2    3    3    0    0 -0.24269620541E+02 -0.88631247271E+01  0.13111385270E+03  0.13369130833E+03  0.38670521764E+01 0.  0.
         22    1    3    3    0    0  0.24269620541E+02  0.88631247271E+01  0.51580975757E+00  0.25842513826E+02  0.00000000000E+00 0. -1.
         22    1    4    4    0    0 -0.65529645079E+01 -0.42689088934E+01  0.39956344372E+02  0.40714547554E+02  0.00000000000E+00 0. -1.
         22    1    4    4    0    0 -0.17716656033E+02 -0.45942158337E+01  0.91157508330E+02  0.92976760779E+02  0.00000000000E+00 0. -1.
<mgrwt>
<rscale>  0 0.90136965E+02</rscale>
<asrwt>0</asrwt>
<pdfrwt beam="2">  1        2 0.21464739E-02 0.90136965E+02</pdfrwt>
<pdfrwt beam="1">  1       -2 0.22397190E-01 0.90136965E+02</pdfrwt>
<totfact> 0.72691552E+04</totfact>
</mgrwt>
</event>
<event>
 7    1  0.3960685E-009  0.9168792E+02  0.7818608E-02  0.1298815E+00
          2   -1    0    0  501    0  0.00000000000E+00  0.00000000000E+00  0.89401945623E+02  0.89401945660E+02  0.25500000000E-02 0.  1.
         -2   -1    0    0    0  501 -0.00000000000E+00 -0.00000000000E+00 -0.23508087411E+02  0.23508087549E+02  0.25500000000E-02 0. -1.
         23    2    1    2    0    0  0.00000000000E+00  0.00000000000E+00  0.65893858213E+02  0.11291003321E+03  0.91687922046E+02 0.  0.
    9000005    2    3    3    0    0  0.24853070011E+02  0.26596360702E+02  0.66009823492E+02  0.76508729118E+02  0.13086150779E+02 0.  0.
         22    1    3    3    0    0 -0.24853070011E+02 -0.26596360702E+02 -0.11596527899E+00  0.36401304091E+02  0.00000000000E+00 0. -1.
         22    1    4    4    0    0  0.21253572218E+02  0.23276892193E+02  0.45033970785E+02  0.54968960030E+02  0.00000000000E+00 0. -1.
         22    1    4    4    0    0  0.35994977931E+01  0.33194685092E+01  0.20975852707E+02  0.21539769087E+02  0.00000000000E+00 0. -1.
<mgrwt>
<rscale>  0 0.91687922E+02</rscale>
<asrwt>0</asrwt>
<pdfrwt beam="1">  1        2 0.13754145E-01 0.91687922E+02</pdfrwt>
<pdfrwt beam="2">  1       -2 0.36166289E-02 0.91687922E+02</pdfrwt>
<totfact> 0.11680225E+05</totfact>
</mgrwt>
</event>
<event>
 7    1  0.3960685E-009  0.9115450E+02  0.7818608E-02  0.1300080E+00
          2   -1    0    0  501    0  0.00000000000E+00  0.00000000000E+00  0.19753168942E+02  0.19753169106E+02  0.25500000000E-02 0. -1.
         -2   -1    0    0    0  501 -0.00000000000E+00 -0.00000000000E+00 -0.10516214198E+03  0.10516214201E+03  0.25500000000E-02 0.  1.
         23    2    1    2    0    0  0.00000000000E+00  0.35527136788E-14 -0.85408973037E+02  0.12491531112E+03  0.91154496741E+02 0.  0.
    9000005    2    3    3    0    0  0.25680287360E+02 -0.23467280141E+02 -0.82050795857E+02  0.89965808258E+02  0.12301347837E+02 0.  0.
         22    1    3    3    0    0 -0.25680287360E+02  0.23467280141E+02 -0.33581771802E+01  0.34949502859E+02  0.00000000000E+00 0. -1.
         22    1    4    4    0    0  0.32995781880E+01  0.82667707792E+00 -0.12741610914E+02  0.13187845157E+02  0.00000000000E+00 0.  1.
         22    1    4    4    0    0  0.22380709172E+02 -0.24293957219E+02 -0.69309184944E+02  0.76777963101E+02  0.00000000000E+00 0.  1.
<mgrwt>
<rscale>  0 0.91154497E+02</rscale>
<asrwt>0</asrwt>
<pdfrwt beam="1">  1        2 0.30389491E-02 0.91154497E+02</pdfrwt>
<pdfrwt beam="2">  1       -2 0.16178791E-01 0.91154497E+02</pdfrwt>
<totfact> 0.78652752E+04</totfact>
</mgrwt>
</event>
<event>
 6    1  0.3960685E-009  0.1662906E+03  0.7818608E-02  0.1181772E+00
          2   -1    0    0  501    0  0.00000000000E+00  0.00000000000E+00  0.16348217990E+02  0.16348218189E+02  0.25500000000E-02 0. -1.
         -2   -1    0    0    0  501 -0.00000000000E+00 -0.00000000000E+00 -0.42286833329E+03  0.42286833329E+03  0.25500000000E-02 0.  1.
    9000005    2    1    2    0    0  0.73042138029E+02  0.31901036785E+02 -0.14106138161E+03  0.16205023072E+03  0.30222207868E+01 0.  0.
         22    1    1    2    0    0 -0.73042138029E+02 -0.31901036785E+02 -0.26545873368E+03  0.27716632076E+03  0.00000000000E+00 0.  1.
         22    1    3    3    0    0  0.55988824267E+02  0.23527344330E+02 -0.10545069416E+03  0.12168867356E+03  0.00000000000E+00 0. -1.
         22    1    3    3    0    0  0.17053313762E+02  0.83736924556E+01 -0.35610687454E+02  0.40361557163E+02  0.00000000000E+00 0. -1.
<mgrwt>
<rscale>  0 0.16629063E+03</rscale>
<asrwt>0</asrwt>
<pdfrwt beam="1">  1        2 0.25151108E-02 0.16629063E+03</pdfrwt>
<pdfrwt beam="2">  1       -2 0.65056658E-01 0.16629063E+03</pdfrwt>
<totfact> 0.85176325E+03</totfact>
</mgrwt>
</event>
<event>
 7    1  0.3960685E-009  0.9091267E+02  0.7818608E-02  0.1300656E+00
         -2   -1    0    0    0  501 -0.00000000000E+00  0.00000000000E+00  0.23116486804E+02  0.23116486945E+02  0.25500000000E-02 0. -1.
          2   -1    0    0  501    0  0.00000000000E+00 -0.00000000000E+00 -0.89385491168E+02  0.89385491205E+02  0.25500000000E-02 0.  1.
         23    2    1    2    0    0 -0.88817841970E-15  0.00000000000E+00 -0.66269004364E+02  0.11250197815E+03  0.90912673199E+02 0.  0.
    9000005    2    3    3    0    0  0.79435132343E+01  0.33298699273E+02  0.33041531220E+01  0.34962781492E+02  0.62909368179E+01 0.  0.
         22    1    3    3    0    0 -0.79435132343E+01 -0.33298699273E+02 -0.69573157486E+02  0.77539196658E+02  0.00000000000E+00 0.  1.
         22    1    4    4    0    0  0.62545024496E+01  0.32160029016E+02  0.29485785064E+01  0.32894990233E+02  0.00000000000E+00 0. -1.
         22    1    4    4    0    0  0.16890107848E+01  0.11386702566E+01  0.35557461563E+00  0.20677912592E+01  0.00000000000E+00 0. -1.
<mgrwt>
<rscale>  0 0.90912673E+02</rscale>
<asrwt>0</asrwt>
<pdfrwt beam="2">  1        2 0.13751614E-01 0.90912673E+02</pdfrwt>
<pdfrwt beam="1">  1       -2 0.35563826E-02 0.90912673E+02</pdfrwt>
<totfact> 0.11957360E+05</totfact>
</mgrwt>
</event>
<event>
 7    1  0.3960685E-009  0.8220740E+02  0.7818608E-02  0.1322901E+00
          2   -1    0    0  501    0  0.00000000000E+00  0.00000000000E+00  0.10080227838E+04  0.10080227838E+04  0.25500000000E-02 0. -1.
         -2   -1    0    0    0  501 -0.00000000000E+00 -0.00000000000E+00 -0.16760664893E+01  0.16760684291E+01  0.25500000000E-02 0.  1.
         23    2    1    2    0    0  0.00000000000E+00  0.00000000000E+00  0.10063467173E+04  0.10096988522E+04  0.82207400866E+02 0.  0.
    9000005    2    3    3    0    0  0.14529843489E+02 -0.99783463270E+01  0.95900766392E+03  0.95918479752E+03  0.53937550680E+01 0.  0.
         22    1    3    3    0    0 -0.14529843489E+02  0.99783463270E+01  0.47339053379E+02  0.50514054698E+02  0.00000000000E+00 0.  1.
         22    1    4    4    0    0  0.90320968933E+01 -0.29340498626E+01  0.49028068535E+03  0.49037265202E+03  0.00000000000E+00 0. -1.
         22    1    4    4    0    0  0.54977465954E+01 -0.70442964645E+01  0.46872697857E+03  0.46881214550E+03  0.00000000000E+00 0. -1.
<mgrwt>
<rscale>  0 0.82207401E+02</rscale>
<asrwt>0</asrwt>
<pdfrwt beam="1">  1        2 0.15508033E+00 0.82207401E+02</pdfrwt>
<pdfrwt beam="2">  1       -2 0.25785669E-03 0.82207401E+02</pdfrwt>
<totfact> 0.32802296E+05</totfact>
</mgrwt>
</event>
<event>
 7    1  0.3960685E-009  0.9125988E+02  0.7818608E-02  0.1299829E+00
          2   -1    0    0  501    0  0.00000000000E+00  0.00000000000E+00  0.11738430691E+03  0.11738430694E+03  0.25500000000E-02 0.  1.
         -2   -1    0    0    0  501 -0.00000000000E+00 -0.00000000000E+00 -0.17737390346E+02  0.17737390530E+02  0.25500000000E-02 0. -1.
         23    2    1    2    0    0  0.00000000000E+00  0.00000000000E+00  0.99646916562E+02  0.13512169747E+03  0.91259876976E+02 0.  0.
    9000005    2    3    3    0    0  0.18420096930E+02 -0.13266869891E+02  0.10806512602E+03  0.11091062442E+03  0.10381971803E+02 0.  0.
         22    1    3    3    0    0 -0.18420096930E+02  0.13266869891E+02 -0.84182094615E+01  0.24211073048E+02  0.00000000000E+00 0. -1.
         22    1    4    4    0    0  0.71149370358E+00 -0.12819936270E+01  0.28028884286E+02  0.28067206582E+02  0.00000000000E+00 0. -1.
         22    1    4    4    0    0  0.17708603226E+02 -0.11984876264E+02  0.80036241737E+02  0.82843417835E+02  0.00000000000E+00 0. -1.
<mgrwt>
<rscale>  0 0.91259877E+02</rscale>
<asrwt>0</asrwt>
<pdfrwt beam="1">  1        2 0.18059124E-01 0.91259877E+02</pdfrwt>
<pdfrwt beam="2">  1       -2 0.27288293E-02 0.91259877E+02</pdfrwt>
<totfact> 0.12863256E+05</totfact>
</mgrwt>
</event>
<event>
 7    1  0.3960685E-009  0.8651808E+02  0.7818608E-02  0.1311510E+00
          2   -1    0    0  501    0  0.00000000000E+00  0.00000000000E+00  0.20909240361E+03  0.20909240362E+03  0.25500000000E-02 0. -1.
         -2   -1    0    0    0  501 -0.00000000000E+00 -0.00000000000E+00 -0.89498448984E+01  0.89498452617E+01  0.25500000000E-02 0.  1.
         23    2    1    2    0    0  0.00000000000E+00  0.00000000000E+00  0.20014255871E+03  0.21804224888E+03  0.86518081879E+02 0.  0.
    9000005    2    3    3    0    0 -0.19927125084E+02  0.12021874505E+02  0.19142969483E+03  0.19319210245E+03  0.11672386482E+02 0.  0.
         22    1    3    3    0    0  0.19927125084E+02 -0.12021874505E+02  0.87128638781E+01  0.24850146432E+02  0.00000000000E+00 0.  1.
         22    1    4    4    0    0 -0.18359002239E+02  0.12831666209E+02  0.18805073588E+03  0.18937999864E+03  0.00000000000E+00 0. -1.
         22    1    4    4    0    0 -0.15681228454E+01 -0.80979170387E+00  0.33789589486E+01  0.38121038073E+01  0.00000000000E+00 0. -1.
<mgrwt>
<rscale>  0 0.86518082E+02</rscale>
<asrwt>0</asrwt>
<pdfrwt beam="1">  1        2 0.32168061E-01 0.86518082E+02</pdfrwt>
<pdfrwt beam="2">  1       -2 0.13768993E-02 0.86518082E+02</pdfrwt>
<totfact> 0.18091219E+05</totfact>
</mgrwt>
</event>
<event>
 7    1  0.3960685E-009  0.9208223E+02  0.7818608E-02  0.1297886E+00
          2   -1    0    0  501    0  0.00000000000E+00  0.00000000000E+00  0.50043061533E+03  0.50043061534E+03  0.25500000000E-02 0. -1.
         -2   -1    0    0    0  501 -0.00000000000E+00 -0.00000000000E+00 -0.42359199313E+01  0.42359206989E+01  0.25500000000E-02 0.  1.
         23    2    1    2    0    0  0.00000000000E+00  0.00000000000E+00  0.49619469540E+03  0.50466653604E+03  0.92082228753E+02 0.  0.
    9000005    2    3    3    0    0 -0.12355868654E+01  0.11095031465E+02  0.49283737639E+03  0.49300900675E+03  0.66764343544E+01 0.  0.
         22    1    3    3    0    0  0.12355868654E+01 -0.11095031465E+02  0.33573190138E+01  0.11657529286E+02  0.00000000000E+00 0.  1.
         22    1    4    4    0    0 -0.12276037323E+01  0.11603057606E+01  0.19240339403E+03  0.19241080883E+03  0.00000000000E+00 0. -1.
         22    1    4    4    0    0 -0.79831330601E-02  0.99347257040E+01  0.30043398236E+03  0.30059819792E+03  0.00000000000E+00 0. -1.
<mgrwt>
<rscale>  0 0.92082229E+02</rscale>
<asrwt>0</asrwt>
<pdfrwt beam="1">  1        2 0.76989279E-01 0.92082229E+02</pdfrwt>
<pdfrwt beam="2">  1       -2 0.65168044E-03 0.92082229E+02</pdfrwt>
<totfact> 0.20998801E+05</totfact>
</mgrwt>
</event>
<event>
 7    1  0.3960685E-009  0.9027983E+02  0.7818608E-02  0.1302175E+00
         -2   -1    0    0    0  501 -0.00000000000E+00  0.00000000000E+00  0.14380623541E+02  0.14380623767E+02  0.25500000000E-02 0.  1.
          2   -1    0    0  501    0  0.00000000000E+00 -0.00000000000E+00 -0.14169149491E+03  0.14169149493E+03  0.25500000000E-02 0. -1.
         23    2    1    2    0    0  0.00000000000E+00  0.00000000000E+00 -0.12731087137E+03  0.15607211870E+03  0.90279833112E+02 0.  0.
    9000005    2    3    3    0    0  0.94018444575E+01 -0.40809118163E+02 -0.88630394546E+02  0.99063715006E+02  0.14300139478E+02 0.  0.
         22    1    3    3    0    0 -0.94018444575E+01  0.40809118163E+02 -0.38680476823E+02  0.57008403693E+02  0.00000000000E+00 0.  1.
         22    1    4    4    0    0 -0.23192864498E+01 -0.68349697746E+01 -0.79327188279E+01  0.10724920953E+02  0.00000000000E+00 0.  1.
         22    1    4    4    0    0  0.11721130907E+02 -0.33974148388E+02 -0.80697675718E+02  0.88338794053E+02  0.00000000000E+00 0.  1.
<mgrwt>
<rscale>  0 0.90279833E+02</rscale>
<asrwt>0</asrwt>
<pdfrwt beam="2">  1        2 0.21798691E-01 0.90279833E+02</pdfrwt>
<pdfrwt beam="1">  1       -2 0.22124037E-02 0.90279833E+02</pdfrwt>
<totfact> 0.14087598E+05</totfact>
</mgrwt>
</event>
<event>
 7    1  0.3960685E-009  0.9146847E+02  0.7818608E-02  0.1299334E+00
          2   -1    0    0  501    0  0.00000000000E+00  0.00000000000E+00  0.41368583408E+03  0.41368583409E+03  0.25500000000E-02 0. -1.
         -2   -1    0    0    0  501 -0.00000000000E+00 -0.00000000000E+00 -0.50560592935E+01  0.50560599365E+01  0.25500000000E-02 0.  1.
         23    2    1    2    0    0  0.88817841970E-15  0.00000000000E+00  0.40862977478E+03  0.41874189402E+03  0.91468469808E+02 0.  0.
    9000005    2    3    3    0    0  0.72745355855E+01  0.43856570737E+02  0.22344112932E+03  0.22829202641E+03  0.14662652744E+02 0.  0.
         22    1    3    3    0    0 -0.72745355855E+01 -0.43856570737E+02  0.18518864546E+03  0.19044986761E+03  0.00000000000E+00 0. -1.
         22    1    4    4    0    0  0.81170165137E+01  0.11453537193E+02  0.81183886802E+02  0.82388670020E+02  0.00000000000E+00 0. -1.
         22    1    4    4    0    0 -0.84248092815E+00  0.32403033544E+02  0.14225724252E+03  0.14590335639E+03  0.00000000000E+00 0. -1.
<mgrwt>
<rscale>  0 0.91468470E+02</rscale>
<asrwt>0</asrwt>
<pdfrwt beam="1">  1        2 0.63643993E-01 0.91468470E+02</pdfrwt>
<pdfrwt beam="2">  1       -2 0.77785511E-03 0.91468470E+02</pdfrwt>
<totfact> 0.20032218E+05</totfact>
</mgrwt>
</event>
<event>
 7    1  0.3960685E-009  0.8871832E+02  0.7818608E-02  0.1305985E+00
          2   -1    0    0  501    0  0.00000000000E+00  0.00000000000E+00  0.10293647162E+03  0.10293647166E+03  0.25500000000E-02 0.  1.
         -2   -1    0    0    0  501 -0.00000000000E+00 -0.00000000000E+00 -0.19116013414E+02  0.19116013584E+02  0.25500000000E-02 0. -1.
         23    2    1    2    0    0  0.00000000000E+00  0.00000000000E+00  0.83820458210E+02  0.12205248524E+03  0.88718317944E+02 0.  0.
    9000005    2    3    3    0    0 -0.29849071661E+01  0.22267170587E+02  0.94089317020E+02  0.97350541632E+02  0.10935804596E+02 0.  0.
         22    1    3    3    0    0  0.29849071661E+01 -0.22267170587E+02 -0.10268858810E+02  0.24701943608E+02  0.00000000000E+00 0. -1.
         22    1    4    4    0    0 -0.34531168741E+01  0.23387552311E+02  0.86851896524E+02  0.90011963366E+02  0.00000000000E+00 0.  1.
         22    1    4    4    0    0  0.46820970801E+00 -0.11203817237E+01  0.72374204954E+01  0.73385782659E+01  0.00000000000E+00 0.  1.
<mgrwt>
<rscale>  0 0.88718318E+02</rscale>
<asrwt>0</asrwt>
<pdfrwt beam="1">  1        2 0.15836381E-01 0.88718318E+02</pdfrwt>
<pdfrwt beam="2">  1       -2 0.29409251E-02 0.88718318E+02</pdfrwt>
<totfact> 0.13340044E+05</totfact>
</mgrwt>
</event>
<event>
 7    1  0.3960685E-009  0.9096853E+02  0.7818608E-02  0.1300523E+00
         -2   -1    0    0    0  501 -0.00000000000E+00  0.00000000000E+00  0.85888208628E+01  0.85888212414E+01  0.25500000000E-02 0.  1.
          2   -1    0    0  501    0  0.00000000000E+00 -0.00000000000E+00 -0.24087335903E+03  0.24087335905E+03  0.25500000000E-02 0. -1.
         23    2    1    2    0    0  0.71054273576E-14  0.00000000000E+00 -0.23228453817E+03  0.24946218029E+03  0.90968525992E+02 0.  0.
    9000005    2    3    3    0    0 -0.33734563218E+02  0.16326115484E+02 -0.18630743798E+03  0.19014560129E+03  0.63502315573E+01 0.  0.
         22    1    3    3    0    0  0.33734563218E+02 -0.16326115484E+02 -0.45977100195E+02  0.59316579003E+02  0.00000000000E+00 0.  1.
         22    1    4    4    0    0 -0.31602143223E+02  0.13386417165E+02 -0.16510354505E+03  0.16863295114E+03  0.00000000000E+00 0. -1.
         22    1    4    4    0    0 -0.21324199949E+01  0.29396983190E+01 -0.21203892927E+02  0.21512650151E+02  0.00000000000E+00 0. -1.
<mgrwt>
<rscale>  0 0.90968526E+02</rscale>
<asrwt>0</asrwt>
<pdfrwt beam="2">  1        2 0.37057435E-01 0.90968526E+02</pdfrwt>
<pdfrwt beam="1">  1       -2 0.13213573E-02 0.90968526E+02</pdfrwt>
<totfact> 0.16658706E+05</totfact>
</mgrwt>
</event>
<event>
 7    1  0.3960685E-009  0.9207183E+02  0.7818608E-02  0.1297911E+00
          2   -1    0    0  501    0  0.00000000000E+00  0.00000000000E+00  0.84169398912E+02  0.84169398951E+02  0.25500000000E-02 0. -1.
         -2   -1    0    0    0  501 -0.00000000000E+00 -0.00000000000E+00 -0.25179047500E+02  0.25179047629E+02  0.25500000000E-02 0.  1.
         23    2    1    2    0    0  0.00000000000E+00  0.00000000000E+00  0.58990351412E+02  0.10934844658E+03  0.92071826363E+02 0.  0.
    9000005    2    3    3    0    0  0.26183315908E+02  0.35421730016E+02  0.42661142143E+02  0.62370706483E+02  0.11395919840E+02 0.  0.
         22    1    3    3    0    0 -0.26183315908E+02 -0.35421730016E+02  0.16329209269E+02  0.46977740097E+02  0.00000000000E+00 0.  1.
         22    1    4    4    0    0  0.15951773920E+02  0.24007075704E+02  0.20279121622E+02  0.35242609846E+02  0.00000000000E+00 0.  1.
         22    1    4    4    0    0  0.10231541989E+02  0.11414654312E+02  0.22382020521E+02  0.27128096637E+02  0.00000000000E+00 0.  1.
<mgrwt>
<rscale>  0 0.92071826E+02</rscale>
<asrwt>0</asrwt>
<pdfrwt beam="1">  1        2 0.12949139E-01 0.92071826E+02</pdfrwt>
<pdfrwt beam="2">  1       -2 0.38736995E-02 0.92071826E+02</pdfrwt>
<totfact> 0.11342886E+05</totfact>
</mgrwt>
</event>
<event>
 7    1  0.3960685E-009  0.9270049E+02  0.7818608E-02  0.1296441E+00
         -2   -1    0    0    0  501 -0.00000000000E+00  0.00000000000E+00  0.52463563886E+02  0.52463563948E+02  0.25500000000E-02 0.  1.
          2   -1    0    0  501    0  0.00000000000E+00 -0.00000000000E+00 -0.40949279546E+02  0.40949279625E+02  0.25500000000E-02 0. -1.
         23    2    1    2    0    0  0.44408920985E-15  0.00000000000E+00  0.11514284340E+02  0.93412843574E+02  0.92700488675E+02 0.  0.
    9000005    2    3    3    0    0 -0.31658291239E+01 -0.10866936069E+02 -0.38228991043E+02  0.42398078854E+02  0.14423195233E+02 0.  0.
         22    1    3    3    0    0  0.31658291239E+01  0.10866936069E+02  0.49743275384E+02  0.51014764720E+02  0.00000000000E+00 0.  1.
         22    1    4    4    0    0 -0.84779317660E+01 -0.41992647618E+01 -0.15965190077E+02  0.18557921375E+02  0.00000000000E+00 0.  1.
         22    1    4    4    0    0  0.53121026421E+01 -0.66676713068E+01 -0.22263800966E+02  0.23840157479E+02  0.00000000000E+00 0.  1.
<mgrwt>
<rscale>  0 0.92700489E+02</rscale>
<asrwt>0</asrwt>
<pdfrwt beam="2">  1        2 0.62998892E-02 0.92700489E+02</pdfrwt>
<pdfrwt beam="1">  1       -2 0.80713175E-02 0.92700489E+02</pdfrwt>
<totfact> 0.91466667E+04</totfact>
</mgrwt>
</event>
<event>
 7    1  0.3960685E-009  0.8632598E+02  0.7818608E-02  0.1312001E+00
         -2   -1    0    0    0  501 -0.00000000000E+00  0.00000000000E+00  0.45257045847E+01  0.45257053031E+01  0.25500000000E-02 0. -1.
          2   -1    0    0  501    0  0.00000000000E+00 -0.00000000000E+00 -0.41165820573E+03  0.41165820574E+03  0.25500000000E-02 0.  1.
         23    2    1    2    0    0  0.00000000000E+00 -0.17763568394E-14 -0.40713250115E+03  0.41618391104E+03  0.86325977090E+02 0.  0.
    9000005    2    3    3    0    0 -0.23378190961E+02  0.14632157784E+02 -0.36132866897E+03  0.36271774514E+03  0.15656173458E+02 0.  0.
         22    1    3    3    0    0  0.23378190961E+02 -0.14632157784E+02 -0.45803832178E+02  0.53466165902E+02  0.00000000000E+00 0. -1.
         22    1    4    4    0    0 -0.14167878414E+02  0.80808576948E+01 -0.29357998276E+03  0.29403271131E+03  0.00000000000E+00 0. -1.
         22    1    4    4    0    0 -0.92103125463E+01  0.65513000897E+01 -0.67748686208E+02  0.68685033836E+02  0.00000000000E+00 0. -1.
<mgrwt>
<rscale>  0 0.86325977E+02</rscale>
<asrwt>0</asrwt>
<pdfrwt beam="2">  1        2 0.63332002E-01 0.86325977E+02</pdfrwt>
<pdfrwt beam="1">  1       -2 0.69626262E-03 0.86325977E+02</pdfrwt>
<totfact> 0.23305358E+05</totfact>
</mgrwt>
</event>
<event>
 7    1  0.3960685E-009  0.9083744E+02  0.7818608E-02  0.1300836E+00
          2   -1    0    0  501    0  0.00000000000E+00  0.00000000000E+00  0.17455202867E+03  0.17455202869E+03  0.25500000000E-02 0. -1.
         -2   -1    0    0    0  501 -0.00000000000E+00 -0.00000000000E+00 -0.11818023329E+02  0.11818023604E+02  0.25500000000E-02 0.  1.
         23    2    1    2    0    0  0.17763568394E-14 -0.35527136788E-14  0.16273400534E+03  0.18637005229E+03  0.90837436651E+02 0.  0.
    9000005    2    3    3    0    0 -0.10941327552E+02  0.28368733340E+02  0.15054317377E+03  0.15361163270E+03  0.29645999184E+01 0.  0.
         22    1    3    3    0    0  0.10941327552E+02 -0.28368733340E+02  0.12190831577E+02  0.32758419596E+02  0.00000000000E+00 0.  1.
         22    1    4    4    0    0 -0.94765462527E+01  0.24578705032E+02  0.12480624429E+03  0.12755593394E+03  0.00000000000E+00 0.  1.
         22    1    4    4    0    0 -0.14647812992E+01  0.37900283082E+01  0.25736929479E+02  0.26055698759E+02  0.00000000000E+00 0.  1.
<mgrwt>
<rscale>  0 0.90837437E+02</rscale>
<asrwt>0</asrwt>
<pdfrwt beam="1">  1        2 0.26854158E-01 0.90837437E+02</pdfrwt>
<pdfrwt beam="2">  1       -2 0.18181575E-02 0.90837437E+02</pdfrwt>
<totfact> 0.14882887E+05</totfact>
</mgrwt>
</event>
<event>
 7    1  0.3960685E-009  0.9210388E+02  0.7818608E-02  0.1297835E+00
          2   -1    0    0  501    0  0.00000000000E+00  0.00000000000E+00  0.97716660487E+02  0.97716660521E+02  0.25500000000E-02 0. -1.
         -2   -1    0    0    0  501 -0.00000000000E+00 -0.00000000000E+00 -0.21703375259E+02  0.21703375409E+02  0.25500000000E-02 0.  1.
         23    2    1    2    0    0  0.00000000000E+00  0.00000000000E+00  0.76013285229E+02  0.11942003593E+03  0.92103884012E+02 0.  0.
    9000005    2    3    3    0    0  0.57095715841E+01  0.11296402790E+02  0.94810525250E+02  0.96758523268E+02  0.14593430135E+02 0.  0.
         22    1    3    3    0    0 -0.57095715841E+01 -0.11296402790E+02 -0.18797240022E+02  0.22661512661E+02  0.00000000000E+00 0.  1.
         22    1    4    4    0    0 -0.45359991474E+01  0.24116512929E+01  0.16461157623E+02  0.17244160186E+02  0.00000000000E+00 0. -1.
         22    1    4    4    0    0  0.10245570731E+02  0.88847514968E+01  0.78349367627E+02  0.79514363082E+02  0.00000000000E+00 0. -1.
<mgrwt>
<rscale>  0 0.92103884E+02</rscale>
<asrwt>0</asrwt>
<pdfrwt beam="1">  1        2 0.15033332E-01 0.92103884E+02</pdfrwt>
<pdfrwt beam="2">  1       -2 0.33389809E-02 0.92103884E+02</pdfrwt>
<totfact> 0.11846474E+05</totfact>
</mgrwt>
</event>
<event>
 7    1  0.3960685E-009  0.9200850E+02  0.7818608E-02  0.1298059E+00
         -2   -1    0    0    0  501 -0.00000000000E+00  0.00000000000E+00  0.48070920658E+02  0.48070920726E+02  0.25500000000E-02 0. -1.
          2   -1    0    0  501    0  0.00000000000E+00 -0.00000000000E+00 -0.44026434482E+02  0.44026434556E+02  0.25500000000E-02 0.  1.
         23    2    1    2    0    0  0.35527136788E-14 -0.17763568394E-14  0.40444861763E+01  0.92097355282E+02  0.92008504941E+02 0.  0.
    9000005    2    3    3    0    0  0.19753977907E+02 -0.99613005244E+01 -0.38113308131E+02  0.44487201196E+02  0.60860218782E+01 0.  0.
         22    1    3    3    0    0 -0.19753977907E+02  0.99613005244E+01  0.42157794307E+02  0.47610154086E+02  0.00000000000E+00 0. -1.
         22    1    4    4    0    0  0.10888268627E+02 -0.76609483388E+01 -0.18018074558E+02  0.22403025107E+02  0.00000000000E+00 0.  1.
         22    1    4    4    0    0  0.88657092802E+01 -0.23003521856E+01 -0.20095233572E+02  0.22084176089E+02  0.00000000000E+00 0.  1.
<mgrwt>
<rscale>  0 0.92008505E+02</rscale>
<asrwt>0</asrwt>
<pdfrwt beam="2">  1        2 0.67732976E-02 0.92008505E+02</pdfrwt>
<pdfrwt beam="1">  1       -2 0.73955262E-02 0.92008505E+02</pdfrwt>
<totfact> 0.95260579E+04</totfact>
</mgrwt>
</event>
<event>
 7    1  0.3960685E-009  0.9016236E+02  0.7818608E-02  0.1302459E+00
         -2   -1    0    0    0  501 -0.00000000000E+00  0.00000000000E+00  0.10855361549E+02  0.10855361849E+02  0.25500000000E-02 0.  1.
          2   -1    0    0  501    0  0.00000000000E+00 -0.00000000000E+00 -0.18721742843E+03  0.18721742845E+03  0.25500000000E-02 0. -1.
         23    2    1    2    0    0  0.00000000000E+00  0.00000000000E+00 -0.17636206688E+03  0.19807279029E+03  0.90162362553E+02 0.  0.
    9000005    2    3    3    0    0  0.14479230182E+02  0.28148553307E+02 -0.15792293504E+03  0.16143959847E+03  0.11004607399E+02 0.  0.
         22    1    3    3    0    0 -0.14479230182E+02 -0.28148553307E+02 -0.18439131840E+02  0.36633191820E+02  0.00000000000E+00 0.  1.
         22    1    4    4    0    0  0.11645230370E+02  0.26391441382E+02 -0.15129148472E+03  0.15401698906E+03  0.00000000000E+00 0.  1.
         22    1    4    4    0    0  0.28339998123E+01  0.17571119248E+01 -0.66314503171E+01  0.74226094172E+01  0.00000000000E+00 0.  1.
<mgrwt>
<rscale>  0 0.90162363E+02</rscale>
<asrwt>0</asrwt>
<pdfrwt beam="2">  1        2 0.28802679E-01 0.90162363E+02</pdfrwt>
<pdfrwt beam="1">  1       -2 0.16700558E-02 0.90162363E+02</pdfrwt>
<totfact> 0.15566966E+05</totfact>
</mgrwt>
</event>
<event>
 7    1  0.3960685E-009  0.8646669E+02  0.7818608E-02  0.1311641E+00
         -2   -1    0    0    0  501 -0.00000000000E+00  0.00000000000E+00  0.13102488078E+02  0.13102488326E+02  0.25500000000E-02 0.  1.
          2   -1    0    0  501    0  0.00000000000E+00 -0.00000000000E+00 -0.14265397139E+03  0.14265397141E+03  0.25500000000E-02 0. -1.
         23    2    1    2    0    0  0.00000000000E+00  0.00000000000E+00 -0.12955148331E+03  0.15575645974E+03  0.86466686775E+02 0.  0.
    9000005    2    3    3    0    0 -0.17179697925E+02  0.36135654640E+02 -0.43493140026E+02  0.60851422958E+02  0.14502237402E+02 0.  0.
         22    1    3    3    0    0  0.17179697925E+02 -0.36135654640E+02 -0.86058343283E+02  0.94905036777E+02  0.00000000000E+00 0.  1.
         22    1    4    4    0    0 -0.15008494716E+02  0.21974310653E+02 -0.19820379841E+02  0.33180908658E+02  0.00000000000E+00 0.  1.
         22    1    4    4    0    0 -0.21712032091E+01  0.14161343988E+02 -0.23672760185E+02  0.27670514301E+02  0.00000000000E+00 0.  1.
<mgrwt>
<rscale>  0 0.86466687E+02</rscale>
<asrwt>0</asrwt>
<pdfrwt beam="2">  1        2 0.21946764E-01 0.86466687E+02</pdfrwt>
<pdfrwt beam="1">  1       -2 0.20157675E-02 0.86466687E+02</pdfrwt>
<totfact> 0.15868052E+05</totfact>
</mgrwt>
</event>
<event>
 7    1  0.3960685E-009  0.1184313E+03  0.7818608E-02  0.1245708E+00
         -2   -1    0    0    0  501 -0.00000000000E+00  0.00000000000E+00  0.10619762250E+02  0.10619762557E+02  0.25500000000E-02 0.  1.
          2   -1    0    0  501    0  0.00000000000E+00 -0.00000000000E+00 -0.33018584032E+03  0.33018584033E+03  0.25500000000E-02 0. -1.
         23    2    1    2    0    0  0.71054273576E-14  0.00000000000E+00 -0.31956607807E+03  0.34080560289E+03  0.11843133330E+03 0.  0.
    9000005    2    3    3    0    0 -0.48985054479E+02 -0.24325533684E+02 -0.98298770502E+02  0.11287910476E+03  0.93689304222E+01 0.  0.
         22    1    3    3    0    0  0.48985054479E+02  0.24325533684E+02 -0.22126730757E+03  0.22792649813E+03  0.00000000000E+00 0. -1.
         22    1    4    4    0    0 -0.33592850153E+02 -0.12441800166E+02 -0.58796521029E+02  0.68849900928E+02  0.00000000000E+00 0.  1.
         22    1    4    4    0    0 -0.15392204326E+02 -0.11883733519E+02 -0.39502249473E+02  0.44029203829E+02  0.00000000000E+00 0.  1.
<mgrwt>
<rscale>  0 0.11843133E+03</rscale>
<asrwt>0</asrwt>
<pdfrwt beam="2">  1        2 0.50797814E-01 0.11843133E+03</pdfrwt>
<pdfrwt beam="1">  1       -2 0.16338099E-02 0.11843133E+03</pdfrwt>
<totfact> 0.91801983E+04</totfact>
</mgrwt>
</event>
<event>
 7    1  0.3960685E-009  0.9124229E+02  0.7818608E-02  0.1299871E+00
         -2   -1    0    0    0  501 -0.00000000000E+00  0.00000000000E+00  0.16250337929E+03  0.16250337931E+03  0.25500000000E-02 0.  1.
          2   -1    0    0  501    0  0.00000000000E+00 -0.00000000000E+00 -0.12807665986E+02  0.12807666240E+02  0.25500000000E-02 0. -1.
         23    2    1    2    0    0  0.88817841970E-15 -0.71054273576E-14  0.14969571331E+03  0.17531104555E+03  0.91242293429E+02 0.  0.
    9000005    2    3    3    0    0  0.74561114236E+01 -0.36246222503E+02  0.12399481200E+03  0.13025642791E+03  0.14921171684E+02 0.  0.
         22    1    3    3    0    0 -0.74561114236E+01  0.36246222503E+02  0.25700901304E+02  0.45054617645E+02  0.00000000000E+00 0.  1.
         22    1    4    4    0    0  0.60640982584E+01 -0.88678005970E+01  0.54525745931E+02  0.55573988020E+02  0.00000000000E+00 0. -1.
         22    1    4    4    0    0  0.13920131652E+01 -0.27378421906E+02  0.69469066070E+02  0.74682439886E+02  0.00000000000E+00 0. -1.
<mgrwt>
<rscale>  0 0.91242293E+02</rscale>
<asrwt>0</asrwt>
<pdfrwt beam="2">  1        2 0.19704101E-02 0.91242293E+02</pdfrwt>
<pdfrwt beam="1">  1       -2 0.25000521E-01 0.91242293E+02</pdfrwt>
<totfact> 0.67680829E+04</totfact>
</mgrwt>
</event>
<event>
 7    1  0.3960685E-009  0.8740849E+02  0.7818608E-02  0.1309252E+00
         -2   -1    0    0    0  501 -0.00000000000E+00  0.00000000000E+00  0.84234550319E+03  0.84234550319E+03  0.25500000000E-02 0. -1.
          2   -1    0    0  501    0  0.00000000000E+00 -0.00000000000E+00 -0.22675497878E+01  0.22675512216E+01  0.25500000000E-02 0.  1.
         23    2    1    2    0    0 -0.17763568394E-14  0.35527136788E-14  0.84007795340E+03  0.84461305442E+03  0.87408488698E+02 0.  0.
    9000005    2    3    3    0    0  0.12181353417E+02 -0.21418082696E+02  0.76566194520E+03  0.76622388479E+03  0.15928203346E+02 0.  0.
         22    1    3    3    0    0 -0.12181353417E+02  0.21418082696E+02  0.74416008208E+02  0.78389169628E+02  0.00000000000E+00 0.  1.
         22    1    4    4    0    0 -0.34426029770E+01 -0.11435207670E+01  0.11988297011E+03  0.11993784089E+03  0.00000000000E+00 0.  1.
         22    1    4    4    0    0  0.15623956394E+02 -0.20274561929E+02  0.64577897509E+03  0.64628604390E+03  0.00000000000E+00 0.  1.
<mgrwt>
<rscale>  0 0.87408489E+02</rscale>
<asrwt>0</asrwt>
<pdfrwt beam="2">  1        2 0.34885430E-03 0.87408489E+02</pdfrwt>
<pdfrwt beam="1">  1       -2 0.12959148E+00 0.87408489E+02</pdfrwt>
<totfact> 0.25216017E+04</totfact>
</mgrwt>
</event>
<event>
 7    1  0.3960685E-009  0.8974097E+02  0.7818608E-02  0.1303480E+00
         -2   -1    0    0    0  501 -0.00000000000E+00  0.00000000000E+00  0.41863594752E+01  0.41863602519E+01  0.25500000000E-02 0.  1.
          2   -1    0    0  501    0  0.00000000000E+00 -0.00000000000E+00 -0.48093341070E+03  0.48093341070E+03  0.25500000000E-02 0. -1.
         23    2    1    2    0    0  0.00000000000E+00  0.35527136788E-14 -0.47674705122E+03  0.48511977096E+03  0.89740967921E+02 0.  0.
    9000005    2    3    3    0    0  0.38265275873E+02 -0.22734580094E+02 -0.23533439684E+03  0.23963828048E+03  0.79457325945E+01 0.  0.
         22    1    3    3    0    0 -0.38265275873E+02  0.22734580094E+02 -0.24141265438E+03  0.24548149047E+03  0.00000000000E+00 0.  1.
         22    1    4    4    0    0  0.10240067801E+02 -0.10170339863E+02 -0.81488279826E+02  0.82756477393E+02  0.00000000000E+00 0.  1.
         22    1    4    4    0    0  0.28025208072E+02 -0.12564240230E+02 -0.15384611702E+03  0.15688180309E+03  0.00000000000E+00 0.  1.
<mgrwt>
<rscale>  0 0.89740968E+02</rscale>
<asrwt>0</asrwt>
<pdfrwt beam="2">  1        2 0.73989712E-01 0.89740968E+02</pdfrwt>
<pdfrwt beam="1">  1       -2 0.64405574E-03 0.89740968E+02</pdfrwt>
<totfact> 0.22188388E+05</totfact>
</mgrwt>
</event>
<event>
 7    1  0.3960685E-009  0.8479053E+02  0.7818608E-02  0.1315981E+00
          2   -1    0    0  501    0  0.00000000000E+00  0.00000000000E+00  0.50397061140E+01  0.50397067591E+01  0.25500000000E-02 0. -1.
         -2   -1    0    0    0  501 -0.00000000000E+00 -0.00000000000E+00 -0.35663951601E+03  0.35663951602E+03  0.25500000000E-02 0.  1.
         23    2    1    2    0    0  0.00000000000E+00  0.00000000000E+00 -0.35159980989E+03  0.36167922277E+03  0.84790529368E+02 0.  0.
    9000005    2    3    3    0    0  0.11873584142E+02 -0.16282906825E+02 -0.33408094216E+03  0.33497668017E+03  0.13899110978E+02 0.  0.
         22    1    3    3    0    0 -0.11873584142E+02  0.16282906825E+02 -0.17518867730E+02  0.26702542605E+02  0.00000000000E+00 0. -1.
         22    1    4    4    0    0  0.16930410458E+01  0.17565468856E+01 -0.12911968955E+02  0.13140425687E+02  0.00000000000E+00 0.  1.
         22    1    4    4    0    0  0.10180543097E+02 -0.18039453710E+02 -0.32116897321E+03  0.32183625448E+03  0.00000000000E+00 0.  1.
<mgrwt>
<rscale>  0 0.84790529E+02</rscale>
<asrwt>0</asrwt>
<pdfrwt beam="1">  1        2 0.77533973E-03 0.84790529E+02</pdfrwt>
<pdfrwt beam="2">  1       -2 0.54867598E-01 0.84790529E+02</pdfrwt>
<totfact> 0.55472232E+04</totfact>
</mgrwt>
</event>
<event>
 7    1  0.3960685E-009  0.7654319E+02  0.7818608E-02  0.1339158E+00
         -2   -1    0    0    0  501 -0.00000000000E+00  0.00000000000E+00  0.43973970568E+01  0.43973977961E+01  0.25500000000E-02 0.  1.
          2   -1    0    0  501    0  0.00000000000E+00 -0.00000000000E+00 -0.33308681894E+03  0.33308681895E+03  0.25500000000E-02 0. -1.
         23    2    1    2    0    0  0.00000000000E+00  0.00000000000E+00 -0.32868942189E+03  0.33748421675E+03  0.76543193654E+02 0.  0.
    9000005    2    3    3    0    0 -0.20941254492E+02 -0.19576486538E+01 -0.30454028669E+03  0.30546001873E+03  0.10893497956E+02 0.  0.
         22    1    3    3    0    0  0.20941254492E+02  0.19576486538E+01 -0.24149135194E+02  0.32024198016E+02  0.00000000000E+00 0.  1.
         22    1    4    4    0    0 -0.22054454764E+02 -0.13400306771E+01 -0.29622060875E+03  0.29704350473E+03  0.00000000000E+00 0. -1.
         22    1    4    4    0    0  0.11132002717E+01 -0.61761797670E+00 -0.83196779429E+01  0.84165139983E+01  0.00000000000E+00 0. -1.
<mgrwt>
<rscale>  0 0.76543194E+02</rscale>
<asrwt>0</asrwt>
<pdfrwt beam="2">  1        2 0.51244106E-01 0.76543194E+02</pdfrwt>
<pdfrwt beam="1">  1       -2 0.67652294E-03 0.76543194E+02</pdfrwt>
<totfact> 0.29625358E+05</totfact>
</mgrwt>
</event>
<event>
 7    1  0.3960685E-009  0.8784034E+02  0.7818608E-02  0.1308168E+00
          2   -1    0    0  501    0  0.00000000000E+00  0.00000000000E+00  0.11367548198E+04  0.11367548198E+04  0.25500000000E-02 0. -1.
         -2   -1    0    0    0  501 -0.00000000000E+00 -0.00000000000E+00 -0.16969183830E+01  0.16969202990E+01  0.25500000000E-02 0.  1.
         23    2    1    2    0    0  0.17763568394E-14  0.00000000000E+00  0.11350579014E+04  0.11384517401E+04  0.87840337952E+02 0.  0.
    9000005    2    3    3    0    0 -0.13359582069E+02  0.14338519466E+02  0.10752476024E+04  0.10755125358E+04  0.13628519853E+02 0.  0.
         22    1    3    3    0    0  0.13359582069E+02 -0.14338519466E+02  0.59810298993E+02  0.62939204310E+02  0.00000000000E+00 0.  1.
         22    1    4    4    0    0  0.19315852987E+01  0.44389184026E+01  0.13135097488E+03  0.13144015223E+03  0.00000000000E+00 0.  1.
         22    1    4    4    0    0 -0.15291167368E+02  0.98996010634E+01  0.94389662754E+03  0.94407238355E+03  0.00000000000E+00 0.  1.
<mgrwt>
<rscale>  0 0.87840338E+02</rscale>
<asrwt>0</asrwt>
<pdfrwt beam="1">  1        2 0.17488613E+00 0.87840338E+02</pdfrwt>
<pdfrwt beam="2">  1       -2 0.26106336E-03 0.87840338E+02</pdfrwt>
<totfact> 0.27553567E+05</totfact>
</mgrwt>
</event>
<event>
 7    1  0.3960685E-009  0.8938942E+02  0.7818608E-02  0.1304337E+00
         -2   -1    0    0    0  501 -0.00000000000E+00  0.00000000000E+00  0.50331012219E+01  0.50331018678E+01  0.25500000000E-02 0.  1.
          2   -1    0    0  501    0  0.00000000000E+00 -0.00000000000E+00 -0.39689583289E+03  0.39689583290E+03  0.25500000000E-02 0. -1.
         23    2    1    2    0    0  0.00000000000E+00  0.00000000000E+00 -0.39186273167E+03  0.40192893477E+03  0.89389418455E+02 0.  0.
    9000005    2    3    3    0    0 -0.38410721376E+02  0.16353089915E+02 -0.25989824874E+03  0.26351856008E+03  0.12333885918E+02 0.  0.
         22    1    3    3    0    0  0.38410721376E+02 -0.16353089915E+02 -0.13196448292E+03  0.13841037468E+03  0.00000000000E+00 0.  1.
         22    1    4    4    0    0 -0.11149782653E+02 -0.84426103350E+00 -0.75728829434E+02  0.76549892471E+02  0.00000000000E+00 0. -1.
         22    1    4    4    0    0 -0.27260938722E+02  0.17197350949E+02 -0.18416941931E+03  0.18696866761E+03  0.00000000000E+00 0. -1.
<mgrwt>
<rscale>  0 0.89389418E+02</rscale>
<asrwt>0</asrwt>
<pdfrwt beam="2">  1        2 0.61060873E-01 0.89389418E+02</pdfrwt>
<pdfrwt beam="1">  1       -2 0.77432363E-03 0.89389418E+02</pdfrwt>
<totfact> 0.20979726E+05</totfact>
</mgrwt>
</event>
<event>
 7    1  0.3960685E-009  0.9330216E+02  0.7818608E-02  0.1295046E+00
         -2   -1    0    0    0  501 -0.00000000000E+00  0.00000000000E+00  0.31140095024E+01  0.31140105464E+01  0.25500000000E-02 0.  1.
          2   -1    0    0  501    0  0.00000000000E+00 -0.00000000000E+00 -0.69888122655E+03  0.69888122655E+03  0.25500000000E-02 0. -1.
         23    2    1    2    0    0 -0.35527136788E-14  0.44408920985E-15 -0.69576721704E+03  0.70199523710E+03  0.93302157501E+02 0.  0.
    9000005    2    3    3    0    0  0.30708005093E+02  0.16813131889E+01 -0.61099970302E+03  0.61182129505E+03  0.76714792428E+01 0.  0.
         22    1    3    3    0    0 -0.30708005093E+02 -0.16813131889E+01 -0.84767514025E+02  0.90173942049E+02  0.00000000000E+00 0.  1.
         22    1    4    4    0    0  0.14231774668E+02 -0.30486049941E+01 -0.28094434150E+03  0.28132109843E+03  0.00000000000E+00 0.  1.
         22    1    4    4    0    0  0.16476230424E+02  0.47299181830E+01 -0.33005536152E+03  0.33050019662E+03  0.00000000000E+00 0.  1.
<mgrwt>
<rscale>  0 0.93302158E+02</rscale>
<asrwt>0</asrwt>
<pdfrwt beam="2">  1        2 0.10752006E+00 0.93302158E+02</pdfrwt>
<pdfrwt beam="1">  1       -2 0.47907902E-03 0.93302158E+02</pdfrwt>
<totfact> 0.22305641E+05</totfact>
</mgrwt>
</event>
<event>
 7    1  0.3960685E-009  0.9339462E+02  0.7818608E-02  0.1294833E+00
         -2   -1    0    0    0  501 -0.00000000000E+00  0.00000000000E+00  0.22187920943E+01  0.22187935596E+01  0.25500000000E-02 0.  1.
          2   -1    0    0  501    0  0.00000000000E+00 -0.00000000000E+00 -0.98280417842E+03  0.98280417843E+03  0.25500000000E-02 0. -1.
         23    2    1    2    0    0 -0.17763568394E-14  0.00000000000E+00 -0.98058538633E+03  0.98502297199E+03  0.93394622215E+02 0.  0.
    9000005    2    3    3    0    0  0.10195337839E+02 -0.24256432958E+02 -0.89435222853E+03  0.89486490548E+03  0.14999030514E+02 0.  0.
         22    1    3    3    0    0 -0.10195337839E+02  0.24256432958E+02 -0.86233157794E+02  0.90158066509E+02  0.00000000000E+00 0.  1.
         22    1    4    4    0    0  0.11504174876E+02 -0.90189809286E+01 -0.36713684625E+03  0.36742775062E+03  0.00000000000E+00 0. -1.
         22    1    4    4    0    0 -0.13088370368E+01 -0.15237452029E+02 -0.52721538229E+03  0.52743715485E+03  0.00000000000E+00 0. -1.
<mgrwt>
<rscale>  0 0.93394622E+02</rscale>
<asrwt>0</asrwt>
<pdfrwt beam="2">  1        2 0.15120030E+00 0.93394622E+02</pdfrwt>
<pdfrwt beam="1">  1       -2 0.34135353E-03 0.93394622E+02</pdfrwt>
<totfact> 0.23446267E+05</totfact>
</mgrwt>
</event>
<event>
 7    1  0.3960685E-009  0.9212575E+02  0.7818608E-02  0.1297784E+00
         -2   -1    0    0    0  501 -0.00000000000E+00  0.00000000000E+00  0.12199736919E+02  0.12199737185E+02  0.25500000000E-02 0.  1.
          2   -1    0    0  501    0  0.00000000000E+00 -0.00000000000E+00 -0.17392081742E+03  0.17392081744E+03  0.25500000000E-02 0. -1.
         23    2    1    2    0    0  0.00000000000E+00  0.00000000000E+00 -0.16172108050E+03  0.18612055462E+03  0.92125745451E+02 0.  0.
    9000005    2    3    3    0    0 -0.19266739648E+02 -0.30147574163E+02 -0.27887341849E+02  0.47586973546E+02  0.14378203340E+02 0.  0.
         22    1    3    3    0    0  0.19266739648E+02  0.30147574163E+02 -0.13383373865E+03  0.13853358108E+03  0.00000000000E+00 0. -1.
         22    1    4    4    0    0 -0.37731198062E+01 -0.82364558140E+00  0.54771794780E+00  0.39006179083E+01  0.00000000000E+00 0. -1.
         22    1    4    4    0    0 -0.15493619842E+02 -0.29323928581E+02 -0.28435059797E+02  0.43686355637E+02  0.00000000000E+00 0. -1.
<mgrwt>
<rscale>  0 0.92125745E+02</rscale>
<asrwt>0</asrwt>
<pdfrwt beam="2">  1        2 0.26757047E-01 0.92125745E+02</pdfrwt>
<pdfrwt beam="1">  1       -2 0.18768827E-02 0.92125745E+02</pdfrwt>
<totfact> 0.14308406E+05</totfact>
</mgrwt>
</event>
<event>
 7    1  0.3960685E-009  0.9124207E+02  0.7818608E-02  0.1299871E+00
          2   -1    0    0  501    0  0.00000000000E+00  0.00000000000E+00  0.41630037782E+03  0.41630037783E+03  0.25500000000E-02 0. -1.
         -2   -1    0    0    0  501 -0.00000000000E+00 -0.00000000000E+00 -0.49994643634E+01  0.49994650137E+01  0.25500000000E-02 0.  1.
         23    2    1    2    0    0  0.00000000000E+00  0.00000000000E+00  0.41130091346E+03  0.42129984284E+03  0.91242074549E+02 0.  0.
    9000005    2    3    3    0    0  0.24718940840E+02  0.28444907338E+02  0.31928246487E+03  0.32186376453E+03  0.15324873699E+02 0.  0.
         22    1    3    3    0    0 -0.24718940840E+02 -0.28444907338E+02  0.92018448584E+02  0.99436078310E+02  0.00000000000E+00 0.  1.
         22    1    4    4    0    0  0.95041725904E+01  0.22356132218E+02  0.18944953232E+03  0.19100065770E+03  0.00000000000E+00 0. -1.
         22    1    4    4    0    0  0.15214768250E+02  0.60887751208E+01  0.12983293256E+03  0.13086310684E+03  0.00000000000E+00 0. -1.
<mgrwt>
<rscale>  0 0.91242075E+02</rscale>
<asrwt>0</asrwt>
<pdfrwt beam="1">  1        2 0.64046227E-01 0.91242075E+02</pdfrwt>
<pdfrwt beam="2">  1       -2 0.76914824E-03 0.91242075E+02</pdfrwt>
<totfact> 0.20209437E+05</totfact>
</mgrwt>
</event>
<event>
 7    1  0.3960685E-009  0.9046550E+02  0.7818608E-02  0.1301728E+00
         -2   -1    0    0    0  501 -0.00000000000E+00  0.00000000000E+00  0.17619907362E+01  0.17619925815E+01  0.25500000000E-02 0.  1.
          2   -1    0    0  501    0  0.00000000000E+00 -0.00000000000E+00 -0.11611869424E+04  0.11611869425E+04  0.25500000000E-02 0. -1.
         23    2    1    2    0    0 -0.88817841970E-15  0.00000000000E+00 -0.11594249517E+04  0.11629489350E+04  0.90465500832E+02 0.  0.
    9000005    2    3    3    0    0 -0.70051076518E+01 -0.19085544115E+02 -0.10969810483E+04  0.10972787698E+04  0.15490281236E+02 0.  0.
         22    1    3    3    0    0  0.70051076518E+01  0.19085544115E+02 -0.62443903410E+02  0.65670165223E+02  0.00000000000E+00 0.  1.
         22    1    4    4    0    0 -0.86522112489E+01 -0.26674326155E+01 -0.37862849302E+03  0.37873673136E+03  0.00000000000E+00 0. -1.
         22    1    4    4    0    0  0.16471035970E+01 -0.16418111500E+02 -0.71835255529E+03  0.71854203845E+03  0.00000000000E+00 0. -1.
<mgrwt>
<rscale>  0 0.90465501E+02</rscale>
<asrwt>0</asrwt>
<pdfrwt beam="2">  1        2 0.17864353E+00 0.90465501E+02</pdfrwt>
<pdfrwt beam="1">  1       -2 0.27107657E-03 0.90465501E+02</pdfrwt>
<totfact> 0.25465098E+05</totfact>
</mgrwt>
</event>
<event>
 7    1  0.3960685E-009  0.9369580E+02  0.7818608E-02  0.1294141E+00
          2   -1    0    0  501    0  0.00000000000E+00  0.00000000000E+00  0.40811369674E+01  0.40811377641E+01  0.25500000000E-02 0. -1.
         -2   -1    0    0    0  501 -0.00000000000E+00 -0.00000000000E+00 -0.53777302522E+03  0.53777302522E+03  0.25500000000E-02 0.  1.
         23    2    1    2    0    0  0.00000000000E+00  0.00000000000E+00 -0.53369188825E+03  0.54185416299E+03  0.93695796934E+02 0.  0.
    9000005    2    3    3    0    0  0.41274954697E+02  0.94673575128E+01 -0.37870897019E+03  0.38119004866E+03  0.95977262188E+01 0.  0.
         22    1    3    3    0    0 -0.41274954697E+02 -0.94673575128E+01 -0.15498291806E+03  0.16066411433E+03  0.00000000000E+00 0. -1.
         22    1    4    4    0    0  0.30408520538E+02  0.75786098218E+01 -0.31264554835E+03  0.31421227276E+03  0.00000000000E+00 0. -1.
         22    1    4    4    0    0  0.10866434158E+02  0.18887476909E+01 -0.66063421845E+02  0.66977775904E+02  0.00000000000E+00 0. -1.
<mgrwt>
<rscale>  0 0.93695797E+02</rscale>
<asrwt>0</asrwt>
<pdfrwt beam="1">  1        2 0.62786772E-03 0.93695797E+02</pdfrwt>
<pdfrwt beam="2">  1       -2 0.82734255E-01 0.93695797E+02</pdfrwt>
<totfact> 0.31922781E+04</totfact>
</mgrwt>
</event>
<event>
 7    1  0.3960685E-009  0.9182157E+02  0.7818608E-02  0.1298500E+00
         -2   -1    0    0    0  501 -0.00000000000E+00  0.00000000000E+00  0.21622242527E+02  0.21622242677E+02  0.25500000000E-02 0.  1.
          2   -1    0    0  501    0  0.00000000000E+00 -0.00000000000E+00 -0.97482963351E+02  0.97482963384E+02  0.25500000000E-02 0. -1.
         23    2    1    2    0    0  0.00000000000E+00  0.00000000000E+00 -0.75860720824E+02  0.11910520606E+03  0.91821572340E+02 0.  0.
    9000005    2    3    3    0    0  0.27368310571E+02  0.24861280155E+02 -0.73221624820E+02  0.82036722114E+02  0.12287227583E+01 0.  0.
         22    1    3    3    0    0 -0.27368310571E+02 -0.24861280155E+02 -0.26390960042E+01  0.37068483947E+02  0.00000000000E+00 0.  1.
         22    1    4    4    0    0  0.95323392060E+01  0.82962858968E+01 -0.26179525799E+02  0.29069940170E+02  0.00000000000E+00 0. -1.
         22    1    4    4    0    0  0.17835971365E+02  0.16564994258E+02 -0.47042099020E+02  0.52966781944E+02  0.00000000000E+00 0. -1.
<mgrwt>
<rscale>  0 0.91821572E+02</rscale>
<asrwt>0</asrwt>
<pdfrwt beam="2">  1        2 0.14997379E-01 0.91821572E+02</pdfrwt>
<pdfrwt beam="1">  1       -2 0.33264989E-02 0.91821572E+02</pdfrwt>
<totfact> 0.11938657E+05</totfact>
</mgrwt>
</event>
<event>
 7    1  0.3960685E-009  0.9264561E+02  0.7818608E-02  0.1296569E+00
          2   -1    0    0  501    0  0.00000000000E+00  0.00000000000E+00  0.88448607641E+02  0.88448607678E+02  0.25500000000E-02 0. -1.
         -2   -1    0    0    0  501 -0.00000000000E+00 -0.00000000000E+00 -0.24260443650E+02  0.24260443784E+02  0.25500000000E-02 0.  1.
         23    2    1    2    0    0 -0.35527136788E-14  0.00000000000E+00  0.64188163991E+02  0.11270905146E+03  0.92645614494E+02 0.  0.
    9000005    2    3    3    0    0  0.20767867399E+02 -0.10992117746E+02  0.80317830635E+02  0.84208224897E+02  0.93776464797E+01 0.  0.
         22    1    3    3    0    0 -0.20767867399E+02  0.10992117746E+02 -0.16129666644E+02  0.28500826565E+02  0.00000000000E+00 0.  1.
         22    1    4    4    0    0  0.21672470943E+02 -0.10201912882E+02  0.74100143557E+02  0.77875582171E+02  0.00000000000E+00 0.  1.
         22    1    4    4    0    0 -0.90460354377E+00 -0.79020486394E+00  0.62176870780E+01  0.63326427262E+01  0.00000000000E+00 0.  1.
<mgrwt>
<rscale>  0 0.92645614E+02</rscale>
<asrwt>0</asrwt>
<pdfrwt beam="1">  1        2 0.13607478E-01 0.92645614E+02</pdfrwt>
<pdfrwt beam="2">  1       -2 0.37323760E-02 0.92645614E+02</pdfrwt>
<totfact> 0.11312474E+05</totfact>
</mgrwt>
</event>
<event>
 7    1  0.3960685E-009  0.9172709E+02  0.7818608E-02  0.1298722E+00
         -2   -1    0    0    0  501 -0.00000000000E+00  0.00000000000E+00  0.34227449000E+01  0.34227458499E+01  0.25500000000E-02 0.  1.
          2   -1    0    0  501    0  0.00000000000E+00 -0.00000000000E+00 -0.61455484939E+03  0.61455484940E+03  0.25500000000E-02 0. -1.
         23    2    1    2    0    0  0.00000000000E+00  0.00000000000E+00 -0.61113210449E+03  0.61797759525E+03  0.91727090255E+02 0.  0.
    9000005    2    3    3    0    0 -0.32836923348E+02  0.15674766542E+02 -0.48926975317E+03  0.49079900227E+03  0.13221475870E+02 0.  0.
         22    1    3    3    0    0  0.32836923348E+02 -0.15674766542E+02 -0.12186235132E+03  0.12717859298E+03  0.00000000000E+00 0.  1.
         22    1    4    4    0    0 -0.32315818731E+02  0.12653932241E+02 -0.47072416555E+03  0.47200177349E+03  0.00000000000E+00 0. -1.
         22    1    4    4    0    0 -0.52110461779E+00  0.30208343012E+01 -0.18545587618E+02  0.18797228785E+02  0.00000000000E+00 0. -1.
<mgrwt>
<rscale>  0 0.91727090E+02</rscale>
<asrwt>0</asrwt>
<pdfrwt beam="2">  1        2 0.94546812E-01 0.91727090E+02</pdfrwt>
<pdfrwt beam="1">  1       -2 0.52657670E-03 0.91727090E+02</pdfrwt>
<totfact> 0.22576567E+05</totfact>
</mgrwt>
</event>
<event>
 7    1  0.3960685E-009  0.9024463E+02  0.7818608E-02  0.1302260E+00
         -2   -1    0    0    0  501 -0.00000000000E+00  0.00000000000E+00  0.66764025805E+01  0.66764030675E+01  0.25500000000E-02 0.  1.
          2   -1    0    0  501    0  0.00000000000E+00 -0.00000000000E+00 -0.30495810833E+03  0.30495810834E+03  0.25500000000E-02 0. -1.
         23    2    1    2    0    0  0.17763568394E-14 -0.35527136788E-14 -0.29828170575E+03  0.31163451141E+03  0.90244627074E+02 0.  0.
    9000005    2    3    3    0    0 -0.92634787407E+01  0.24021168190E+02 -0.27606642780E+03  0.27762940688E+03  0.14233286598E+02 0.  0.
         22    1    3    3    0    0  0.92634787407E+01 -0.24021168190E+02 -0.22215277953E+02  0.34005104530E+02  0.00000000000E+00 0.  1.
         22    1    4    4    0    0  0.16269693353E+01  0.65161533807E+01 -0.32192658403E+02  0.32885780197E+02  0.00000000000E+00 0.  1.
         22    1    4    4    0    0 -0.10890448076E+02  0.17505014809E+02 -0.24387376939E+03  0.24474362668E+03  0.00000000000E+00 0.  1.
<mgrwt>
<rscale>  0 0.90244627E+02</rscale>
<asrwt>0</asrwt>
<pdfrwt beam="2">  1        2 0.46916621E-01 0.90244627E+02</pdfrwt>
<pdfrwt beam="1">  1       -2 0.10271391E-02 0.90244627E+02</pdfrwt>
<totfact> 0.18577789E+05</totfact>
</mgrwt>
</event>
<event>
 7    1  0.5664726E-009  0.8998582E+02  0.7818608E-02  0.1302886E+00
         -2   -1    0    0    0  501 -0.00000000000E+00  0.00000000000E+00  0.30173004982E+01  0.30173015757E+01  0.25500000000E-02 0.  1.
          2   -1    0    0  501    0  0.00000000000E+00 -0.00000000000E+00 -0.67091810842E+03  0.67091810843E+03  0.25500000000E-02 0. -1.
         23    2    1    2    0    0  0.00000000000E+00 -0.35527136788E-14 -0.66790080793E+03  0.67393541001E+03  0.89985819049E+02 0.  0.
    9000005    2    3    3    0    0 -0.19022005475E+02 -0.18455815800E+02 -0.60423030297E+03  0.60496884542E+03  0.13805472589E+02 0.  0.
         22    1    3    3    0    0  0.19022005475E+02  0.18455815800E+02 -0.63670504954E+02  0.68966564582E+02  0.00000000000E+00 0.  1.
         22    1    4    4    0    0 -0.14452161851E+02 -0.14493409766E+02 -0.30927254012E+03  0.30994907320E+03  0.00000000000E+00 0.  1.
         22    1    4    4    0    0 -0.45698436235E+01 -0.39624060340E+01 -0.29495776286E+03  0.29501977222E+03  0.00000000000E+00 0.  1.
<mgrwt>
<rscale>  0 0.89985819E+02</rscale>
<asrwt>0</asrwt>
<pdfrwt beam="2">  1        2 0.10321805E+00 0.89985819E+02</pdfrwt>
<pdfrwt beam="1">  1       -2 0.46420069E-03 0.89985819E+02</pdfrwt>
<totfact> 0.24301298E+05</totfact>
</mgrwt>
</event>
<event>
 7    1  0.3960685E-009  0.8979960E+02  0.7818608E-02  0.1303338E+00
         -2   -1    0    0    0  501 -0.00000000000E+00  0.00000000000E+00  0.25751387660E+01  0.25751400286E+01  0.25500000000E-02 0. -1.
          2   -1    0    0  501    0  0.00000000000E+00 -0.00000000000E+00 -0.78286710753E+03  0.78286710754E+03  0.25500000000E-02 0.  1.
         23    2    1    2    0    0  0.00000000000E+00 -0.33306690739E-15 -0.78029196877E+03  0.78544224756E+03  0.89799597654E+02 0.  0.
    9000005    2    3    3    0    0  0.13762679619E+02 -0.56554939592E+00 -0.76321530703E+03  0.76350270398E+03  0.15781093535E+02 0.  0.
         22    1    3    3    0    0 -0.13762679619E+02  0.56554939592E+00 -0.17076661740E+02  0.21939543582E+02  0.00000000000E+00 0. -1.
         22    1    4    4    0    0  0.10581465363E+02  0.65583390057E+01 -0.36830153838E+03  0.36851187552E+03  0.00000000000E+00 0.  1.
         22    1    4    4    0    0  0.31812142563E+01 -0.71238884016E+01 -0.39491376864E+03  0.39499082847E+03  0.00000000000E+00 0.  1.
<mgrwt>
<rscale>  0 0.89799598E+02</rscale>
<asrwt>0</asrwt>
<pdfrwt beam="2">  1        2 0.12044090E+00 0.89799598E+02</pdfrwt>
<pdfrwt beam="1">  1       -2 0.39617592E-03 0.89799598E+02</pdfrwt>
<totfact> 0.25271563E+05</totfact>
</mgrwt>
</event>
<event>
 7    1  0.3960685E-009  0.9199113E+02  0.7818608E-02  0.1298100E+00
         -2   -1    0    0    0  501 -0.00000000000E+00  0.00000000000E+00  0.64495924290E+01  0.64495929331E+01  0.25500000000E-02 0.  1.
          2   -1    0    0  501    0  0.00000000000E+00 -0.00000000000E+00 -0.32801950678E+03  0.32801950679E+03  0.25500000000E-02 0. -1.
         23    2    1    2    0    0  0.71054273576E-14  0.00000000000E+00 -0.32156991435E+03  0.33446909972E+03  0.91991134648E+02 0.  0.
    9000005    2    3    3    0    0 -0.35880593882E+02 -0.25434827710E+02 -0.13107026440E+03  0.13895832225E+03  0.13987624309E+02 0.  0.
         22    1    3    3    0    0  0.35880593882E+02  0.25434827710E+02 -0.19049964995E+03  0.19551077747E+03  0.00000000000E+00 0. -1.
         22    1    4    4    0    0 -0.77292117768E+01 -0.92846597289E+01 -0.53970360753E+02  0.55305926091E+02  0.00000000000E+00 0. -1.
         22    1    4    4    0    0 -0.28151382105E+02 -0.16150167981E+02 -0.77099903649E+02  0.83652396158E+02  0.00000000000E+00 0. -1.
<mgrwt>
<rscale>  0 0.91991135E+02</rscale>
<asrwt>0</asrwt>
<pdfrwt beam="2">  1        2 0.50464526E-01 0.91991135E+02</pdfrwt>
<pdfrwt beam="1">  1       -2 0.99224529E-03 0.91991135E+02</pdfrwt>
<totfact> 0.18136155E+05</totfact>
</mgrwt>
</event>
<event>
 7    1  0.3960685E-009  0.9217305E+02  0.7818608E-02  0.1297673E+00
          2   -1    0    0  501    0  0.00000000000E+00  0.00000000000E+00  0.11418694048E+03  0.11418694051E+03  0.25500000000E-02 0. -1.
         -2   -1    0    0    0  501 -0.00000000000E+00 -0.00000000000E+00 -0.18600793270E+02  0.18600793445E+02  0.25500000000E-02 0.  1.
         23    2    1    2    0    0  0.00000000000E+00  0.00000000000E+00  0.95586147207E+02  0.13278773395E+03  0.92173047850E+02 0.  0.
    9000005    2    3    3    0    0  0.17509832338E+02 -0.25855641867E+02  0.96096931590E+02  0.10155683026E+03  0.10201032590E+02 0.  0.
         22    1    3    3    0    0 -0.17509832338E+02  0.25855641867E+02 -0.51078438236E+00  0.31230903694E+02  0.00000000000E+00 0.  1.
         22    1    4    4    0    0 -0.12920363335E+01 -0.23997590435E+01  0.98983793813E+01  0.10266748060E+02  0.00000000000E+00 0. -1.
         22    1    4    4    0    0  0.18801868672E+02 -0.23455882824E+02  0.86198552208E+02  0.91290082196E+02  0.00000000000E+00 0. -1.
<mgrwt>
<rscale>  0 0.92173048E+02</rscale>
<asrwt>0</asrwt>
<pdfrwt beam="1">  1        2 0.17567222E-01 0.92173048E+02</pdfrwt>
<pdfrwt beam="2">  1       -2 0.28616605E-02 0.92173048E+02</pdfrwt>
<totfact> 0.12407500E+05</totfact>
</mgrwt>
</event>
<event>
 7    1  0.3960685E-009  0.9263874E+02  0.7818608E-02  0.1296585E+00
         -2   -1    0    0    0  501 -0.00000000000E+00  0.00000000000E+00  0.16583413544E+03  0.16583413546E+03  0.25500000000E-02 0. -1.
          2   -1    0    0  501    0  0.00000000000E+00 -0.00000000000E+00 -0.12937529508E+02  0.12937529759E+02  0.25500000000E-02 0.  1.
         23    2    1    2    0    0  0.00000000000E+00 -0.88817841970E-15  0.15289660594E+03  0.17877166522E+03  0.92638740167E+02 0.  0.
    9000005    2    3    3    0    0 -0.38910852827E+02  0.60236765675E+01  0.12065141317E+03  0.12787872265E+03  0.15680084817E+02 0.  0.
         22    1    3    3    0    0  0.38910852827E+02 -0.60236765675E+01  0.32245192767E+02  0.50892942573E+02  0.00000000000E+00 0.  1.
         22    1    4    4    0    0 -0.51312265964E+01  0.57149716271E+01  0.34420807091E+02  0.35267298562E+02  0.00000000000E+00 0. -1.
         22    1    4    4    0    0 -0.33779626231E+02  0.30870494036E+00  0.86230606077E+02  0.92611424087E+02  0.00000000000E+00 0. -1.
<mgrwt>
<rscale>  0 0.92638740E+02</rscale>
<asrwt>0</asrwt>
<pdfrwt beam="2">  1        2 0.19903892E-02 0.92638740E+02</pdfrwt>
<pdfrwt beam="1">  1       -2 0.25512943E-01 0.92638740E+02</pdfrwt>
<totfact> 0.64612394E+04</totfact>
</mgrwt>
</event>
<event>
 7    1  0.3960685E-009  0.9263079E+02  0.7818608E-02  0.1296603E+00
         -2   -1    0    0    0  501 -0.00000000000E+00  0.00000000000E+00  0.44031232797E+03  0.44031232798E+03  0.25500000000E-02 0.  1.
          2   -1    0    0  501    0  0.00000000000E+00 -0.00000000000E+00 -0.48718051418E+01  0.48718058091E+01  0.25500000000E-02 0. -1.
         23    2    1    2    0    0  0.00000000000E+00  0.00000000000E+00  0.43544052283E+03  0.44518413379E+03  0.92630794309E+02 0.  0.
    9000005    2    3    3    0    0 -0.39759782379E+02  0.55435017652E+01  0.32585028665E+03  0.32847256378E+03  0.10210051070E+02 0.  0.
         22    1    3    3    0    0  0.39759782379E+02 -0.55435017652E+01  0.10959023618E+03  0.11671157000E+03  0.00000000000E+00 0. -1.
         22    1    4    4    0    0 -0.30236705373E+02  0.64206520167E+01  0.27490965021E+03  0.27664200495E+03  0.00000000000E+00 0. -1.
         22    1    4    4    0    0 -0.95230770061E+01 -0.87715025147E+00  0.50940636438E+02  0.51830558833E+02  0.00000000000E+00 0. -1.
<mgrwt>
<rscale>  0 0.92630794E+02</rscale>
<asrwt>0</asrwt>
<pdfrwt beam="2">  1        2 0.74950863E-03 0.92630794E+02</pdfrwt>
<pdfrwt beam="1">  1       -2 0.67740350E-01 0.92630794E+02</pdfrwt>
<totfact> 0.38323740E+04</totfact>
</mgrwt>
</event>
<event>
 7    1  0.3960685E-009  0.9147177E+02  0.7818608E-02  0.1299326E+00
          2   -1    0    0  501    0  0.00000000000E+00  0.00000000000E+00  0.34586048569E+01  0.34586057969E+01  0.25500000000E-02 0. -1.
         -2   -1    0    0    0  501 -0.00000000000E+00 -0.00000000000E+00 -0.60480186955E+03  0.60480186955E+03  0.25500000000E-02 0.  1.
         23    2    1    2    0    0 -0.88817841970E-15  0.00000000000E+00 -0.60134326469E+03  0.60826047535E+03  0.91471765501E+02 0.  0.
    9000005    2    3    3    0    0  0.61024687146E+01 -0.43877536439E+02 -0.34807171819E+03  0.35114385863E+03  0.13623880465E+02 0.  0.
         22    1    3    3    0    0 -0.61024687146E+01  0.43877536439E+02 -0.25327154650E+03  0.25711661672E+03  0.00000000000E+00 0.  1.
         22    1    4    4    0    0  0.26790611746E+01 -0.27097105470E+02 -0.26003984176E+03  0.26146156466E+03  0.00000000000E+00 0.  1.
         22    1    4    4    0    0  0.34234075401E+01 -0.16780430969E+02 -0.88031876428E+02  0.89682293962E+02  0.00000000000E+00 0.  1.
<mgrwt>
<rscale>  0 0.91471766E+02</rscale>
<asrwt>0</asrwt>
<pdfrwt beam="1">  1        2 0.53209361E-03 0.91471766E+02</pdfrwt>
<pdfrwt beam="2">  1       -2 0.93046358E-01 0.91471766E+02</pdfrwt>
<totfact> 0.30788434E+04</totfact>
</mgrwt>
</event>
<event>
 7    1  0.3960685E-009  0.9184818E+02  0.7818608E-02  0.1298437E+00
         -2   -1    0    0    0  501 -0.00000000000E+00  0.00000000000E+00  0.17590448034E+03  0.17590448036E+03  0.25500000000E-02 0.  1.
          2   -1    0    0  501    0  0.00000000000E+00 -0.00000000000E+00 -0.11989585586E+02  0.11989585857E+02  0.25500000000E-02 0. -1.
         23    2    1    2    0    0  0.17763568394E-14  0.00000000000E+00  0.16391489476E+03  0.18789406622E+03  0.91848175795E+02 0.  0.
    9000005    2    3    3    0    0  0.11034396049E+02  0.12790265439E+02  0.16928324946E+03  0.17016928080E+03  0.39264225409E+01 0.  0.
         22    1    3    3    0    0 -0.11034396049E+02 -0.12790265439E+02 -0.53683546975E+01  0.17724785424E+02  0.00000000000E+00 0. -1.
         22    1    4    4    0    0  0.44937122654E+01  0.69510498189E+01  0.66600431133E+02  0.67112800349E+02  0.00000000000E+00 0.  1.
         22    1    4    4    0    0  0.65406837840E+01  0.58392156196E+01  0.10268281832E+03  0.10305648045E+03  0.00000000000E+00 0.  1.
<mgrwt>
<rscale>  0 0.91848176E+02</rscale>
<asrwt>0</asrwt>
<pdfrwt beam="2">  1        2 0.18445516E-02 0.91848176E+02</pdfrwt>
<pdfrwt beam="1">  1       -2 0.27062229E-01 0.91848176E+02</pdfrwt>
<totfact> 0.64523411E+04</totfact>
</mgrwt>
</event>
<event>
 7    1  0.3960685E-009  0.8759718E+02  0.7818608E-02  0.1308777E+00
         -2   -1    0    0    0  501 -0.00000000000E+00  0.00000000000E+00  0.19724900611E+03  0.19724900613E+03  0.25500000000E-02 0.  1.
          2   -1    0    0  501    0  0.00000000000E+00 -0.00000000000E+00 -0.97253544500E+01  0.97253547843E+01  0.25500000000E-02 0. -1.
         23    2    1    2    0    0  0.00000000000E+00  0.00000000000E+00  0.18752365166E+03  0.20697436091E+03  0.87597181134E+02 0.  0.
    9000005    2    3    3    0    0 -0.51603582874E+01  0.38727536753E+02  0.14011621482E+03  0.14554215057E+03  0.48489724594E+01 0.  0.
         22    1    3    3    0    0  0.51603582874E+01 -0.38727536753E+02  0.47407436839E+02  0.61432210348E+02  0.00000000000E+00 0. -1.
         22    1    4    4    0    0 -0.48031505175E+01  0.26576636159E+02  0.10323657637E+03  0.10671072366E+03  0.00000000000E+00 0.  1.
         22    1    4    4    0    0 -0.35720776997E+00  0.12150900595E+02  0.36879638457E+02  0.38831426904E+02  0.00000000000E+00 0.  1.
<mgrwt>
<rscale>  0 0.87597181E+02</rscale>
<asrwt>0</asrwt>
<pdfrwt beam="2">  1        2 0.14962085E-02 0.87597181E+02</pdfrwt>
<pdfrwt beam="1">  1       -2 0.30345999E-01 0.87597181E+02</pdfrwt>
<totfact> 0.69431918E+04</totfact>
</mgrwt>
</event>
<event>
 7    1  0.3960685E-009  0.9284090E+02  0.7818608E-02  0.1296114E+00
          2   -1    0    0  501    0  0.00000000000E+00  0.00000000000E+00  0.11801401377E+02  0.11801401653E+02  0.25500000000E-02 0. -1.
         -2   -1    0    0    0  501 -0.00000000000E+00 -0.00000000000E+00 -0.18259340049E+03  0.18259340051E+03  0.25500000000E-02 0.  1.
         23    2    1    2    0    0  0.00000000000E+00  0.00000000000E+00 -0.17079199911E+03  0.19439480216E+03  0.92840896949E+02 0.  0.
    9000005    2    3    3    0    0  0.42127758081E+02  0.18641219118E+02 -0.74803639934E+02  0.87924110659E+02  0.35807312869E+01 0.  0.
         22    1    3    3    0    0 -0.42127758081E+02 -0.18641219118E+02 -0.95988359180E+02  0.10647069150E+03  0.00000000000E+00 0.  1.
         22    1    4    4    0    0  0.18378924702E+02  0.10041322297E+02 -0.34596758508E+02  0.40441917931E+02  0.00000000000E+00 0.  1.
         22    1    4    4    0    0  0.23748833379E+02  0.85998968211E+01 -0.40206881426E+02  0.47482192728E+02  0.00000000000E+00 0.  1.
<mgrwt>
<rscale>  0 0.92840897E+02</rscale>
<asrwt>0</asrwt>
<pdfrwt beam="1">  1        2 0.18156004E-02 0.92840897E+02</pdfrwt>
<pdfrwt beam="2">  1       -2 0.28091290E-01 0.92840897E+02</pdfrwt>
<totfact> 0.61836232E+04</totfact>
</mgrwt>
</event>
<event>
 7    1  0.3960685E-009  0.9073240E+02  0.7818608E-02  0.1301088E+00
         -2   -1    0    0    0  501 -0.00000000000E+00  0.00000000000E+00  0.46398658590E+03  0.46398658591E+03  0.25500000000E-02 0.  1.
          2   -1    0    0  501    0  0.00000000000E+00 -0.00000000000E+00 -0.44356709347E+01  0.44356716677E+01  0.25500000000E-02 0. -1.
         23    2    1    2    0    0  0.00000000000E+00  0.00000000000E+00  0.45955091497E+03  0.46842225758E+03  0.90732397444E+02 0.  0.
    9000005    2    3    3    0    0 -0.34196788665E+02 -0.28202111327E+02  0.21300772919E+03  0.21792610612E+03  0.12438472508E+02 0.  0.
         22    1    3    3    0    0  0.34196788665E+02  0.28202111327E+02  0.24654318578E+03  0.25049615146E+03  0.00000000000E+00 0. -1.
         22    1    4    4    0    0 -0.12977939341E+02 -0.17919152657E+02  0.11625171873E+03  0.11833843437E+03  0.00000000000E+00 0.  1.
         22    1    4    4    0    0 -0.21218849324E+02 -0.10282958670E+02  0.96756010454E+02  0.99587671750E+02  0.00000000000E+00 0.  1.
<mgrwt>
<rscale>  0 0.90732397E+02</rscale>
<asrwt>0</asrwt>
<pdfrwt beam="2">  1        2 0.68241120E-03 0.90732397E+02</pdfrwt>
<pdfrwt beam="1">  1       -2 0.71382528E-01 0.90732397E+02</pdfrwt>
<totfact> 0.38916606E+04</totfact>
</mgrwt>
</event>
<event>
 7    1  0.3960685E-009  0.9160116E+02  0.7818608E-02  0.1299020E+00
         -2   -1    0    0    0  501 -0.00000000000E+00  0.00000000000E+00  0.14675330953E+02  0.14675331174E+02  0.25500000000E-02 0.  1.
          2   -1    0    0  501    0  0.00000000000E+00 -0.00000000000E+00 -0.14294007796E+03  0.14294007798E+03  0.25500000000E-02 0. -1.
         23    2    1    2    0    0  0.71054273576E-14  0.00000000000E+00 -0.12826474701E+03  0.15761540916E+03  0.91601156537E+02 0.  0.
    9000005    2    3    3    0    0 -0.37343959978E+02 -0.25998357827E+02 -0.56679271553E+02  0.72792262241E+02  0.39607653132E+01 0.  0.
         22    1    3    3    0    0  0.37343959978E+02  0.25998357827E+02 -0.71585475455E+02  0.84823146916E+02  0.00000000000E+00 0. -1.
         22    1    4    4    0    0 -0.15684306341E+02 -0.11614563903E+02 -0.27319181112E+02  0.33574293986E+02  0.00000000000E+00 0. -1.
         22    1    4    4    0    0 -0.21659653638E+02 -0.14383793924E+02 -0.29360090441E+02  0.39217968255E+02  0.00000000000E+00 0. -1.
<mgrwt>
<rscale>  0 0.91601157E+02</rscale>
<asrwt>0</asrwt>
<pdfrwt beam="2">  1        2 0.21990780E-01 0.91601157E+02</pdfrwt>
<pdfrwt beam="1">  1       -2 0.22577433E-02 0.91601157E+02</pdfrwt>
<totfact> 0.13582163E+05</totfact>
</mgrwt>
</event>
<event>
 7    1  0.3960685E-009  0.9125884E+02  0.7818608E-02  0.1299832E+00
         -2   -1    0    0    0  501 -0.00000000000E+00  0.00000000000E+00  0.92183246133E+02  0.92183246168E+02  0.25500000000E-02 0.  1.
          2   -1    0    0  501    0  0.00000000000E+00 -0.00000000000E+00 -0.22585923493E+02  0.22585923637E+02  0.25500000000E-02 0. -1.
         23    2    1    2    0    0  0.00000000000E+00  0.00000000000E+00  0.69597322640E+02  0.11476916980E+03  0.91258835293E+02 0.  0.
    9000005    2    3    3    0    0  0.12389630451E+02 -0.18108157728E+02  0.84747386608E+02  0.88105847483E+02  0.99555263494E+01 0.  0.
         22    1    3    3    0    0 -0.12389630451E+02  0.18108157728E+02 -0.15150063967E+02  0.26663322322E+02  0.00000000000E+00 0. -1.
         22    1    4    4    0    0  0.52652762712E+01 -0.60689202985E+01  0.50111734726E+02  0.50751757458E+02  0.00000000000E+00 0. -1.
         22    1    4    4    0    0  0.71243541802E+01 -0.12039237429E+02  0.34635651881E+02  0.37354090025E+02  0.00000000000E+00 0. -1.
<mgrwt>
<rscale>  0 0.91258835E+02</rscale>
<asrwt>0</asrwt>
<pdfrwt beam="2">  1        2 0.34747575E-02 0.91258835E+02</pdfrwt>
<pdfrwt beam="1">  1       -2 0.14182038E-01 0.91258835E+02</pdfrwt>
<totfact> 0.81555730E+04</totfact>
</mgrwt>
</event>
<event>
 7    1  0.3960685E-009  0.9060402E+02  0.7818608E-02  0.1301396E+00
          2   -1    0    0  501    0  0.00000000000E+00  0.00000000000E+00  0.39838531469E+02  0.39838531551E+02  0.25500000000E-02 0. -1.
         -2   -1    0    0    0  501 -0.00000000000E+00 -0.00000000000E+00 -0.51514757443E+02  0.51514757506E+02  0.25500000000E-02 0.  1.
         23    2    1    2    0    0  0.17763568394E-14  0.00000000000E+00 -0.11676225974E+02  0.91353289057E+02  0.90604024019E+02 0.  0.
    9000005    2    3    3    0    0  0.11034731287E+02  0.33841197940E+02 -0.33641210360E+02  0.49526831979E+02  0.73609835484E+01 0.  0.
         22    1    3    3    0    0 -0.11034731287E+02 -0.33841197940E+02  0.21964984386E+02  0.41826457078E+02  0.00000000000E+00 0. -1.
         22    1    4    4    0    0  0.99474616113E+01  0.19406814933E+02 -0.21657552148E+02  0.30734768966E+02  0.00000000000E+00 0. -1.
         22    1    4    4    0    0  0.10872696756E+01  0.14434383007E+02 -0.11983658212E+02  0.18792063013E+02  0.00000000000E+00 0. -1.
<mgrwt>
<rscale>  0 0.90604024E+02</rscale>
<asrwt>0</asrwt>
<pdfrwt beam="1">  1        2 0.61290049E-02 0.90604024E+02</pdfrwt>
<pdfrwt beam="2">  1       -2 0.79253473E-02 0.90604024E+02</pdfrwt>
<totfact> 0.97042593E+04</totfact>
</mgrwt>
</event>
<event>
 7    1  0.3960685E-009  0.9027953E+02  0.7818608E-02  0.1302176E+00
          2   -1    0    0  501    0  0.00000000000E+00  0.00000000000E+00  0.56463790544E+03  0.56463790544E+03  0.25500000000E-02 0. -1.
         -2   -1    0    0    0  501 -0.00000000000E+00 -0.00000000000E+00 -0.36086814456E+01  0.36086823465E+01  0.25500000000E-02 0.  1.
         23    2    1    2    0    0  0.00000000000E+00  0.00000000000E+00  0.56102922399E+03  0.56824658779E+03  0.90279534568E+02 0.  0.
    9000005    2    3    3    0    0  0.41594108698E+01  0.16165328746E+02  0.54394175819E+03  0.54435935187E+03  0.13260811328E+02 0.  0.
         22    1    3    3    0    0 -0.41594108698E+01 -0.16165328746E+02  0.17087465806E+02  0.23887235921E+02  0.00000000000E+00 0.  1.
         22    1    4    4    0    0 -0.30039275253E+01  0.12421505627E+02  0.38522891474E+03  0.38544083091E+03  0.00000000000E+00 0.  1.
         22    1    4    4    0    0  0.71633383951E+01  0.37438231189E+01  0.15871284345E+03  0.15891852096E+03  0.00000000000E+00 0.  1.
<mgrwt>
<rscale>  0 0.90279535E+02</rscale>
<asrwt>0</asrwt>
<pdfrwt beam="1">  1        2 0.86867424E-01 0.90279535E+02</pdfrwt>
<pdfrwt beam="2">  1       -2 0.55518149E-03 0.90279535E+02</pdfrwt>
<totfact> 0.22977233E+05</totfact>
</mgrwt>
</event>
<event>
 7    1  0.3960685E-009  0.8740493E+02  0.7818608E-02  0.1309261E+00
          2   -1    0    0  501    0  0.00000000000E+00  0.00000000000E+00  0.43673907099E+02  0.43673907174E+02  0.25500000000E-02 0. -1.
         -2   -1    0    0    0  501 -0.00000000000E+00 -0.00000000000E+00 -0.43731037137E+02  0.43731037211E+02  0.25500000000E-02 0.  1.
         23    2    1    2    0    0  0.00000000000E+00  0.00000000000E+00 -0.57130037571E-01  0.87404944385E+02  0.87404925714E+02 0.  0.
    9000005    2    3    3    0    0  0.23228394240E+02  0.24484162296E+02  0.27217400816E+02  0.44012173839E+02  0.75665075538E+01 0.  0.
         22    1    3    3    0    0 -0.23228394240E+02 -0.24484162296E+02 -0.27274530853E+02  0.43392770545E+02  0.00000000000E+00 0.  1.
         22    1    4    4    0    0  0.12405497033E+02  0.11301234520E+02  0.89466599691E+01  0.19017281165E+02  0.00000000000E+00 0.  1.
         22    1    4    4    0    0  0.10822897208E+02  0.13182927777E+02  0.18270740846E+02  0.24994892675E+02  0.00000000000E+00 0.  1.
<mgrwt>
<rscale>  0 0.87404926E+02</rscale>
<asrwt>0</asrwt>
<pdfrwt beam="1">  1        2 0.67190626E-02 0.87404926E+02</pdfrwt>
<pdfrwt beam="2">  1       -2 0.67278519E-02 0.87404926E+02</pdfrwt>
<totfact> 0.11013220E+05</totfact>
</mgrwt>
</event>
<event>
 7    1  0.3960685E-009  0.9088521E+02  0.7818608E-02  0.1300722E+00
         -2   -1    0    0    0  501 -0.00000000000E+00  0.00000000000E+00  0.79067834704E+02  0.79067834745E+02  0.25500000000E-02 0.  1.
          2   -1    0    0  501    0  0.00000000000E+00 -0.00000000000E+00 -0.26117200299E+02  0.26117200424E+02  0.25500000000E-02 0. -1.
         23    2    1    2    0    0  0.88817841970E-15  0.00000000000E+00  0.52950634405E+02  0.10518503517E+03  0.90885212986E+02 0.  0.
    9000005    2    3    3    0    0  0.69111187736E+01  0.42256607023E+02  0.42706980743E+02  0.61158715312E+02  0.91168993976E+01 0.  0.
         22    1    3    3    0    0 -0.69111187736E+01 -0.42256607023E+02  0.10243653662E+02  0.44026319857E+02  0.00000000000E+00 0. -1.
         22    1    4    4    0    0 -0.32204361775E+00  0.23581179153E+02  0.25743126327E+02  0.34912523189E+02  0.00000000000E+00 0.  1.
         22    1    4    4    0    0  0.72331623913E+01  0.18675427870E+02  0.16963854416E+02  0.26246192123E+02  0.00000000000E+00 0.  1.
<mgrwt>
<rscale>  0 0.90885213E+02</rscale>
<asrwt>0</asrwt>
<pdfrwt beam="2">  1        2 0.40180308E-02 0.90885213E+02</pdfrwt>
<pdfrwt beam="1">  1       -2 0.12164282E-01 0.90885213E+02</pdfrwt>
<totfact> 0.86028120E+04</totfact>
</mgrwt>
</event>
<event>
 7    1  0.3960685E-009  0.8931480E+02  0.7818608E-02  0.1304520E+00
          2   -1    0    0  501    0  0.00000000000E+00  0.00000000000E+00  0.35965123681E+02  0.35965123771E+02  0.25500000000E-02 0. -1.
         -2   -1    0    0    0  501 -0.00000000000E+00 -0.00000000000E+00 -0.55450478226E+02  0.55450478285E+02  0.25500000000E-02 0.  1.
         23    2    1    2    0    0  0.00000000000E+00  0.17763568394E-14 -0.19485354546E+02  0.91415602056E+02  0.89314798648E+02 0.  0.
    9000005    2    3    3    0    0  0.34632203286E+02  0.14348148098E+02 -0.32288105767E+02  0.51802860455E+02  0.15354338768E+02 0.  0.
         22    1    3    3    0    0 -0.34632203286E+02 -0.14348148098E+02  0.12802751221E+02  0.39612741601E+02  0.00000000000E+00 0. -1.
         22    1    4    4    0    0  0.35176460291E+02  0.14115393675E+02 -0.33415554839E+02  0.50529466675E+02  0.00000000000E+00 0.  1.
         22    1    4    4    0    0 -0.54425700471E+00  0.23275442266E+00  0.11274490725E+01  0.12733937802E+01  0.00000000000E+00 0.  1.
<mgrwt>
<rscale>  0 0.89314799E+02</rscale>
<asrwt>0</asrwt>
<pdfrwt beam="1">  1        2 0.55330960E-02 0.89314799E+02</pdfrwt>
<pdfrwt beam="2">  1       -2 0.85308428E-02 0.89314799E+02</pdfrwt>
<totfact> 0.98539439E+04</totfact>
</mgrwt>
</event>
<event>
 7    1  0.3960685E-009  0.9080272E+02  0.7818608E-02  0.1300919E+00
          2   -1    0    0  501    0  0.00000000000E+00  0.00000000000E+00  0.11585014317E+03  0.11585014320E+03  0.25500000000E-02 0. -1.
         -2   -1    0    0    0  501 -0.00000000000E+00 -0.00000000000E+00 -0.17792672190E+02  0.17792672373E+02  0.25500000000E-02 0.  1.
         23    2    1    2    0    0  0.35527136788E-14  0.00000000000E+00  0.98057470980E+02  0.13364281557E+03  0.90802723191E+02 0.  0.
    9000005    2    3    3    0    0 -0.28916154554E+02  0.33526846694E+02  0.50361667369E+02  0.68565299288E+02  0.14307665177E+02 0.  0.
         22    1    3    3    0    0  0.28916154554E+02 -0.33526846694E+02  0.47695803611E+02  0.65077516283E+02  0.00000000000E+00 0. -1.
         22    1    4    4    0    0 -0.25441396242E+01  0.28217454417E+01  0.12778760681E+02  0.13331602241E+02  0.00000000000E+00 0. -1.
         22    1    4    4    0    0 -0.26372014930E+02  0.30705101253E+02  0.37582906688E+02  0.55233697048E+02  0.00000000000E+00 0. -1.
<mgrwt>
<rscale>  0 0.90802723E+02</rscale>
<asrwt>0</asrwt>
<pdfrwt beam="1">  1        2 0.17823099E-01 0.90802723E+02</pdfrwt>
<pdfrwt beam="2">  1       -2 0.27373342E-02 0.90802723E+02</pdfrwt>
<totfact> 0.12986861E+05</totfact>
</mgrwt>
</event>
<event>
 6    1  0.5074063E-009  0.3822702E+03  0.7818608E-02  0.1050098E+00
         -2   -1    0    0    0  501 -0.00000000000E+00  0.00000000000E+00  0.25948512300E+02  0.25948512425E+02  0.25500000000E-02 0.  1.
          2   -1    0    0  501    0  0.00000000000E+00 -0.00000000000E+00 -0.14078891480E+04  0.14078891480E+04  0.25500000000E-02 0. -1.
    9000005    2    1    2    0    0 -0.93178094471E+02  0.35827032321E+02 -0.13022112936E+04  0.13060781147E+04  0.10956959811E+02 0.  0.
         22    1    1    2    0    0  0.93178094471E+02 -0.35827032321E+02 -0.79729342098E+02  0.12775954573E+03  0.00000000000E+00 0.  1.
         22    1    3    3    0    0 -0.25251468454E+02  0.11047683073E+02 -0.30096701362E+03  0.30222645690E+03  0.00000000000E+00 0.  1.
         22    1    3    3    0    0 -0.67926626017E+02  0.24779349247E+02 -0.10012442800E+04  0.10038516578E+04  0.00000000000E+00 0.  1.
<mgrwt>
<rscale>  0 0.38227021E+03</rscale>
<asrwt>0</asrwt>
<pdfrwt beam="2">  1        2 0.21659827E+00 0.38227021E+03</pdfrwt>
<pdfrwt beam="1">  1       -2 0.39920799E-02 0.38227021E+03</pdfrwt>
<totfact> 0.42293239E+03</totfact>
</mgrwt>
</event>
<event>
 7    1  0.3960685E-009  0.9000198E+02  0.7818608E-02  0.1302847E+00
         -2   -1    0    0    0  501 -0.00000000000E+00  0.00000000000E+00  0.71767595339E+01  0.71767599869E+01  0.25500000000E-02 0.  1.
          2   -1    0    0  501    0  0.00000000000E+00 -0.00000000000E+00 -0.28217317617E+03  0.28217317618E+03  0.25500000000E-02 0. -1.
         23    2    1    2    0    0  0.00000000000E+00  0.00000000000E+00 -0.27499641664E+03  0.28934993617E+03  0.90001979967E+02 0.  0.
    9000005    2    3    3    0    0  0.33914468890E+02 -0.28826519183E+02 -0.12215183366E+03  0.13015626181E+03  0.61985978562E+01 0.  0.
         22    1    3    3    0    0 -0.33914468890E+02  0.28826519183E+02 -0.15284458298E+03  0.15919367436E+03  0.00000000000E+00 0. -1.
         22    1    4    4    0    0  0.44002786791E+01 -0.16312495577E+01 -0.10187693394E+02  0.11216618218E+02  0.00000000000E+00 0. -1.
         22    1    4    4    0    0  0.29514190211E+02 -0.27195269626E+02 -0.11196414026E+03  0.11893964360E+03  0.00000000000E+00 0. -1.
<mgrwt>
<rscale>  0 0.90001980E+02</rscale>
<asrwt>0</asrwt>
<pdfrwt beam="2">  1        2 0.43411249E-01 0.90001980E+02</pdfrwt>
<pdfrwt beam="1">  1       -2 0.11041171E-02 0.90001980E+02</pdfrwt>
<totfact> 0.18178562E+05</totfact>
</mgrwt>
</event>
<event>
 7    1  0.3960685E-009  0.9079006E+02  0.7818608E-02  0.1300950E+00
          2   -1    0    0  501    0  0.00000000000E+00  0.00000000000E+00  0.68929948960E+03  0.68929948960E+03  0.25500000000E-02 0. -1.
         -2   -1    0    0    0  501 -0.00000000000E+00 -0.00000000000E+00 -0.29895692984E+01  0.29895703859E+01  0.25500000000E-02 0.  1.
         23    2    1    2    0    0  0.00000000000E+00  0.00000000000E+00  0.68630992030E+03  0.69228905999E+03  0.90790064865E+02 0.  0.
    9000005    2    3    3    0    0 -0.29101007266E+02  0.12698252277E+02  0.58824919857E+03  0.58921617616E+03  0.11422276221E+02 0.  0.
         22    1    3    3    0    0  0.29101007266E+02 -0.12698252277E+02  0.98060721723E+02  0.10307288382E+03  0.00000000000E+00 0.  1.
         22    1    4    4    0    0 -0.16929361774E+02  0.11654849663E+01  0.29041198368E+03  0.29090734248E+03  0.00000000000E+00 0.  1.
         22    1    4    4    0    0 -0.12171645493E+02  0.11532767311E+02  0.29783721490E+03  0.29830883368E+03  0.00000000000E+00 0.  1.
<mgrwt>
<rscale>  0 0.90790065E+02</rscale>
<asrwt>0</asrwt>
<pdfrwt beam="1">  1        2 0.10604612E+00 0.90790065E+02</pdfrwt>
<pdfrwt beam="2">  1       -2 0.45993363E-03 0.90790065E+02</pdfrwt>
<totfact> 0.23894744E+05</totfact>
</mgrwt>
</event>
<event>
 7    1  0.3960685E-009  0.9467326E+02  0.7818608E-02  0.1291914E+00
          2   -1    0    0  501    0  0.00000000000E+00  0.00000000000E+00  0.37582598533E+03  0.37582598534E+03  0.25500000000E-02 0. -1.
         -2   -1    0    0    0  501 -0.00000000000E+00 -0.00000000000E+00 -0.59622174677E+01  0.59622180130E+01  0.25500000000E-02 0.  1.
         23    2    1    2    0    0  0.00000000000E+00  0.00000000000E+00  0.36986376786E+03  0.38178820335E+03  0.94673256209E+02 0.  0.
    9000005    2    3    3    0    0 -0.17962202478E+02  0.37869242583E+02  0.27166827151E+03  0.27502174909E+03  0.87517127273E+01 0.  0.
         22    1    3    3    0    0  0.17962202478E+02 -0.37869242583E+02  0.98195496352E+02  0.10676645426E+03  0.00000000000E+00 0.  1.
         22    1    4    4    0    0 -0.35612097889E+01  0.74161970982E+01  0.34173940460E+02  0.35150254638E+02  0.00000000000E+00 0. -1.
         22    1    4    4    0    0 -0.14400992689E+02  0.30453045485E+02  0.23749433105E+03  0.23987149445E+03  0.00000000000E+00 0. -1.
<mgrwt>
<rscale>  0 0.94673256E+02</rscale>
<asrwt>0</asrwt>
<pdfrwt beam="1">  1        2 0.57819391E-01 0.94673256E+02</pdfrwt>
<pdfrwt beam="2">  1       -2 0.91726413E-03 0.94673256E+02</pdfrwt>
<totfact> 0.17656997E+05</totfact>
</mgrwt>
</event>
<event>
 7    1  0.3960685E-009  0.9240421E+02  0.7818608E-02  0.1297132E+00
          2   -1    0    0  501    0  0.00000000000E+00  0.00000000000E+00  0.14139260995E+03  0.14139260997E+03  0.25500000000E-02 0.  1.
         -2   -1    0    0    0  501 -0.00000000000E+00 -0.00000000000E+00 -0.15097213185E+02  0.15097213400E+02  0.25500000000E-02 0. -1.
         23    2    1    2    0    0  0.00000000000E+00  0.00000000000E+00  0.12629539677E+03  0.15648982337E+03  0.92404207563E+02 0.  0.
    9000005    2    3    3    0    0 -0.31153876340E+02 -0.27598935202E+02  0.29631025558E+02  0.51245983191E+02  0.39859606497E+01 0.  0.
         22    1    3    3    0    0  0.31153876340E+02  0.27598935202E+02  0.96664371209E+02  0.10524384018E+03  0.00000000000E+00 0.  1.
         22    1    4    4    0    0 -0.40563212297E+01 -0.54420416251E+01  0.54148879363E+01  0.86827743453E+01  0.00000000000E+00 0. -1.
         22    1    4    4    0    0 -0.27097555110E+02 -0.22156893577E+02  0.24216137622E+02  0.42563208846E+02  0.00000000000E+00 0. -1.
<mgrwt>
<rscale>  0 0.92404208E+02</rscale>
<asrwt>0</asrwt>
<pdfrwt beam="1">  1        2 0.21752709E-01 0.92404208E+02</pdfrwt>
<pdfrwt beam="2">  1       -2 0.23226482E-02 0.92404208E+02</pdfrwt>
<totfact> 0.13214519E+05</totfact>
</mgrwt>
</event>
<event>
 7    1  0.3960685E-009  0.9226827E+02  0.7818608E-02  0.1297450E+00
          2   -1    0    0  501    0  0.00000000000E+00  0.00000000000E+00  0.13580064532E+03  0.13580064535E+03  0.25500000000E-02 0. -1.
         -2   -1    0    0    0  501 -0.00000000000E+00 -0.00000000000E+00 -0.15672667989E+02  0.15672668197E+02  0.25500000000E-02 0.  1.
         23    2    1    2    0    0  0.00000000000E+00  0.00000000000E+00  0.12012797733E+03  0.15147331354E+03  0.92268270697E+02 0.  0.
    9000005    2    3    3    0    0 -0.10121292233E+02  0.25466361282E+02  0.12016600261E+03  0.12406934377E+03  0.14225250979E+02 0.  0.
         22    1    3    3    0    0  0.10121292233E+02 -0.25466361282E+02 -0.38025282533E-01  0.27403969773E+02  0.00000000000E+00 0.  1.
         22    1    4    4    0    0  0.54057335509E+00  0.17169174401E+02  0.73972030533E+02  0.75940332303E+02  0.00000000000E+00 0. -1.
         22    1    4    4    0    0 -0.10661865588E+02  0.82971868813E+01  0.46193972081E+02  0.48129011465E+02  0.00000000000E+00 0. -1.
<mgrwt>
<rscale>  0 0.92268271E+02</rscale>
<asrwt>0</asrwt>
<pdfrwt beam="1">  1        2 0.20892407E-01 0.92268271E+02</pdfrwt>
<pdfrwt beam="2">  1       -2 0.24111797E-02 0.92268271E+02</pdfrwt>
<totfact> 0.13089702E+05</totfact>
</mgrwt>
</event>
<event>
 7    1  0.3960685E-009  0.9334736E+02  0.7818608E-02  0.1294942E+00
         -2   -1    0    0    0  501 -0.00000000000E+00  0.00000000000E+00  0.46324154375E+02  0.46324154445E+02  0.25500000000E-02 0.  1.
          2   -1    0    0  501    0  0.00000000000E+00 -0.00000000000E+00 -0.47025843705E+02  0.47025843774E+02  0.25500000000E-02 0. -1.
         23    2    1    2    0    0 -0.17763568394E-14 -0.71054273576E-14 -0.70168933070E+00  0.93349998219E+02  0.93347360968E+02 0.  0.
    9000005    2    3    3    0    0  0.11033426761E+02  0.36896856200E+02 -0.26655525140E+02  0.46909540676E+02  0.26217327085E+01 0.  0.
         22    1    3    3    0    0 -0.11033426761E+02 -0.36896856200E+02  0.25953835810E+02  0.46440457543E+02  0.00000000000E+00 0.  1.
         22    1    4    4    0    0  0.10612207821E+02  0.33831698782E+02 -0.25133831882E+02  0.43461618728E+02  0.00000000000E+00 0. -1.
         22    1    4    4    0    0  0.42121893990E+00  0.30651574181E+01 -0.15216932580E+01  0.34479219487E+01  0.00000000000E+00 0. -1.
<mgrwt>
<rscale>  0 0.93347361E+02</rscale>
<asrwt>0</asrwt>
<pdfrwt beam="2">  1        2 0.72347452E-02 0.93347361E+02</pdfrwt>
<pdfrwt beam="1">  1       -2 0.71267930E-02 0.93347361E+02</pdfrwt>
<totfact> 0.92971824E+04</totfact>
</mgrwt>
</event>
<event>
 7    1  0.3960685E-009  0.8627487E+02  0.7818608E-02  0.1312132E+00
         -2   -1    0    0    0  501 -0.00000000000E+00  0.00000000000E+00  0.77366453935E+01  0.77366458138E+01  0.25500000000E-02 0. -1.
          2   -1    0    0  501    0  0.00000000000E+00 -0.00000000000E+00 -0.24052263928E+03  0.24052263930E+03  0.25500000000E-02 0.  1.
         23    2    1    2    0    0  0.17763568394E-14  0.00000000000E+00 -0.23278599389E+03  0.24825928511E+03  0.86274872891E+02 0.  0.
    9000005    2    3    3    0    0  0.13996244493E+02 -0.40197778157E+02 -0.11070787575E+03  0.11897346549E+03  0.93110422024E+01 0.  0.
         22    1    3    3    0    0 -0.13996244493E+02  0.40197778157E+02 -0.12207811814E+03  0.12928581962E+03  0.00000000000E+00 0.  1.
         22    1    4    4    0    0  0.87290899839E+01 -0.34651588998E+02 -0.95104178471E+02  0.10159593690E+03  0.00000000000E+00 0.  1.
         22    1    4    4    0    0  0.52671545091E+01 -0.55461891588E+01 -0.15603697283E+02  0.17377528585E+02  0.00000000000E+00 0.  1.
<mgrwt>
<rscale>  0 0.86274873E+02</rscale>
<asrwt>0</asrwt>
<pdfrwt beam="2">  1        2 0.37003477E-01 0.86274873E+02</pdfrwt>
<pdfrwt beam="1">  1       -2 0.11902534E-02 0.86274873E+02</pdfrwt>
<totfact> 0.19179267E+05</totfact>
</mgrwt>
</event>
<event>
 7    1  0.3960685E-009  0.9059383E+02  0.7818608E-02  0.1301420E+00
         -2   -1    0    0    0  501 -0.00000000000E+00  0.00000000000E+00  0.16984034005E+01  0.16984053148E+01  0.25500000000E-02 0.  1.
          2   -1    0    0  501    0  0.00000000000E+00 -0.00000000000E+00 -0.12080811698E+04  0.12080811698E+04  0.25500000000E-02 0. -1.
         23    2    1    2    0    0 -0.35527136788E-14  0.00000000000E+00 -0.12063827664E+04  0.12097795751E+04  0.90593825978E+02 0.  0.
    9000005    2    3    3    0    0 -0.29232658959E+02 -0.10736666147E+02 -0.10365385203E+04  0.10371038899E+04  0.14232003468E+02 0.  0.
         22    1    3    3    0    0  0.29232658959E+02  0.10736666147E+02 -0.16984424604E+03  0.17267568520E+03  0.00000000000E+00 0.  1.
         22    1    4    4    0    0 -0.95744181149E+01  0.10266516007E+00 -0.50609358301E+03  0.50618415106E+03  0.00000000000E+00 0. -1.
         22    1    4    4    0    0 -0.19658240844E+02 -0.10839331308E+02 -0.53044493732E+03  0.53091973881E+03  0.00000000000E+00 0. -1.
<mgrwt>
<rscale>  0 0.90593826E+02</rscale>
<asrwt>0</asrwt>
<pdfrwt beam="2">  1        2 0.18585795E+00 0.90593826E+02</pdfrwt>
<pdfrwt beam="1">  1       -2 0.26129394E-03 0.90593826E+02</pdfrwt>
<totfact> 0.25272695E+05</totfact>
</mgrwt>
</event>
<event>
 7    1  0.3960685E-009  0.8805992E+02  0.7818608E-02  0.1307619E+00
         -2   -1    0    0    0  501 -0.00000000000E+00  0.00000000000E+00  0.22976693554E+03  0.22976693555E+03  0.25500000000E-02 0.  1.
          2   -1    0    0  501    0  0.00000000000E+00 -0.00000000000E+00 -0.84374080293E+01  0.84374084146E+01  0.25500000000E-02 0. -1.
         23    2    1    2    0    0  0.00000000000E+00  0.00000000000E+00  0.22132952751E+03  0.23820434397E+03  0.88059921289E+02 0.  0.
    9000005    2    3    3    0    0 -0.23854464102E+02  0.21519893954E+02  0.31341062882E+02  0.45518698459E+02  0.75860657432E+01 0.  0.
         22    1    3    3    0    0  0.23854464102E+02 -0.21519893954E+02  0.18998846463E+03  0.19268564551E+03  0.00000000000E+00 0.  1.
         22    1    4    4    0    0 -0.15625112434E+02  0.12756952428E+02  0.14564902392E+02  0.24880119685E+02  0.00000000000E+00 0. -1.
         22    1    4    4    0    0 -0.82293516689E+01  0.87629415252E+01  0.16776160489E+02  0.20638578774E+02  0.00000000000E+00 0. -1.
<mgrwt>
<rscale>  0 0.88059921E+02</rscale>
<asrwt>0</asrwt>
<pdfrwt beam="2">  1        2 0.12980630E-02 0.88059921E+02</pdfrwt>
<pdfrwt beam="1">  1       -2 0.35348754E-01 0.88059921E+02</pdfrwt>
<totfact> 0.63975088E+04</totfact>
</mgrwt>
</event>
<event>
 7    1  0.3960685E-009  0.9145064E+02  0.7818608E-02  0.1299376E+00
         -2   -1    0    0    0  501 -0.00000000000E+00  0.00000000000E+00  0.12417561487E+02  0.12417561749E+02  0.25500000000E-02 0.  1.
          2   -1    0    0  501    0  0.00000000000E+00 -0.00000000000E+00 -0.16837482366E+03  0.16837482368E+03  0.25500000000E-02 0. -1.
         23    2    1    2    0    0 -0.88817841970E-15  0.00000000000E+00 -0.15595726217E+03  0.18079238542E+03  0.91450636981E+02 0.  0.
    9000005    2    3    3    0    0 -0.79531212030E+01 -0.39227688256E+02 -0.11844795297E+03  0.12593792399E+03  0.15112229264E+02 0.  0.
         22    1    3    3    0    0  0.79531212030E+01  0.39227688256E+02 -0.37509309200E+02  0.54854461436E+02  0.00000000000E+00 0. -1.
         22    1    4    4    0    0  0.35215881559E+01 -0.19857467532E+02 -0.60332933787E+02  0.63614334071E+02  0.00000000000E+00 0.  1.
         22    1    4    4    0    0 -0.11474709359E+02 -0.19370220724E+02 -0.58115019182E+02  0.62323589918E+02  0.00000000000E+00 0.  1.
<mgrwt>
<rscale>  0 0.91450637E+02</rscale>
<asrwt>0</asrwt>
<pdfrwt beam="2">  1        2 0.25903817E-01 0.91450637E+02</pdfrwt>
<pdfrwt beam="1">  1       -2 0.19103942E-02 0.91450637E+02</pdfrwt>
<totfact> 0.14431319E+05</totfact>
</mgrwt>
</event>
<event>
 7    1  0.3960685E-009  0.8866915E+02  0.7818608E-02  0.1306107E+00
          2   -1    0    0  501    0  0.00000000000E+00  0.00000000000E+00  0.13305115916E+04  0.13305115916E+04  0.25500000000E-02 0. -1.
         -2   -1    0    0    0  501 -0.00000000000E+00 -0.00000000000E+00 -0.14772910632E+01  0.14772932640E+01  0.25500000000E-02 0.  1.
         23    2    1    2    0    0  0.17763568394E-14 -0.17763568394E-14  0.13290343005E+04  0.13319888849E+04  0.88669145730E+02 0.  0.
    9000005    2    3    3    0    0  0.10043071428E+02  0.14374632913E+02  0.12758787347E+04  0.12760156097E+04  0.64650714556E+01 0.  0.
         22    1    3    3    0    0 -0.10043071428E+02 -0.14374632913E+02  0.53155565862E+02  0.55973275205E+02  0.00000000000E+00 0.  1.
         22    1    4    4    0    0  0.98037547707E+01  0.15055877087E+02  0.12242329256E+04  0.12243647533E+04  0.00000000000E+00 0.  1.
         22    1    4    4    0    0  0.23931665746E+00 -0.68124417400E+00  0.51645809119E+02  0.51650856388E+02  0.00000000000E+00 0.  1.
<mgrwt>
<rscale>  0 0.88669146E+02</rscale>
<asrwt>0</asrwt>
<pdfrwt beam="1">  1        2 0.20469534E+00 0.88669146E+02</pdfrwt>
<pdfrwt beam="2">  1       -2 0.22727433E-03 0.88669146E+02</pdfrwt>
<totfact> 0.26312592E+05</totfact>
</mgrwt>
</event>
<event>
 7    1  0.3960685E-009  0.9262019E+02  0.7818608E-02  0.1296628E+00
          2   -1    0    0  501    0  0.00000000000E+00  0.00000000000E+00  0.19924646966E+03  0.19924646967E+03  0.25500000000E-02 0. -1.
         -2   -1    0    0    0  501 -0.00000000000E+00 -0.00000000000E+00 -0.10763679074E+02  0.10763679376E+02  0.25500000000E-02 0.  1.
         23    2    1    2    0    0  0.71054273576E-14  0.35527136788E-14  0.18848279058E+03  0.21001014905E+03  0.92620194114E+02 0.  0.
    9000005    2    3    3    0    0  0.30902653600E+02  0.21419672208E+02  0.40022751806E+02  0.56862640187E+02  0.14756789282E+02 0.  0.
         22    1    3    3    0    0 -0.30902653600E+02 -0.21419672208E+02  0.14846003878E+03  0.15314750886E+03  0.00000000000E+00 0. -1.
         22    1    4    4    0    0  0.17139395427E+01  0.81475151863E+01  0.84797018548E+01  0.11883809827E+02  0.00000000000E+00 0. -1.
         22    1    4    4    0    0  0.29188714057E+02  0.13272157022E+02  0.31543049951E+02  0.44978830360E+02  0.00000000000E+00 0. -1.
<mgrwt>
<rscale>  0 0.92620194E+02</rscale>
<asrwt>0</asrwt>
<pdfrwt beam="1">  1        2 0.30653305E-01 0.92620194E+02</pdfrwt>
<pdfrwt beam="2">  1       -2 0.16559506E-02 0.92620194E+02</pdfrwt>
<totfact> 0.14806160E+05</totfact>
</mgrwt>
</event>
<event>
 7    1  0.3960685E-009  0.9160980E+02  0.7818608E-02  0.1298999E+00
          2   -1    0    0  501    0  0.00000000000E+00  0.00000000000E+00  0.77495993013E+02  0.77495993055E+02  0.25500000000E-02 0. -1.
         -2   -1    0    0    0  501 -0.00000000000E+00 -0.00000000000E+00 -0.27073515946E+02  0.27073516066E+02  0.25500000000E-02 0.  1.
         23    2    1    2    0    0  0.00000000000E+00  0.00000000000E+00  0.50422477068E+02  0.10456950912E+03  0.91609803210E+02 0.  0.
    9000005    2    3    3    0    0  0.11665905817E+02  0.38798705309E+02  0.47726954518E+02  0.63965337735E+02  0.13125141973E+02 0.  0.
         22    1    3    3    0    0 -0.11665905817E+02 -0.38798705309E+02  0.26955225492E+01  0.40604171386E+02  0.00000000000E+00 0.  1.
         22    1    4    4    0    0  0.97453809228E+01  0.27303268329E+02  0.41856250759E+02  0.50915485251E+02  0.00000000000E+00 0.  1.
         22    1    4    4    0    0  0.19205248939E+01  0.11495436980E+02  0.58707037594E+01  0.13049852484E+02  0.00000000000E+00 0.  1.
<mgrwt>
<rscale>  0 0.91609803E+02</rscale>
<asrwt>0</asrwt>
<pdfrwt beam="1">  1        2 0.11922460E-01 0.91609803E+02</pdfrwt>
<pdfrwt beam="2">  1       -2 0.41651565E-02 0.91609803E+02</pdfrwt>
<totfact> 0.11232700E+05</totfact>
</mgrwt>
</event>
<event>
 7    1  0.3960685E-009  0.8549894E+02  0.7818608E-02  0.1314133E+00
         -2   -1    0    0    0  501 -0.00000000000E+00  0.00000000000E+00  0.46027454095E+01  0.46027461159E+01  0.25500000000E-02 0.  1.
          2   -1    0    0  501    0  0.00000000000E+00 -0.00000000000E+00 -0.39704937491E+03  0.39704937492E+03  0.25500000000E-02 0. -1.
         23    2    1    2    0    0  0.00000000000E+00  0.71054273576E-14 -0.39244662950E+03  0.40165212103E+03  0.85498943414E+02 0.  0.
    9000005    2    3    3    0    0  0.34633541686E+01  0.41675539285E+02 -0.18026803834E+03  0.18539163009E+03  0.11164473271E+02 0.  0.
         22    1    3    3    0    0 -0.34633541686E+01 -0.41675539285E+02 -0.21217859116E+03  0.21626049094E+03  0.00000000000E+00 0.  1.
         22    1    4    4    0    0  0.47967714717E+01  0.25849505270E+02 -0.90998392857E+02  0.94720184975E+02  0.00000000000E+00 0.  1.
         22    1    4    4    0    0 -0.13334173032E+01  0.15826034016E+02 -0.89269645486E+02  0.90671445117E+02  0.00000000000E+00 0.  1.
<mgrwt>
<rscale>  0 0.85498943E+02</rscale>
<asrwt>0</asrwt>
<pdfrwt beam="2">  1        2 0.61084492E-01 0.85498943E+02</pdfrwt>
<pdfrwt beam="1">  1       -2 0.70811504E-03 0.85498943E+02</pdfrwt>
<totfact> 0.23600622E+05</totfact>
</mgrwt>
</event>
<event>
 7    1  0.3960685E-009  0.8802702E+02  0.7818608E-02  0.1307701E+00
         -2   -1    0    0    0  501 -0.00000000000E+00  0.00000000000E+00  0.81073947376E+01  0.81073951386E+01  0.25500000000E-02 0.  1.
          2   -1    0    0  501    0  0.00000000000E+00 -0.00000000000E+00 -0.23894099987E+03  0.23894099988E+03  0.25500000000E-02 0. -1.
         23    2    1    2    0    0  0.00000000000E+00 -0.88817841970E-15 -0.23083360513E+03  0.24704839502E+03  0.88027019855E+02 0.  0.
    9000005    2    3    3    0    0  0.26617126176E+02  0.31160488643E+01 -0.21277115294E+03  0.21473070102E+03  0.10932944262E+02 0.  0.
         22    1    3    3    0    0 -0.26617126176E+02 -0.31160488643E+01 -0.18062452190E+02  0.32317694001E+02  0.00000000000E+00 0.  1.
         22    1    4    4    0    0  0.15646554677E+02 -0.13597883050E+01 -0.87311813350E+02  0.88713113168E+02  0.00000000000E+00 0.  1.
         22    1    4    4    0    0  0.10970571499E+02  0.44758371693E+01 -0.12545933959E+03  0.12601758785E+03  0.00000000000E+00 0.  1.
<mgrwt>
<rscale>  0 0.88027020E+02</rscale>
<asrwt>0</asrwt>
<pdfrwt beam="2">  1        2 0.36760148E-01 0.88027020E+02</pdfrwt>
<pdfrwt beam="1">  1       -2 0.12472917E-02 0.88027020E+02</pdfrwt>
<totfact> 0.18134690E+05</totfact>
</mgrwt>
</event>
<event>
 7    1  0.3960685E-009  0.9279838E+02  0.7818608E-02  0.1296213E+00
         -2   -1    0    0    0  501 -0.00000000000E+00  0.00000000000E+00  0.22735445482E+01  0.22735459782E+01  0.25500000000E-02 0.  1.
          2   -1    0    0  501    0  0.00000000000E+00 -0.00000000000E+00 -0.94692858741E+03  0.94692858742E+03  0.25500000000E-02 0. -1.
         23    2    1    2    0    0  0.35527136788E-14 -0.35527136788E-14 -0.94465504286E+03  0.94920213339E+03  0.92798383773E+02 0.  0.
    9000005    2    3    3    0    0 -0.24538433578E+02  0.31543886437E+02 -0.71243636197E+03  0.71356964995E+03  0.43501712875E+01 0.  0.
         22    1    3    3    0    0  0.24538433578E+02 -0.31543886437E+02 -0.23221868090E+03  0.23563248344E+03  0.00000000000E+00 0.  1.
         22    1    4    4    0    0 -0.13217807508E+02  0.16408223268E+02 -0.33730301622E+03  0.33796044883E+03  0.00000000000E+00 0.  1.
         22    1    4    4    0    0 -0.11320626070E+02  0.15135663169E+02 -0.37513334575E+03  0.37560920112E+03  0.00000000000E+00 0.  1.
<mgrwt>
<rscale>  0 0.92798384E+02</rscale>
<asrwt>0</asrwt>
<pdfrwt beam="2">  1        2 0.14568101E+00 0.92798384E+02</pdfrwt>
<pdfrwt beam="1">  1       -2 0.34977695E-03 0.92798384E+02</pdfrwt>
<totfact> 0.23785183E+05</totfact>
</mgrwt>
</event>
<event>
 7    1  0.3960685E-009  0.9503782E+02  0.7818608E-02  0.1291091E+00
         -2   -1    0    0    0  501 -0.00000000000E+00  0.00000000000E+00  0.57088781711E+02  0.57088781768E+02  0.25500000000E-02 0.  1.
          2   -1    0    0  501    0  0.00000000000E+00 -0.00000000000E+00 -0.39553249751E+02  0.39553249834E+02  0.25500000000E-02 0. -1.
         23    2    1    2    0    0  0.35527136788E-14  0.35527136788E-14  0.17535531960E+02  0.96642031602E+02  0.95037820845E+02 0.  0.
    9000005    2    3    3    0    0 -0.21080161469E+02 -0.21988165810E+02 -0.27203442138E+02  0.42517836952E+02  0.11827364527E+02 0.  0.
         22    1    3    3    0    0  0.21080161469E+02  0.21988165810E+02  0.44738974098E+02  0.54124194650E+02  0.00000000000E+00 0.  1.
         22    1    4    4    0    0 -0.32442057139E+01  0.99093565499E+00 -0.44027324852E+01  0.55579562362E+01  0.00000000000E+00 0. -1.
         22    1    4    4    0    0 -0.17835955755E+02 -0.22979101465E+02 -0.22800709653E+02  0.36959880715E+02  0.00000000000E+00 0. -1.
<mgrwt>
<rscale>  0 0.95037821E+02</rscale>
<asrwt>0</asrwt>
<pdfrwt beam="2">  1        2 0.60851154E-02 0.95037821E+02</pdfrwt>
<pdfrwt beam="1">  1       -2 0.87828895E-02 0.95037821E+02</pdfrwt>
<totfact> 0.84281114E+04</totfact>
</mgrwt>
</event>
<event>
 7    1  0.3960685E-009  0.9086459E+02  0.7818608E-02  0.1300771E+00
          2   -1    0    0  501    0  0.00000000000E+00  0.00000000000E+00  0.51078462929E+02  0.51078462992E+02  0.25500000000E-02 0. -1.
         -2   -1    0    0    0  501 -0.00000000000E+00 -0.00000000000E+00 -0.40410253110E+02  0.40410253190E+02  0.25500000000E-02 0.  1.
         23    2    1    2    0    0  0.00000000000E+00  0.00000000000E+00  0.10668209819E+02  0.91488716183E+02  0.90864594249E+02 0.  0.
    9000005    2    3    3    0    0 -0.39342414568E+02 -0.12099308330E+02 -0.11977474458E+02  0.44509509480E+02  0.11975712657E+02 0.  0.
         22    1    3    3    0    0  0.39342414568E+02  0.12099308330E+02  0.22645684277E+02  0.46979206703E+02  0.00000000000E+00 0. -1.
         22    1    4    4    0    0 -0.12069907313E+02  0.10586380020E+01 -0.64580462620E+01  0.13729884868E+02  0.00000000000E+00 0.  1.
         22    1    4    4    0    0 -0.27272507255E+02 -0.13157946332E+02 -0.55194281957E+01  0.30779624612E+02  0.00000000000E+00 0.  1.
<mgrwt>
<rscale>  0 0.90864594E+02</rscale>
<asrwt>0</asrwt>
<pdfrwt beam="1">  1        2 0.78582251E-02 0.90864594E+02</pdfrwt>
<pdfrwt beam="2">  1       -2 0.62169620E-02 0.90864594E+02</pdfrwt>
<totfact> 0.10264104E+05</totfact>
</mgrwt>
</event>
<event>
 7    1  0.3960685E-009  0.8816263E+02  0.7818608E-02  0.1307363E+00
          2   -1    0    0  501    0  0.00000000000E+00  0.00000000000E+00  0.15928713808E+02  0.15928714012E+02  0.25500000000E-02 0. -1.
         -2   -1    0    0    0  501 -0.00000000000E+00 -0.00000000000E+00 -0.12199115852E+03  0.12199115854E+03  0.25500000000E-02 0.  1.
         23    2    1    2    0    0  0.00000000000E+00  0.00000000000E+00 -0.10606244471E+03  0.13791987256E+03  0.88162628524E+02 0.  0.
    9000005    2    3    3    0    0 -0.22603183707E+02 -0.37079616153E+02 -0.62458847323E+02  0.76380652925E+02  0.68625567116E+01 0.  0.
         22    1    3    3    0    0  0.22603183707E+02  0.37079616153E+02 -0.43603597386E+02  0.61539219631E+02  0.00000000000E+00 0. -1.
         22    1    4    4    0    0 -0.31971715156E+01 -0.11011738415E+02 -0.16212549328E+02  0.19857669660E+02  0.00000000000E+00 0. -1.
         22    1    4    4    0    0 -0.19406012191E+02 -0.26067877738E+02 -0.46246297995E+02  0.56522983265E+02  0.00000000000E+00 0. -1.
<mgrwt>
<rscale>  0 0.88162629E+02</rscale>
<asrwt>0</asrwt>
<pdfrwt beam="1">  1        2 0.24505715E-02 0.88162629E+02</pdfrwt>
<pdfrwt beam="2">  1       -2 0.18767870E-01 0.88162629E+02</pdfrwt>
<totfact> 0.81617330E+04</totfact>
</mgrwt>
</event>
<event>
 7    1  0.3960685E-009  0.8972111E+02  0.7818608E-02  0.1303528E+00
          2   -1    0    0  501    0  0.00000000000E+00  0.00000000000E+00  0.81888105372E+03  0.81888105373E+03  0.25500000000E-02 0. -1.
         -2   -1    0    0    0  501 -0.00000000000E+00 -0.00000000000E+00 -0.24575838607E+01  0.24575851836E+01  0.25500000000E-02 0.  1.
         23    2    1    2    0    0  0.44408920985E-15  0.00000000000E+00  0.81642346986E+03  0.82133863891E+03  0.89721110256E+02 0.  0.
    9000005    2    3    3    0    0  0.28804104655E+01 -0.26666540123E+02  0.73672490529E+03  0.73724784084E+03  0.71687942083E+01 0.  0.
         22    1    3    3    0    0 -0.28804104655E+01  0.26666540123E+02  0.79698564568E+02  0.84090798074E+02  0.00000000000E+00 0.  1.
         22    1    4    4    0    0  0.98485692712E+00 -0.16727071443E+02  0.54343790410E+03  0.54369616559E+03  0.00000000000E+00 0. -1.
         22    1    4    4    0    0  0.18955535384E+01 -0.99394686798E+01  0.19328700119E+03  0.19355167525E+03  0.00000000000E+00 0. -1.
<mgrwt>
<rscale>  0 0.89721110E+02</rscale>
<asrwt>0</asrwt>
<pdfrwt beam="1">  1        2 0.12598164E+00 0.89721110E+02</pdfrwt>
<pdfrwt beam="2">  1       -2 0.37809011E-03 0.89721110E+02</pdfrwt>
<totfact> 0.25529864E+05</totfact>
</mgrwt>
</event>
<event>
 7    1  0.3960685E-009  0.9227305E+02  0.7818608E-02  0.1297439E+00
          2   -1    0    0  501    0  0.00000000000E+00  0.00000000000E+00  0.11205579330E+03  0.11205579333E+03  0.25500000000E-02 0. -1.
         -2   -1    0    0    0  501 -0.00000000000E+00 -0.00000000000E+00 -0.18995704602E+02  0.18995704773E+02  0.25500000000E-02 0.  1.
         23    2    1    2    0    0  0.35527136788E-14  0.00000000000E+00  0.93060088702E+02  0.13105149811E+03  0.92273046154E+02 0.  0.
    9000005    2    3    3    0    0  0.19574590246E+02 -0.38958008125E+02  0.28465841551E+02  0.53120068340E+02  0.10514111703E+02 0.  0.
         22    1    3    3    0    0 -0.19574590246E+02  0.38958008125E+02  0.64594247151E+02  0.77931429766E+02  0.00000000000E+00 0.  1.
         22    1    4    4    0    0  0.12758691097E+01 -0.12864631472E+02  0.93777473007E+01  0.15970871277E+02  0.00000000000E+00 0.  1.
         22    1    4    4    0    0  0.18298721136E+02 -0.26093376653E+02  0.19088094250E+02  0.37149197063E+02  0.00000000000E+00 0.  1.
<mgrwt>
<rscale>  0 0.92273046E+02</rscale>
<asrwt>0</asrwt>
<pdfrwt beam="1">  1        2 0.17239353E-01 0.92273046E+02</pdfrwt>
<pdfrwt beam="2">  1       -2 0.29224161E-02 0.92273046E+02</pdfrwt>
<totfact> 0.12297136E+05</totfact>
</mgrwt>
</event>
<event>
 7    1  0.3960685E-009  0.9396969E+02  0.7818608E-02  0.1293514E+00
          2   -1    0    0  501    0  0.00000000000E+00  0.00000000000E+00  0.17245195423E+03  0.17245195425E+03  0.25500000000E-02 0. -1.
         -2   -1    0    0    0  501 -0.00000000000E+00 -0.00000000000E+00 -0.12801104112E+02  0.12801104366E+02  0.25500000000E-02 0.  1.
         23    2    1    2    0    0  0.00000000000E+00  0.00000000000E+00  0.15965085012E+03  0.18525305861E+03  0.93969685444E+02 0.  0.
    9000005    2    3    3    0    0  0.32180351365E+02  0.14352662161E+02  0.24797582103E+02  0.45872364760E+02  0.15741024282E+02 0.  0.
         22    1    3    3    0    0 -0.32180351365E+02 -0.14352662161E+02  0.13485326801E+03  0.13938069385E+03  0.00000000000E+00 0. -1.
         22    1    4    4    0    0  0.31801244474E+02  0.97321323003E+01  0.24342625558E+02  0.41214038485E+02  0.00000000000E+00 0.  1.
         22    1    4    4    0    0  0.37910689067E+00  0.46205298605E+01  0.45495654546E+00  0.46583262750E+01  0.00000000000E+00 0.  1.
<mgrwt>
<rscale>  0 0.93969685E+02</rscale>
<asrwt>0</asrwt>
<pdfrwt beam="1">  1        2 0.26531070E-01 0.93969685E+02</pdfrwt>
<pdfrwt beam="2">  1       -2 0.19694007E-02 0.93969685E+02</pdfrwt>
<totfact> 0.13519376E+05</totfact>
</mgrwt>
</event>
<event>
 7    1  0.3960685E-009  0.8837469E+02  0.7818608E-02  0.1306836E+00
         -2   -1    0    0    0  501 -0.00000000000E+00  0.00000000000E+00  0.27040523730E+03  0.27040523731E+03  0.25500000000E-02 0.  1.
          2   -1    0    0  501    0  0.00000000000E+00 -0.00000000000E+00 -0.72207237286E+01  0.72207241788E+01  0.25500000000E-02 0. -1.
         23    2    1    2    0    0  0.00000000000E+00  0.00000000000E+00  0.26318451357E+03  0.27762596149E+03  0.88374692700E+02 0.  0.
    9000005    2    3    3    0    0  0.41545228469E+02 -0.87346758542E+01  0.93335995880E+02  0.10255220694E+03  0.17454083789E+01 0.  0.
         22    1    3    3    0    0 -0.41545228469E+02  0.87346758542E+01  0.16984851769E+03  0.17507375455E+03  0.00000000000E+00 0. -1.
         22    1    4    4    0    0  0.94681510950E+01 -0.12794988551E+01  0.20473095648E+02  0.22592712274E+02  0.00000000000E+00 0. -1.
         22    1    4    4    0    0  0.32077077374E+02 -0.74551769992E+01  0.72862900233E+02  0.79959494666E+02  0.00000000000E+00 0. -1.
<mgrwt>
<rscale>  0 0.88374693E+02</rscale>
<asrwt>0</asrwt>
<pdfrwt beam="2">  1        2 0.11108805E-02 0.88374693E+02</pdfrwt>
<pdfrwt beam="1">  1       -2 0.41600811E-01 0.88374693E+02</pdfrwt>
<totfact> 0.58466249E+04</totfact>
</mgrwt>
</event>
<event>
 7    1  0.3960685E-009  0.9387257E+02  0.7818608E-02  0.1293736E+00
          2   -1    0    0  501    0  0.00000000000E+00  0.00000000000E+00  0.96389224944E+01  0.96389228317E+01  0.25500000000E-02 0. -1.
         -2   -1    0    0    0  501 -0.00000000000E+00 -0.00000000000E+00 -0.22855404706E+03  0.22855404708E+03  0.25500000000E-02 0.  1.
         23    2    1    2    0    0  0.71054273576E-14  0.00000000000E+00 -0.21891512457E+03  0.23819296991E+03  0.93872568672E+02 0.  0.
    9000005    2    3    3    0    0  0.37496650640E+02 -0.20394791847E+02 -0.15474892877E+03  0.16112645950E+03  0.13876550407E+02 0.  0.
         22    1    3    3    0    0 -0.37496650640E+02  0.20394791847E+02 -0.64166195800E+02  0.77066510413E+02  0.00000000000E+00 0.  1.
         22    1    4    4    0    0  0.49755574442E+01  0.55496078425E-01 -0.79064118590E+01  0.93418734833E+01  0.00000000000E+00 0.  1.
         22    1    4    4    0    0  0.32521093196E+02 -0.20450287925E+02 -0.14684251691E+03  0.15178458601E+03  0.00000000000E+00 0.  1.
<mgrwt>
<rscale>  0 0.93872569E+02</rscale>
<asrwt>0</asrwt>
<pdfrwt beam="1">  1        2 0.14829114E-02 0.93872569E+02</pdfrwt>
<pdfrwt beam="2">  1       -2 0.35162157E-01 0.93872569E+02</pdfrwt>
<totfact> 0.54448536E+04</totfact>
</mgrwt>
</event>
<event>
 7    1  0.3960685E-009  0.9345381E+02  0.7818608E-02  0.1294697E+00
         -2   -1    0    0    0  501 -0.00000000000E+00  0.00000000000E+00  0.47145131300E+02  0.47145131369E+02  0.25500000000E-02 0.  1.
          2   -1    0    0  501    0  0.00000000000E+00 -0.00000000000E+00 -0.46312391993E+02  0.46312392063E+02  0.25500000000E-02 0. -1.
         23    2    1    2    0    0 -0.88817841970E-15  0.00000000000E+00  0.83273930746E+00  0.93457523432E+02  0.93453813359E+02 0.  0.
    9000005    2    3    3    0    0  0.71124151217E+01 -0.84032868257E+01  0.44811381104E+02  0.48121857421E+02  0.13654728369E+02 0.  0.
         22    1    3    3    0    0 -0.71124151217E+01  0.84032868257E+01 -0.43978641797E+02  0.45335666011E+02  0.00000000000E+00 0. -1.
         22    1    4    4    0    0 -0.10869646161E+01 -0.60044951755E+01  0.32914512143E+02  0.33475372500E+02  0.00000000000E+00 0.  1.
         22    1    4    4    0    0  0.81993797378E+01 -0.23987916501E+01  0.11896868961E+02  0.14646484921E+02  0.00000000000E+00 0.  1.
<mgrwt>
<rscale>  0 0.93453813E+02</rscale>
<asrwt>0</asrwt>
<pdfrwt beam="2">  1        2 0.71249834E-02 0.93453813E+02</pdfrwt>
<pdfrwt beam="1">  1       -2 0.72530971E-02 0.93453813E+02</pdfrwt>
<totfact> 0.92292775E+04</totfact>
</mgrwt>
</event>
<event>
 7    1  0.3960685E-009  0.9070610E+02  0.7818608E-02  0.1301151E+00
          2   -1    0    0  501    0  0.00000000000E+00  0.00000000000E+00  0.14215411689E+03  0.14215411691E+03  0.25500000000E-02 0. -1.
         -2   -1    0    0    0  501 -0.00000000000E+00 -0.00000000000E+00 -0.14469499373E+02  0.14469499598E+02  0.25500000000E-02 0.  1.
         23    2    1    2    0    0  0.00000000000E+00  0.00000000000E+00  0.12768461752E+03  0.15662361651E+03  0.90706095155E+02 0.  0.
    9000005    2    3    3    0    0 -0.22352051976E+01  0.42398764298E+02  0.45856782278E+02  0.64436600200E+02  0.15702853506E+02 0.  0.
         22    1    3    3    0    0  0.22352051976E+01 -0.42398764298E+02  0.81827835240E+02  0.92187016311E+02  0.00000000000E+00 0. -1.
         22    1    4    4    0    0 -0.17484478127E+01  0.12066591452E+02  0.41820004690E+01  0.12889873038E+02  0.00000000000E+00 0. -1.
         22    1    4    4    0    0 -0.48675738492E+00  0.30332172846E+02  0.41674781809E+02  0.51546727162E+02  0.00000000000E+00 0. -1.
<mgrwt>
<rscale>  0 0.90706095E+02</rscale>
<asrwt>0</asrwt>
<pdfrwt beam="1">  1        2 0.21869863E-01 0.90706095E+02</pdfrwt>
<pdfrwt beam="2">  1       -2 0.22260770E-02 0.90706095E+02</pdfrwt>
<totfact> 0.13923857E+05</totfact>
</mgrwt>
</event>
<event>
 7    1  0.3960685E-009  0.9161856E+02  0.7818608E-02  0.1298979E+00
          2   -1    0    0  501    0  0.00000000000E+00  0.00000000000E+00  0.17583312142E+03  0.17583312144E+03  0.25500000000E-02 0. -1.
         -2   -1    0    0    0  501 -0.00000000000E+00 -0.00000000000E+00 -0.11934554517E+02  0.11934554789E+02  0.25500000000E-02 0.  1.
         23    2    1    2    0    0  0.00000000000E+00  0.00000000000E+00  0.16389856691E+03  0.18776767623E+03  0.91618557089E+02 0.  0.
    9000005    2    3    3    0    0 -0.36474494279E+02 -0.13088589719E+02  0.13056027633E+03  0.13664878019E+03  0.11189435142E+02 0.  0.
         22    1    3    3    0    0  0.36474494279E+02  0.13088589719E+02  0.33338290579E+02  0.51118896041E+02  0.00000000000E+00 0. -1.
         22    1    4    4    0    0 -0.22405527806E+02 -0.26878537525E+01  0.65562053377E+02  0.69336967608E+02  0.00000000000E+00 0.  1.
         22    1    4    4    0    0 -0.14068966473E+02 -0.10400735967E+02  0.64998222951E+02  0.67311812582E+02  0.00000000000E+00 0.  1.
<mgrwt>
<rscale>  0 0.91618557E+02</rscale>
<asrwt>0</asrwt>
<pdfrwt beam="1">  1        2 0.27051249E-01 0.91618557E+02</pdfrwt>
<pdfrwt beam="2">  1       -2 0.18360854E-02 0.91618557E+02</pdfrwt>
<totfact> 0.14579859E+05</totfact>
</mgrwt>
</event>
<event>
 7    1  0.3960685E-009  0.9219890E+02  0.7818608E-02  0.1297612E+00
          2   -1    0    0  501    0  0.00000000000E+00  0.00000000000E+00  0.39860457581E+02  0.39860457663E+02  0.25500000000E-02 0. -1.
         -2   -1    0    0    0  501 -0.00000000000E+00 -0.00000000000E+00 -0.53314974823E+02  0.53314974884E+02  0.25500000000E-02 0.  1.
         23    2    1    2    0    0 -0.35527136788E-14  0.17763568394E-14 -0.13454517241E+02  0.93175432546E+02  0.92198900189E+02 0.  0.
    9000005    2    3    3    0    0 -0.18037984857E+02  0.12138296998E+02  0.33575520011E+02  0.41362967293E+02  0.10529594843E+02 0.  0.
         22    1    3    3    0    0  0.18037984857E+02 -0.12138296998E+02 -0.47030037252E+02  0.51812465254E+02  0.00000000000E+00 0.  1.
         22    1    4    4    0    0 -0.22727151378E+01 -0.16788689031E+01  0.19984681027E+01  0.34608827846E+01  0.00000000000E+00 0.  1.
         22    1    4    4    0    0 -0.15765269719E+02  0.13817165901E+02  0.31577051908E+02  0.37902084508E+02  0.00000000000E+00 0.  1.
<mgrwt>
<rscale>  0 0.92198900E+02</rscale>
<asrwt>0</asrwt>
<pdfrwt beam="1">  1        2 0.61323781E-02 0.92198900E+02</pdfrwt>
<pdfrwt beam="2">  1       -2 0.82023038E-02 0.92198900E+02</pdfrwt>
<totfact> 0.92266797E+04</totfact>
</mgrwt>
</event>
<event>
 7    1  0.3960685E-009  0.8968206E+02  0.7818608E-02  0.1303623E+00
          2   -1    0    0  501    0  0.00000000000E+00  0.00000000000E+00  0.13146420533E+03  0.13146420536E+03  0.25500000000E-02 0. -1.
         -2   -1    0    0    0  501 -0.00000000000E+00 -0.00000000000E+00 -0.15294792636E+02  0.15294792848E+02  0.25500000000E-02 0.  1.
         23    2    1    2    0    0  0.00000000000E+00  0.00000000000E+00  0.11616941270E+03  0.14675899821E+03  0.89682055664E+02 0.  0.
    9000005    2    3    3    0    0 -0.21472441939E+02  0.37020125823E+02  0.75504676660E+02  0.87723616987E+02  0.12764062873E+02 0.  0.
         22    1    3    3    0    0  0.21472441939E+02 -0.37020125823E+02  0.40664736038E+02  0.59035381220E+02  0.00000000000E+00 0.  1.
         22    1    4    4    0    0 -0.46466437194E+01  0.41561190647E+01  0.44837167164E+01  0.76790845241E+01  0.00000000000E+00 0.  1.
         22    1    4    4    0    0 -0.16825798219E+02  0.32864006758E+02  0.71020959943E+02  0.80044532463E+02  0.00000000000E+00 0.  1.
<mgrwt>
<rscale>  0 0.89682056E+02</rscale>
<asrwt>0</asrwt>
<pdfrwt beam="1">  1        2 0.20225262E-01 0.89682056E+02</pdfrwt>
<pdfrwt beam="2">  1       -2 0.23530451E-02 0.89682056E+02</pdfrwt>
<totfact> 0.13992528E+05</totfact>
</mgrwt>
</event>
<event>
 7    1  0.3960685E-009  0.9599651E+02  0.7818608E-02  0.1288947E+00
         -2   -1    0    0    0  501 -0.00000000000E+00  0.00000000000E+00  0.82867345099E+01  0.82867349022E+01  0.25500000000E-02 0. -1.
          2   -1    0    0  501    0  0.00000000000E+00 -0.00000000000E+00 -0.27801448528E+03  0.27801448529E+03  0.25500000000E-02 0.  1.
         23    2    1    2    0    0 -0.35527136788E-14  0.00000000000E+00 -0.26972775077E+03  0.28630122020E+03  0.95996505921E+02 0.  0.
    9000005    2    3    3    0    0 -0.28611164995E+02 -0.15780118901E+02 -0.23955816360E+03  0.24182858923E+03  0.50340744872E+01 0.  0.
         22    1    3    3    0    0  0.28611164995E+02  0.15780118901E+02 -0.30169587168E+02  0.44472630963E+02  0.00000000000E+00 0. -1.
         22    1    4    4    0    0 -0.60396358629E+01 -0.21272812127E+01 -0.35562465729E+02  0.36134353397E+02  0.00000000000E+00 0. -1.
         22    1    4    4    0    0 -0.22571529132E+02 -0.13652837689E+02 -0.20399569788E+03  0.20569423584E+03  0.00000000000E+00 0. -1.
<mgrwt>
<rscale>  0 0.95996506E+02</rscale>
<asrwt>0</asrwt>
<pdfrwt beam="2">  1        2 0.42771452E-01 0.95996506E+02</pdfrwt>
<pdfrwt beam="1">  1       -2 0.12748825E-02 0.95996506E+02</pdfrwt>
<totfact> 0.15210372E+05</totfact>
</mgrwt>
</event>
<event>
 7    1  0.3960685E-009  0.9260435E+02  0.7818608E-02  0.1296665E+00
          2   -1    0    0  501    0  0.00000000000E+00  0.00000000000E+00  0.19902952641E+03  0.19902952642E+03  0.25500000000E-02 0.  1.
         -2   -1    0    0    0  501 -0.00000000000E+00 -0.00000000000E+00 -0.10771725358E+02  0.10771725660E+02  0.25500000000E-02 0. -1.
         23    2    1    2    0    0  0.00000000000E+00  0.00000000000E+00  0.18825780105E+03  0.20980125208E+03  0.92604350437E+02 0.  0.
    9000005    2    3    3    0    0 -0.10250136595E+02  0.32974008356E+02  0.16277764362E+03  0.16688751361E+03  0.12748741442E+02 0.  0.
         22    1    3    3    0    0  0.10250136595E+02 -0.32974008356E+02  0.25480157427E+02  0.42913738474E+02  0.00000000000E+00 0. -1.
         22    1    4    4    0    0 -0.10295307080E+02  0.17458712553E+02  0.72212949549E+02  0.75003400419E+02  0.00000000000E+00 0. -1.
         22    1    4    4    0    0  0.45170484883E-01  0.15515295803E+02  0.90564694074E+02  0.91884113191E+02  0.00000000000E+00 0. -1.
<mgrwt>
<rscale>  0 0.92604350E+02</rscale>
<asrwt>0</asrwt>
<pdfrwt beam="1">  1        2 0.30619927E-01 0.92604350E+02</pdfrwt>
<pdfrwt beam="2">  1       -2 0.16571885E-02 0.92604350E+02</pdfrwt>
<totfact> 0.14807151E+05</totfact>
</mgrwt>
</event>
<event>
 7    1  0.3960685E-009  0.9440237E+02  0.7818608E-02  0.1292528E+00
          2   -1    0    0  501    0  0.00000000000E+00  0.00000000000E+00  0.48499734282E+03  0.48499734283E+03  0.25500000000E-02 0. -1.
         -2   -1    0    0    0  501 -0.00000000000E+00 -0.00000000000E+00 -0.45937395871E+01  0.45937402948E+01  0.25500000000E-02 0.  1.
         23    2    1    2    0    0  0.00000000000E+00  0.00000000000E+00  0.48040360323E+03  0.48959108312E+03  0.94402365823E+02 0.  0.
    9000005    2    3    3    0    0 -0.22895633154E+02 -0.19891255930E+01  0.45380639966E+03  0.45444029542E+03  0.68968899272E+01 0.  0.
         22    1    3    3    0    0  0.22895633154E+02  0.19891255930E+01  0.26597203571E+02  0.35150787700E+02  0.00000000000E+00 0.  1.
         22    1    4    4    0    0 -0.15688524571E+02 -0.11147312674E+01  0.24269630819E+03  0.24320540791E+03  0.00000000000E+00 0.  1.
         22    1    4    4    0    0 -0.72071085826E+01 -0.87439432558E+00  0.21111009147E+03  0.21123488751E+03  0.00000000000E+00 0.  1.
<mgrwt>
<rscale>  0 0.94402366E+02</rscale>
<asrwt>0</asrwt>
<pdfrwt beam="1">  1        2 0.74614939E-01 0.94402366E+02</pdfrwt>
<pdfrwt beam="2">  1       -2 0.70672957E-03 0.94402366E+02</pdfrwt>
<totfact> 0.19455351E+05</totfact>
</mgrwt>
</event>
<event>
 7    1  0.3960685E-009  0.8976268E+02  0.7818608E-02  0.1303427E+00
          2   -1    0    0  501    0  0.00000000000E+00  0.00000000000E+00  0.51232452879E+03  0.51232452880E+03  0.25500000000E-02 0. -1.
         -2   -1    0    0    0  501 -0.00000000000E+00 -0.00000000000E+00 -0.39317545694E+01  0.39317553964E+01  0.25500000000E-02 0.  1.
         23    2    1    2    0    0  0.00000000000E+00  0.00000000000E+00  0.50839277422E+03  0.51625628419E+03  0.89762676480E+02 0.  0.
    9000005    2    3    3    0    0 -0.40919200957E+02  0.71581479958E+01  0.33952800518E+03  0.34235708836E+03  0.14264976554E+02 0.  0.
         22    1    3    3    0    0  0.40919200957E+02 -0.71581479958E+01  0.16886476904E+03  0.17389919584E+03  0.00000000000E+00 0.  1.
         22    1    4    4    0    0 -0.35313851006E+02  0.93151991212E+01  0.25320014836E+03  0.25582055456E+03  0.00000000000E+00 0. -1.
         22    1    4    4    0    0 -0.56053499507E+01 -0.21570511254E+01  0.86327856824E+02  0.86536533796E+02  0.00000000000E+00 0. -1.
<mgrwt>
<rscale>  0 0.89762676E+02</rscale>
<asrwt>0</asrwt>
<pdfrwt beam="1">  1        2 0.78819157E-01 0.89762676E+02</pdfrwt>
<pdfrwt beam="2">  1       -2 0.60488539E-03 0.89762676E+02</pdfrwt>
<totfact> 0.22635677E+05</totfact>
</mgrwt>
</event>
<event>
 7    1  0.3960685E-009  0.7480853E+02  0.7818608E-02  0.1344465E+00
          2   -1    0    0  501    0  0.00000000000E+00  0.00000000000E+00  0.50199142384E+02  0.50199142448E+02  0.25500000000E-02 0. -1.
         -2   -1    0    0    0  501 -0.00000000000E+00 -0.00000000000E+00 -0.27870575601E+02  0.27870575718E+02  0.25500000000E-02 0.  1.
         23    2    1    2    0    0  0.88817841970E-15  0.00000000000E+00  0.22328566783E+02  0.78069718166E+02  0.74808528925E+02 0.  0.
    9000005    2    3    3    0    0 -0.65574946113E+01 -0.14077929092E+02 -0.22138462560E+02  0.30968704147E+02  0.15091729157E+02 0.  0.
         22    1    3    3    0    0  0.65574946113E+01  0.14077929092E+02  0.44467029342E+02  0.47101014019E+02  0.00000000000E+00 0. -1.
         22    1    4    4    0    0  0.43505355546E+01 -0.69908504738E+01 -0.11611316886E+02  0.14234529489E+02  0.00000000000E+00 0.  1.
         22    1    4    4    0    0 -0.10908030166E+02 -0.70870786179E+01 -0.10527145674E+02  0.16734174658E+02  0.00000000000E+00 0.  1.
<mgrwt>
<rscale>  0 0.74808529E+02</rscale>
<asrwt>0</asrwt>
<pdfrwt beam="1">  1        2 0.77229449E-02 0.74808529E+02</pdfrwt>
<pdfrwt beam="2">  1       -2 0.42877809E-02 0.74808529E+02</pdfrwt>
<totfact> 0.17600430E+05</totfact>
</mgrwt>
</event>
<event>
 7    1  0.3960685E-009  0.9327081E+02  0.7818608E-02  0.1295119E+00
         -2   -1    0    0    0  501 -0.00000000000E+00  0.00000000000E+00  0.50855975653E+03  0.50855975654E+03  0.25500000000E-02 0.  1.
          2   -1    0    0  501    0  0.00000000000E+00 -0.00000000000E+00 -0.42765098185E+01  0.42765105788E+01  0.25500000000E-02 0. -1.
         23    2    1    2    0    0  0.88817841970E-15  0.71054273576E-14  0.50428324672E+03  0.51283626712E+03  0.93270809769E+02 0.  0.
    9000005    2    3    3    0    0  0.46590132910E+01  0.45642209697E+02  0.28119322115E+03  0.28507745342E+03  0.97267217918E+01 0.  0.
         22    1    3    3    0    0 -0.46590132910E+01 -0.45642209697E+02  0.22309002557E+03  0.22775881370E+03  0.00000000000E+00 0. -1.
         22    1    4    4    0    0  0.23650705436E+01  0.34400087387E+01  0.15909644981E+02  0.16448222464E+02  0.00000000000E+00 0.  1.
         22    1    4    4    0    0  0.22939427473E+01  0.42202200959E+02  0.26528357617E+03  0.26862923096E+03  0.00000000000E+00 0.  1.
<mgrwt>
<rscale>  0 0.93270810E+02</rscale>
<asrwt>0</asrwt>
<pdfrwt beam="2">  1        2 0.65792467E-03 0.93270810E+02</pdfrwt>
<pdfrwt beam="1">  1       -2 0.78239960E-01 0.93270810E+02</pdfrwt>
<totfact> 0.33777054E+04</totfact>
</mgrwt>
</event>
<event>
 7    1  0.5741943E-009  0.9144532E+02  0.7818608E-02  0.1299389E+00
         -2   -1    0    0    0  501 -0.00000000000E+00  0.00000000000E+00  0.13172759421E+01  0.13172784102E+01  0.25500000000E-02 0. -1.
          2   -1    0    0  501    0  0.00000000000E+00 -0.00000000000E+00 -0.15870325490E+04  0.15870325490E+04  0.25500000000E-02 0.  1.
         23    2    1    2    0    0  0.00000000000E+00  0.00000000000E+00 -0.15857152731E+04  0.15883498275E+04  0.91445322634E+02 0.  0.
    9000005    2    3    3    0    0 -0.14758448322E+02 -0.15824311804E+02 -0.14898821787E+04  0.14901042035E+04  0.13907202529E+02 0.  0.
         22    1    3    3    0    0  0.14758448322E+02  0.15824311804E+02 -0.95833094371E+02  0.98245623911E+02  0.00000000000E+00 0. -1.
         22    1    4    4    0    0 -0.10242123605E+02 -0.60105631975E+01 -0.11235768807E+04  0.11236396374E+04  0.00000000000E+00 0.  1.
         22    1    4    4    0    0 -0.45163247169E+01 -0.98137486064E+01 -0.36630529802E+03  0.36646456611E+03  0.00000000000E+00 0.  1.
<mgrwt>
<rscale>  0 0.91445323E+02</rscale>
<asrwt>0</asrwt>
<pdfrwt beam="2">  1        2 0.24415732E+00 0.91445323E+02</pdfrwt>
<pdfrwt beam="1">  1       -2 0.20265930E-03 0.91445323E+02</pdfrwt>
<totfact> 0.22865049E+05</totfact>
</mgrwt>
</event>
<event>
 7    1  0.3960685E-009  0.9906335E+02  0.7818608E-02  0.1282278E+00
          2   -1    0    0  501    0  0.00000000000E+00  0.00000000000E+00  0.10617551772E+03  0.10617551775E+03  0.25500000000E-02 0. -1.
         -2   -1    0    0    0  501 -0.00000000000E+00 -0.00000000000E+00 -0.23106899907E+02  0.23106900047E+02  0.25500000000E-02 0.  1.
         23    2    1    2    0    0  0.00000000000E+00  0.00000000000E+00  0.83068617813E+02  0.12928241780E+03  0.99063354911E+02 0.  0.
    9000005    2    3    3    0    0 -0.32541478962E+02 -0.27508434784E+02  0.91454951938E+01  0.43957802973E+02  0.57433894668E+01 0.  0.
         22    1    3    3    0    0  0.32541478962E+02  0.27508434784E+02  0.73923122619E+02  0.85324614825E+02  0.00000000000E+00 0. -1.
         22    1    4    4    0    0 -0.28597388767E+02 -0.23578480871E+02  0.59516902906E+01  0.37539019990E+02  0.00000000000E+00 0.  1.
         22    1    4    4    0    0 -0.39440901944E+01 -0.39299539130E+01  0.31938049032E+01  0.64187829828E+01  0.00000000000E+00 0.  1.
<mgrwt>
<rscale>  0 0.99063355E+02</rscale>
<asrwt>0</asrwt>
<pdfrwt beam="1">  1        2 0.16334695E-01 0.99063355E+02</pdfrwt>
<pdfrwt beam="2">  1       -2 0.35549076E-02 0.99063355E+02</pdfrwt>
<totfact> 0.99340317E+04</totfact>
</mgrwt>
</event>
<event>
 7    1  0.3960685E-009  0.9190622E+02  0.7818608E-02  0.1298300E+00
         -2   -1    0    0    0  501 -0.00000000000E+00  0.00000000000E+00  0.51827168339E+02  0.51827168402E+02  0.25500000000E-02 0.  1.
          2   -1    0    0  501    0  0.00000000000E+00 -0.00000000000E+00 -0.40744817748E+02  0.40744817828E+02  0.25500000000E-02 0. -1.
         23    2    1    2    0    0  0.00000000000E+00  0.35527136788E-14  0.11082350591E+02  0.92571986229E+02  0.91906224707E+02 0.  0.
    9000005    2    3    3    0    0  0.21971690488E+02  0.17666729620E+02 -0.30198772486E+02  0.42581990821E+02  0.10314628653E+02 0.  0.
         22    1    3    3    0    0 -0.21971690488E+02 -0.17666729620E+02  0.41281123077E+02  0.49989995408E+02  0.00000000000E+00 0.  1.
         22    1    4    4    0    0  0.20467733980E+02  0.17128368547E+02 -0.23074713995E+02  0.35281036965E+02  0.00000000000E+00 0. -1.
         22    1    4    4    0    0  0.15039565080E+01  0.53836107280E+00 -0.71240584916E+01  0.73009538565E+01  0.00000000000E+00 0. -1.
<mgrwt>
<rscale>  0 0.91906225E+02</rscale>
<asrwt>0</asrwt>
<pdfrwt beam="2">  1        2 0.62684336E-02 0.91906225E+02</pdfrwt>
<pdfrwt beam="1">  1       -2 0.79734105E-02 0.91906225E+02</pdfrwt>
<totfact> 0.93657226E+04</totfact>
</mgrwt>
</event>
<event>
 7    1  0.3960685E-009  0.9090302E+02  0.7818608E-02  0.1300680E+00
         -2   -1    0    0    0  501 -0.00000000000E+00  0.00000000000E+00  0.11172684093E+02  0.11172684384E+02  0.25500000000E-02 0.  1.
          2   -1    0    0  501    0  0.00000000000E+00 -0.00000000000E+00 -0.18490093432E+03  0.18490093434E+03  0.25500000000E-02 0. -1.
         23    2    1    2    0    0  0.00000000000E+00  0.00000000000E+00 -0.17372825023E+03  0.19607361872E+03  0.90903019925E+02 0.  0.
    9000005    2    3    3    0    0  0.16961185759E+02 -0.33855471104E+02 -0.13993211976E+03  0.14531878466E+03  0.10132930881E+02 0.  0.
         22    1    3    3    0    0 -0.16961185759E+02  0.33855471104E+02 -0.33796130464E+02  0.50754834059E+02  0.00000000000E+00 0.  1.
         22    1    4    4    0    0  0.16129025567E+02 -0.25485390503E+02 -0.11893447782E+03  0.12269906524E+03  0.00000000000E+00 0.  1.
         22    1    4    4    0    0  0.83216019171E+00 -0.83700806010E+01 -0.20997641939E+02  0.22619719425E+02  0.00000000000E+00 0.  1.
<mgrwt>
<rscale>  0 0.90903020E+02</rscale>
<asrwt>0</asrwt>
<pdfrwt beam="2">  1        2 0.28446295E-01 0.90903020E+02</pdfrwt>
<pdfrwt beam="1">  1       -2 0.17188746E-02 0.90903020E+02</pdfrwt>
<totfact> 0.15160274E+05</totfact>
</mgrwt>
</event>
<event>
 6    1  0.5647771E-009  0.3970715E+03  0.7818608E-02  0.1044798E+00
          2   -1    0    0  501    0  0.00000000000E+00  0.00000000000E+00  0.16310031957E+03  0.16310031959E+03  0.25500000000E-02 0. -1.
         -2   -1    0    0    0  501 -0.00000000000E+00 -0.00000000000E+00 -0.24166998647E+03  0.24166998648E+03  0.25500000000E-02 0.  1.
    9000005    2    1    2    0    0 -0.19454312914E+03  0.17546401645E+02 -0.47846534479E+01  0.19596625075E+03  0.14999107197E+02 0.  0.
         22    1    1    2    0    0  0.19454312914E+03 -0.17546401645E+02 -0.73785013452E+02  0.20880405532E+03  0.00000000000E+00 0. -1.
         22    1    3    3    0    0 -0.17251250204E+02  0.56075744656E+01 -0.20143777749E+01  0.18251253185E+02  0.00000000000E+00 0. -1.
         22    1    3    3    0    0 -0.17729187894E+03  0.11938827180E+02 -0.27702756730E+01  0.17771499756E+03  0.00000000000E+00 0. -1.
<mgrwt>
<rscale>  0 0.39707154E+03</rscale>
<asrwt>0</asrwt>
<pdfrwt beam="1">  1        2 0.25092357E-01 0.39707154E+03</pdfrwt>
<pdfrwt beam="2">  1       -2 0.37179998E-01 0.39707154E+03</pdfrwt>
<totfact> 0.14782399E+03</totfact>
</mgrwt>
</event>
<event>
 7    1  0.3960685E-009  0.8928824E+02  0.7818608E-02  0.1304585E+00
          2   -1    0    0  501    0  0.00000000000E+00  0.00000000000E+00  0.56890526063E+01  0.56890531778E+01  0.25500000000E-02 0. -1.
         -2   -1    0    0    0  501 -0.00000000000E+00 -0.00000000000E+00 -0.35033904982E+03  0.35033904983E+03  0.25500000000E-02 0.  1.
         23    2    1    2    0    0  0.35527136788E-14  0.00000000000E+00 -0.34464999722E+03  0.35602810301E+03  0.89288238595E+02 0.  0.
    9000005    2    3    3    0    0  0.30825013061E+02 -0.11264374231E+02 -0.29251392815E+03  0.29442260606E+03  0.65730691998E+01 0.  0.
         22    1    3    3    0    0 -0.30825013061E+02  0.11264374231E+02 -0.52136069064E+02  0.61605496951E+02  0.00000000000E+00 0. -1.
         22    1    4    4    0    0  0.14511644746E+02 -0.28842216940E+01 -0.15158454125E+03  0.15230489064E+03  0.00000000000E+00 0. -1.
         22    1    4    4    0    0  0.16313368316E+02 -0.83801525374E+01 -0.14092938690E+03  0.14211771542E+03  0.00000000000E+00 0. -1.
<mgrwt>
<rscale>  0 0.89288239E+02</rscale>
<asrwt>0</asrwt>
<pdfrwt beam="1">  1        2 0.87523918E-03 0.89288239E+02</pdfrwt>
<pdfrwt beam="2">  1       -2 0.53898298E-01 0.89288239E+02</pdfrwt>
<totfact> 0.49107475E+04</totfact>
</mgrwt>
</event>
<event>
 7    1  0.3960685E-009  0.9215560E+02  0.7818608E-02  0.1297714E+00
         -2   -1    0    0    0  501 -0.00000000000E+00  0.00000000000E+00  0.18009109931E+02  0.18009110112E+02  0.25500000000E-02 0.  1.
          2   -1    0    0  501    0  0.00000000000E+00 -0.00000000000E+00 -0.11789386702E+03  0.11789386705E+03  0.25500000000E-02 0. -1.
         23    2    1    2    0    0  0.00000000000E+00  0.44408920985E-15 -0.99884757089E+02  0.13590297716E+03  0.92155599408E+02 0.  0.
    9000005    2    3    3    0    0 -0.34922259013E+02  0.26172807218E+01 -0.92612381966E+02  0.10013564887E+03  0.14955953621E+02 0.  0.
         22    1    3    3    0    0  0.34922259013E+02 -0.26172807218E+01 -0.72723751229E+01  0.35767328288E+02  0.00000000000E+00 0.  1.
         22    1    4    4    0    0 -0.33092850998E+02 -0.11641173976E+01 -0.74254187722E+02  0.81302991032E+02  0.00000000000E+00 0.  1.
         22    1    4    4    0    0 -0.18294080141E+01  0.37813981194E+01 -0.18358194244E+02  0.18832657840E+02  0.00000000000E+00 0.  1.
<mgrwt>
<rscale>  0 0.92155599E+02</rscale>
<asrwt>0</asrwt>
<pdfrwt beam="2">  1        2 0.18137518E-01 0.92155599E+02</pdfrwt>
<pdfrwt beam="1">  1       -2 0.27706324E-02 0.92155599E+02</pdfrwt>
<totfact> 0.12540829E+05</totfact>
</mgrwt>
</event>
<event>
 7    1  0.3960685E-009  0.9165939E+02  0.7818608E-02  0.1298882E+00
         -2   -1    0    0    0  501 -0.00000000000E+00  0.00000000000E+00  0.43521839935E+01  0.43521847406E+01  0.25500000000E-02 0.  1.
          2   -1    0    0  501    0  0.00000000000E+00 -0.00000000000E+00 -0.48259922422E+03  0.48259922423E+03  0.25500000000E-02 0. -1.
         23    2    1    2    0    0  0.00000000000E+00  0.00000000000E+00 -0.47824704023E+03  0.48695140897E+03  0.91659386916E+02 0.  0.
    9000005    2    3    3    0    0 -0.27642296798E+02 -0.27561805135E+02 -0.35984966968E+03  0.36228510628E+03  0.15328528483E+02 0.  0.
         22    1    3    3    0    0  0.27642296798E+02  0.27561805135E+02 -0.11839737054E+03  0.12466630269E+03  0.00000000000E+00 0.  1.
         22    1    4    4    0    0 -0.20362765079E+02 -0.23863466877E+02 -0.32410818655E+03  0.32562282451E+03  0.00000000000E+00 0.  1.
         22    1    4    4    0    0 -0.72795317191E+01 -0.36983382574E+01 -0.35741483137E+02  0.36662281772E+02  0.00000000000E+00 0.  1.
<mgrwt>
<rscale>  0 0.91659387E+02</rscale>
<asrwt>0</asrwt>
<pdfrwt beam="2">  1        2 0.74245992E-01 0.91659387E+02</pdfrwt>
<pdfrwt beam="1">  1       -2 0.66956721E-03 0.91659387E+02</pdfrwt>
<totfact> 0.21004725E+05</totfact>
</mgrwt>
</event>
<event>
 7    1  0.3960685E-009  0.9085230E+02  0.7818608E-02  0.1300801E+00
         -2   -1    0    0    0  501 -0.00000000000E+00  0.00000000000E+00  0.22052722020E+02  0.22052722168E+02  0.25500000000E-02 0.  1.
          2   -1    0    0  501    0  0.00000000000E+00 -0.00000000000E+00 -0.93572815628E+02  0.93572815662E+02  0.25500000000E-02 0. -1.
         23    2    1    2    0    0  0.00000000000E+00  0.00000000000E+00 -0.71520093607E+02  0.11562553783E+03  0.90852304368E+02 0.  0.
    9000005    2    3    3    0    0  0.10824333541E+02 -0.42177495383E+02 -0.20728706315E+02  0.48723577198E+02  0.69426505115E+01 0.  0.
         22    1    3    3    0    0 -0.10824333541E+02  0.42177495383E+02 -0.50791387292E+02  0.66901960632E+02  0.00000000000E+00 0.  1.
         22    1    4    4    0    0  0.11117948495E+02 -0.33391512286E+02 -0.15179814614E+02  0.38327909455E+02  0.00000000000E+00 0.  1.
         22    1    4    4    0    0 -0.29361495385E+00 -0.87859830969E+01 -0.55488917006E+01  0.10395667743E+02  0.00000000000E+00 0.  1.
<mgrwt>
<rscale>  0 0.90852304E+02</rscale>
<asrwt>0</asrwt>
<pdfrwt beam="2">  1        2 0.14395818E-01 0.90852304E+02</pdfrwt>
<pdfrwt beam="1">  1       -2 0.33927265E-02 0.90852304E+02</pdfrwt>
<totfact> 0.12143093E+05</totfact>
</mgrwt>
</event>
<event>
 7    1  0.3960685E-009  0.9509444E+02  0.7818608E-02  0.1290964E+00
          2   -1    0    0  501    0  0.00000000000E+00  0.00000000000E+00  0.29000790846E+03  0.29000790847E+03  0.25500000000E-02 0. -1.
         -2   -1    0    0    0  501 -0.00000000000E+00 -0.00000000000E+00 -0.77954359859E+01  0.77954364029E+01  0.25500000000E-02 0.  1.
         23    2    1    2    0    0  0.00000000000E+00  0.00000000000E+00  0.28221247248E+03  0.29780334488E+03  0.95094440418E+02 0.  0.
    9000005    2    3    3    0    0 -0.94923727090E+01 -0.45955769480E+02  0.14545384018E+03  0.15321786360E+03  0.10810005321E+02 0.  0.
         22    1    3    3    0    0  0.94923727090E+01  0.45955769480E+02  0.13675863230E+03  0.14458548128E+03  0.00000000000E+00 0. -1.
         22    1    4    4    0    0 -0.11569892805E+02 -0.31637686303E+02  0.10173669139E+03  0.10716883870E+03  0.00000000000E+00 0. -1.
         22    1    4    4    0    0  0.20775200962E+01 -0.14318083177E+02  0.43717148792E+02  0.46049024898E+02  0.00000000000E+00 0. -1.
<mgrwt>
<rscale>  0 0.95094440E+02</rscale>
<asrwt>0</asrwt>
<pdfrwt beam="1">  1        2 0.44616609E-01 0.95094440E+02</pdfrwt>
<pdfrwt beam="2">  1       -2 0.11992977E-02 0.95094440E+02</pdfrwt>
<totfact> 0.15850590E+05</totfact>
</mgrwt>
</event>
<event>
 7    1  0.3960685E-009  0.9277431E+02  0.7818608E-02  0.1296269E+00
          2   -1    0    0  501    0  0.00000000000E+00  0.00000000000E+00  0.56087892681E+02  0.56087892739E+02  0.25500000000E-02 0.  1.
         -2   -1    0    0    0  501 -0.00000000000E+00 -0.00000000000E+00 -0.38364219869E+02  0.38364219954E+02  0.25500000000E-02 0. -1.
         23    2    1    2    0    0  0.00000000000E+00  0.00000000000E+00  0.17723672812E+02  0.94452112693E+02  0.92774312254E+02 0.  0.
    9000005    2    3    3    0    0  0.19538229258E+02 -0.32260252161E+02  0.34462777069E+02  0.53188764752E+02  0.14795114753E+02 0.  0.
         22    1    3    3    0    0 -0.19538229258E+02  0.32260252161E+02 -0.16739104257E+02  0.41263347941E+02  0.00000000000E+00 0. -1.
         22    1    4    4    0    0  0.66627854927E+01 -0.19781321904E+01  0.10035972805E+02  0.12207639724E+02  0.00000000000E+00 0. -1.
         22    1    4    4    0    0  0.12875443765E+02 -0.30282119970E+02  0.24426804264E+02  0.40981125028E+02  0.00000000000E+00 0. -1.
<mgrwt>
<rscale>  0 0.92774312E+02</rscale>
<asrwt>0</asrwt>
<pdfrwt beam="1">  1        2 0.86289065E-02 0.92774312E+02</pdfrwt>
<pdfrwt beam="2">  1       -2 0.59021877E-02 0.92774312E+02</pdfrwt>
<totfact> 0.99167077E+04</totfact>
</mgrwt>
</event>
<event>
 7    1  0.3960685E-009  0.9103100E+02  0.7818608E-02  0.1300374E+00
         -2   -1    0    0    0  501 -0.00000000000E+00  0.00000000000E+00  0.12250555256E+02  0.12250555521E+02  0.25500000000E-02 0.  1.
          2   -1    0    0  501    0  0.00000000000E+00 -0.00000000000E+00 -0.16910750711E+03  0.16910750713E+03  0.25500000000E-02 0. -1.
         23    2    1    2    0    0  0.00000000000E+00  0.71054273576E-14 -0.15685695186E+03  0.18135806265E+03  0.91031003199E+02 0.  0.
    9000005    2    3    3    0    0  0.18596838762E+02 -0.41059161576E+02 -0.84404540337E+02  0.96028999045E+02  0.81083331657E+01 0.  0.
         22    1    3    3    0    0 -0.18596838762E+02  0.41059161576E+02 -0.72452411520E+02  0.85329063608E+02  0.00000000000E+00 0. -1.
         22    1    4    4    0    0  0.10245932396E+02 -0.21403522422E+02 -0.52779067905E+02  0.57868125179E+02  0.00000000000E+00 0. -1.
         22    1    4    4    0    0  0.83509063658E+01 -0.19655639154E+02 -0.31625472432E+02  0.38160873866E+02  0.00000000000E+00 0. -1.
<mgrwt>
<rscale>  0 0.91031003E+02</rscale>
<asrwt>0</asrwt>
<pdfrwt beam="2">  1        2 0.26016538E-01 0.91031003E+02</pdfrwt>
<pdfrwt beam="1">  1       -2 0.18847010E-02 0.91031003E+02</pdfrwt>
<totfact> 0.14634284E+05</totfact>
</mgrwt>
</event>
<event>
 7    1  0.3960685E-009  0.9337893E+02  0.7818608E-02  0.1294869E+00
          2   -1    0    0  501    0  0.00000000000E+00  0.00000000000E+00  0.20701465824E+03  0.20701465826E+03  0.25500000000E-02 0. -1.
         -2   -1    0    0    0  501 -0.00000000000E+00 -0.00000000000E+00 -0.10530202377E+02  0.10530202686E+02  0.25500000000E-02 0.  1.
         23    2    1    2    0    0  0.00000000000E+00 -0.35527136788E-14  0.19648445586E+03  0.21754486094E+03  0.93378932990E+02 0.  0.
    9000005    2    3    3    0    0  0.39609066141E+02 -0.23567931359E+02  0.99621970335E+02  0.11027572926E+03  0.10577049739E+02 0.  0.
         22    1    3    3    0    0 -0.39609066141E+02  0.23567931359E+02  0.96862485528E+02  0.10726913168E+03  0.00000000000E+00 0. -1.
         22    1    4    4    0    0  0.69410548507E+01 -0.93681897876E+01  0.23678784178E+02  0.26393674289E+02  0.00000000000E+00 0.  1.
         22    1    4    4    0    0  0.32668011290E+02 -0.14199741572E+02  0.75943186157E+02  0.83882054970E+02  0.00000000000E+00 0.  1.
<mgrwt>
<rscale>  0 0.93378933E+02</rscale>
<asrwt>0</asrwt>
<pdfrwt beam="1">  1        2 0.31848405E-01 0.93378933E+02</pdfrwt>
<pdfrwt beam="2">  1       -2 0.16200313E-02 0.93378933E+02</pdfrwt>
<totfact> 0.14686550E+05</totfact>
</mgrwt>
</event>
<event>
 7    1  0.3960685E-009  0.9013861E+02  0.7818608E-02  0.1302516E+00
         -2   -1    0    0    0  501 -0.00000000000E+00  0.00000000000E+00  0.11202922761E+02  0.11202923051E+02  0.25500000000E-02 0.  1.
          2   -1    0    0  501    0  0.00000000000E+00 -0.00000000000E+00 -0.18131358845E+03  0.18131358847E+03  0.25500000000E-02 0. -1.
         23    2    1    2    0    0 -0.71054273576E-14  0.00000000000E+00 -0.17011066569E+03  0.19251651152E+03  0.90138607856E+02 0.  0.
    9000005    2    3    3    0    0  0.40526156231E+02 -0.18777293441E+02 -0.90462358517E+02  0.10119943249E+03  0.79328897063E+01 0.  0.
         22    1    3    3    0    0 -0.40526156231E+02  0.18777293441E+02 -0.79648307170E+02  0.91317079031E+02  0.00000000000E+00 0.  1.
         22    1    4    4    0    0  0.20666218068E+02 -0.13810344506E+02 -0.51615087496E+02  0.57288178902E+02  0.00000000000E+00 0. -1.
         22    1    4    4    0    0  0.19859938162E+02 -0.49669489355E+01 -0.38847271020E+02  0.43911253583E+02  0.00000000000E+00 0. -1.
<mgrwt>
<rscale>  0 0.90138608E+02</rscale>
<asrwt>0</asrwt>
<pdfrwt beam="2">  1        2 0.27894396E-01 0.90138608E+02</pdfrwt>
<pdfrwt beam="1">  1       -2 0.17235267E-02 0.90138608E+02</pdfrwt>
<totfact> 0.15401395E+05</totfact>
</mgrwt>
</event>
<event>
 7    1  0.3960685E-009  0.8896890E+02  0.7818608E-02  0.1305368E+00
         -2   -1    0    0    0  501 -0.00000000000E+00  0.00000000000E+00  0.32648414392E+02  0.32648414491E+02  0.25500000000E-02 0. -1.
          2   -1    0    0  501    0  0.00000000000E+00 -0.00000000000E+00 -0.60611404233E+02  0.60611404286E+02  0.25500000000E-02 0.  1.
         23    2    1    2    0    0  0.00000000000E+00  0.00000000000E+00 -0.27962989841E+02  0.93259818778E+02  0.88968899047E+02 0.  0.
    9000005    2    3    3    0    0  0.43212350800E+02 -0.21346974985E+01 -0.24047009243E+02  0.49817913903E+02  0.56304260130E+01 0.  0.
         22    1    3    3    0    0 -0.43212350800E+02  0.21346974985E+01 -0.39159805978E+01  0.43441904874E+02  0.00000000000E+00 0.  1.
         22    1    4    4    0    0  0.35294031404E+02  0.36754953031E+00 -0.20178184459E+02  0.40656646117E+02  0.00000000000E+00 0. -1.
         22    1    4    4    0    0  0.79183193953E+01 -0.25022470288E+01 -0.38688247842E+01  0.91612677862E+01  0.00000000000E+00 0. -1.
<mgrwt>
<rscale>  0 0.88968899E+02</rscale>
<asrwt>0</asrwt>
<pdfrwt beam="2">  1        2 0.93248314E-02 0.88968899E+02</pdfrwt>
<pdfrwt beam="1">  1       -2 0.50228330E-02 0.88968899E+02</pdfrwt>
<totfact> 0.11394487E+05</totfact>
</mgrwt>
</event>
<event>
 7    1  0.3960685E-009  0.8967840E+02  0.7818608E-02  0.1303632E+00
          2   -1    0    0  501    0  0.00000000000E+00  0.00000000000E+00  0.12624159039E+03  0.12624159041E+03  0.25500000000E-02 0.  1.
         -2   -1    0    0    0  501 -0.00000000000E+00 -0.00000000000E+00 -0.15926238048E+02  0.15926238252E+02  0.25500000000E-02 0. -1.
         23    2    1    2    0    0  0.00000000000E+00  0.00000000000E+00  0.11031535234E+03  0.14216782866E+03  0.89678395089E+02 0.  0.
    9000005    2    3    3    0    0 -0.41465571781E+02  0.10772094370E+02  0.75806004902E+02  0.87155768890E+02  0.37611183597E+01 0.  0.
         22    1    3    3    0    0  0.41465571781E+02 -0.10772094370E+02  0.34509347436E+02  0.55012059775E+02  0.00000000000E+00 0. -1.
         22    1    4    4    0    0 -0.23257375286E+01  0.52126778394E-01  0.56161609129E+01  0.60789008589E+01  0.00000000000E+00 0.  1.
         22    1    4    4    0    0 -0.39139834252E+02  0.10719967592E+02  0.70189843989E+02  0.81076868031E+02  0.00000000000E+00 0.  1.
<mgrwt>
<rscale>  0 0.89678395E+02</rscale>
<asrwt>0</asrwt>
<pdfrwt beam="1">  1        2 0.19421783E-01 0.89678395E+02</pdfrwt>
<pdfrwt beam="2">  1       -2 0.24501905E-02 0.89678395E+02</pdfrwt>
<totfact> 0.13810460E+05</totfact>
</mgrwt>
</event>
<event>
 7    1  0.3960685E-009  0.9130953E+02  0.7818608E-02  0.1299711E+00
         -2   -1    0    0    0  501 -0.00000000000E+00  0.00000000000E+00  0.22501680690E+02  0.22501680835E+02  0.25500000000E-02 0.  1.
          2   -1    0    0  501    0  0.00000000000E+00 -0.00000000000E+00 -0.92631204438E+02  0.92631204473E+02  0.25500000000E-02 0. -1.
         23    2    1    2    0    0  0.35527136788E-14  0.00000000000E+00 -0.70129523748E+02  0.11513288531E+03  0.91309534979E+02 0.  0.
    9000005    2    3    3    0    0 -0.25582372446E+02 -0.30778072356E+02 -0.11388384231E+02  0.44053570527E+02  0.14466314765E+02 0.  0.
         22    1    3    3    0    0  0.25582372446E+02  0.30778072356E+02 -0.58741139517E+02  0.71079314781E+02  0.00000000000E+00 0. -1.
         22    1    4    4    0    0 -0.22791207977E+01  0.91779947861E+00 -0.29124917546E+01  0.38104272351E+01  0.00000000000E+00 0.  1.
         22    1    4    4    0    0 -0.23303251649E+02 -0.31695871835E+02 -0.84758924761E+01  0.40243143292E+02  0.00000000000E+00 0.  1.
<mgrwt>
<rscale>  0 0.91309535E+02</rscale>
<asrwt>0</asrwt>
<pdfrwt beam="2">  1        2 0.14250954E-01 0.91309535E+02</pdfrwt>
<pdfrwt beam="1">  1       -2 0.34617971E-02 0.91309535E+02</pdfrwt>
<totfact> 0.11939857E+05</totfact>
</mgrwt>
</event>
<event>
 7    1  0.3960685E-009  0.9234053E+02  0.7818608E-02  0.1297281E+00
         -2   -1    0    0    0  501 -0.00000000000E+00  0.00000000000E+00  0.61471229344E+01  0.61471234633E+01  0.25500000000E-02 0.  1.
          2   -1    0    0  501    0  0.00000000000E+00 -0.00000000000E+00 -0.34677899263E+03  0.34677899264E+03  0.25500000000E-02 0. -1.
         23    2    1    2    0    0  0.00000000000E+00  0.88817841970E-15 -0.34063186970E+03  0.35292611611E+03  0.92340526180E+02 0.  0.
    9000005    2    3    3    0    0 -0.19904313257E+02 -0.20607106034E+01 -0.32866006045E+03  0.32960761634E+03  0.14943801522E+02 0.  0.
         22    1    3    3    0    0  0.19904313257E+02  0.20607106034E+01 -0.11971809252E+02  0.23318499763E+02  0.00000000000E+00 0.  1.
         22    1    4    4    0    0 -0.85739303439E+01  0.45382833106E+01 -0.77384625109E+02  0.77990310297E+02  0.00000000000E+00 0. -1.
         22    1    4    4    0    0 -0.11330382913E+02 -0.65989939140E+01 -0.25127543534E+03  0.25161730605E+03  0.00000000000E+00 0. -1.
<mgrwt>
<rscale>  0 0.92340526E+02</rscale>
<asrwt>0</asrwt>
<pdfrwt beam="2">  1        2 0.53350599E-01 0.92340526E+02</pdfrwt>
<pdfrwt beam="1">  1       -2 0.94571153E-03 0.92340526E+02</pdfrwt>
<totfact> 0.18325588E+05</totfact>
</mgrwt>
</event>
<event>
 7    1  0.3960685E-009  0.9042184E+02  0.7818608E-02  0.1301833E+00
         -2   -1    0    0    0  501 -0.00000000000E+00  0.00000000000E+00  0.62359247119E+02  0.62359247171E+02  0.25500000000E-02 0. -1.
          2   -1    0    0  501    0  0.00000000000E+00 -0.00000000000E+00 -0.32778254540E+02  0.32778254639E+02  0.25500000000E-02 0.  1.
         23    2    1    2    0    0  0.00000000000E+00  0.00000000000E+00  0.29580992579E+02  0.95137501811E+02  0.90421839889E+02 0.  0.
    9000005    2    3    3    0    0 -0.29201923837E+02  0.33440882522E+02  0.91553523287E+01  0.46267759032E+02  0.92649916338E+01 0.  0.
         22    1    3    3    0    0  0.29201923837E+02 -0.33440882522E+02  0.20425640250E+02  0.48869742779E+02  0.00000000000E+00 0. -1.
         22    1    4    4    0    0 -0.99049341900E+01  0.53196842021E+01  0.25504390792E+01  0.11528725030E+02  0.00000000000E+00 0. -1.
         22    1    4    4    0    0 -0.19296989647E+02  0.28121198320E+02  0.66049132495E+01  0.34739034002E+02  0.00000000000E+00 0. -1.
<mgrwt>
<rscale>  0 0.90421840E+02</rscale>
<asrwt>0</asrwt>
<pdfrwt beam="2">  1        2 0.50428085E-02 0.90421840E+02</pdfrwt>
<pdfrwt beam="1">  1       -2 0.95937302E-02 0.90421840E+02</pdfrwt>
<totfact> 0.92808157E+04</totfact>
</mgrwt>
</event>
<event>
 7    1  0.3960685E-009  0.8100123E+02  0.7818608E-02  0.1326234E+00
         -2   -1    0    0    0  501 -0.00000000000E+00  0.00000000000E+00  0.51599896755E+01  0.51599903056E+01  0.25500000000E-02 0.  1.
          2   -1    0    0  501    0  0.00000000000E+00 -0.00000000000E+00 -0.31788814822E+03  0.31788814823E+03  0.25500000000E-02 0. -1.
         23    2    1    2    0    0  0.00000000000E+00  0.17763568394E-14 -0.31272815855E+03  0.32304813854E+03  0.81001226317E+02 0.  0.
    9000005    2    3    3    0    0 -0.33765773125E+02 -0.99635085268E+01 -0.23347458583E+03  0.23632716227E+03  0.10037253625E+02 0.  0.
         22    1    3    3    0    0  0.33765773125E+02  0.99635085268E+01 -0.79253572719E+02  0.86720976272E+02  0.00000000000E+00 0.  1.
         22    1    4    4    0    0 -0.21207578261E+01  0.83486144645E+00 -0.33413778667E+02  0.33491419979E+02  0.00000000000E+00 0.  1.
         22    1    4    4    0    0 -0.31645015299E+02 -0.10798369973E+02 -0.20006080716E+03  0.20283574229E+03  0.00000000000E+00 0.  1.
<mgrwt>
<rscale>  0 0.81001226E+02</rscale>
<asrwt>0</asrwt>
<pdfrwt beam="2">  1        2 0.48905854E-01 0.81001226E+02</pdfrwt>
<pdfrwt beam="1">  1       -2 0.79384486E-03 0.81001226E+02</pdfrwt>
<totfact> 0.25109387E+05</totfact>
</mgrwt>
</event>
<event>
 7    1  0.3960685E-009  0.9208050E+02  0.7818608E-02  0.1297890E+00
          2   -1    0    0  501    0  0.00000000000E+00  0.00000000000E+00  0.32377562375E+03  0.32377562376E+03  0.25500000000E-02 0. -1.
         -2   -1    0    0    0  501 -0.00000000000E+00 -0.00000000000E+00 -0.65468323779E+01  0.65468328745E+01  0.25500000000E-02 0.  1.
         23    2    1    2    0    0  0.00000000000E+00  0.00000000000E+00  0.31722879138E+03  0.33032245664E+03  0.92080504352E+02 0.  0.
    9000005    2    3    3    0    0 -0.33411655978E+02 -0.12358823052E+02  0.26118464159E+03  0.26391443011E+03  0.12819132354E+02 0.  0.
         22    1    3    3    0    0  0.33411655978E+02  0.12358823052E+02  0.56044149786E+02  0.66408026530E+02  0.00000000000E+00 0.  1.
         22    1    4    4    0    0 -0.55489238348E+01  0.24320507092E+01  0.31933674124E+02  0.32503307054E+02  0.00000000000E+00 0.  1.
         22    1    4    4    0    0 -0.27862732143E+02 -0.14790873761E+02  0.22925096747E+03  0.23141112306E+03  0.00000000000E+00 0.  1.
<mgrwt>
<rscale>  0 0.92080504E+02</rscale>
<asrwt>0</asrwt>
<pdfrwt beam="1">  1        2 0.49811627E-01 0.92080504E+02</pdfrwt>
<pdfrwt beam="2">  1       -2 0.10072052E-02 0.92080504E+02</pdfrwt>
<totfact> 0.18002219E+05</totfact>
</mgrwt>
</event>
<event>
 7    1  0.3960685E-009  0.9307286E+02  0.7818608E-02  0.1295576E+00
          2   -1    0    0  501    0  0.00000000000E+00  0.00000000000E+00  0.10388734048E+04  0.10388734048E+04  0.25500000000E-02 0.  1.
         -2   -1    0    0    0  501 -0.00000000000E+00 -0.00000000000E+00 -0.20846028377E+01  0.20846043973E+01  0.25500000000E-02 0. -1.
         23    2    1    2    0    0  0.00000000000E+00  0.00000000000E+00  0.10367888020E+04  0.10409580092E+04  0.93072858795E+02 0.  0.
    9000005    2    3    3    0    0 -0.10081639764E+02  0.25409916208E+02  0.93831706322E+03  0.93876218427E+03  0.93927731195E+01 0.  0.
         22    1    3    3    0    0  0.10081639764E+02 -0.25409916208E+02  0.98471738756E+02  0.10219582494E+03  0.00000000000E+00 0. -1.
         22    1    4    4    0    0  0.13589843731E+01  0.68837510031E+01  0.19463838892E+03  0.19476482051E+03  0.00000000000E+00 0.  1.
         22    1    4    4    0    0 -0.11440624137E+02  0.18526165205E+02  0.74367867430E+03  0.74399736377E+03  0.00000000000E+00 0.  1.
<mgrwt>
<rscale>  0 0.93072859E+02</rscale>
<asrwt>0</asrwt>
<pdfrwt beam="1">  1        2 0.15982637E+00 0.93072859E+02</pdfrwt>
<pdfrwt beam="2">  1       -2 0.32070886E-03 0.93072859E+02</pdfrwt>
<totfact> 0.23708061E+05</totfact>
</mgrwt>
</event>
<event>
 7    1  0.3960685E-009  0.9129778E+02  0.7818608E-02  0.1299739E+00
          2   -1    0    0  501    0  0.00000000000E+00  0.00000000000E+00  0.21864234223E+02  0.21864234372E+02  0.25500000000E-02 0.  1.
         -2   -1    0    0    0  501 -0.00000000000E+00 -0.00000000000E+00 -0.95307298146E+02  0.95307298180E+02  0.25500000000E-02 0. -1.
         23    2    1    2    0    0 -0.17763568394E-14  0.00000000000E+00 -0.73443063923E+02  0.11717153255E+03  0.91297778737E+02 0.  0.
    9000005    2    3    3    0    0  0.13582934822E+02  0.11751886658E+02 -0.89781544452E+02  0.92890904381E+02  0.15664974753E+02 0.  0.
         22    1    3    3    0    0 -0.13582934822E+02 -0.11751886658E+02  0.16338480530E+02  0.24280628172E+02  0.00000000000E+00 0.  1.
         22    1    4    4    0    0  0.13498573303E+02  0.15225510210E+02 -0.75693774565E+02  0.78380961657E+02  0.00000000000E+00 0. -1.
         22    1    4    4    0    0  0.84361518664E-01 -0.34736235520E+01 -0.14087769888E+02  0.14509942724E+02  0.00000000000E+00 0. -1.
<mgrwt>
<rscale>  0 0.91297779E+02</rscale>
<asrwt>0</asrwt>
<pdfrwt beam="1">  1        2 0.33637284E-02 0.91297779E+02</pdfrwt>
<pdfrwt beam="2">  1       -2 0.14662661E-01 0.91297779E+02</pdfrwt>
<totfact> 0.80682174E+04</totfact>
</mgrwt>
</event>
<event>
 7    1  0.3960685E-009  0.9366984E+02  0.7818608E-02  0.1294200E+00
         -2   -1    0    0    0  501 -0.00000000000E+00  0.00000000000E+00  0.20758028534E+03  0.20758028535E+03  0.25500000000E-02 0.  1.
          2   -1    0    0  501    0  0.00000000000E+00 -0.00000000000E+00 -0.10567043455E+02  0.10567043763E+02  0.25500000000E-02 0. -1.
         23    2    1    2    0    0  0.00000000000E+00  0.00000000000E+00  0.19701324188E+03  0.21814732912E+03  0.93669844260E+02 0.  0.
    9000005    2    3    3    0    0 -0.24274029574E+02  0.35265479728E+02  0.54781553580E+02  0.69612027825E+02  0.34544512074E+01 0.  0.
         22    1    3    3    0    0  0.24274029574E+02 -0.35265479728E+02  0.14223168830E+03  0.14853530129E+03  0.00000000000E+00 0.  1.
         22    1    4    4    0    0 -0.19615119789E+02  0.26895457656E+02  0.44291165342E+02  0.55406009549E+02  0.00000000000E+00 0. -1.
         22    1    4    4    0    0 -0.46589097856E+01  0.83700220725E+01  0.10490388238E+02  0.14206018276E+02  0.00000000000E+00 0. -1.
<mgrwt>
<rscale>  0 0.93669844E+02</rscale>
<asrwt>0</asrwt>
<pdfrwt beam="2">  1        2 0.16256989E-02 0.93669844E+02</pdfrwt>
<pdfrwt beam="1">  1       -2 0.31935431E-01 0.93669844E+02</pdfrwt>
<totfact> 0.57222154E+04</totfact>
</mgrwt>
</event>
<event>
 7    1  0.3960685E-009  0.9246969E+02  0.7818608E-02  0.1296979E+00
         -2   -1    0    0    0  501 -0.00000000000E+00  0.00000000000E+00  0.18465056593E+02  0.18465056769E+02  0.25500000000E-02 0.  1.
          2   -1    0    0  501    0  0.00000000000E+00 -0.00000000000E+00 -0.11576789332E+03  0.11576789334E+03  0.25500000000E-02 0. -1.
         23    2    1    2    0    0  0.00000000000E+00  0.00000000000E+00 -0.97302836722E+02  0.13423295011E+03  0.92469686178E+02 0.  0.
    9000005    2    3    3    0    0 -0.10643654236E+02 -0.70994936495E+01 -0.11302047330E+03  0.11396636961E+03  0.71425369005E+01 0.  0.
         22    1    3    3    0    0  0.10643654236E+02  0.70994936495E+01  0.15717636575E+02  0.20266580498E+02  0.00000000000E+00 0.  1.
         22    1    4    4    0    0  0.81122161494E+00  0.17728505721E+00 -0.13414550244E+02  0.13440225770E+02  0.00000000000E+00 0.  1.
         22    1    4    4    0    0 -0.11454875851E+02 -0.72767787067E+01 -0.99605923052E+02  0.10052614384E+03  0.00000000000E+00 0.  1.
<mgrwt>
<rscale>  0 0.92469686E+02</rscale>
<asrwt>0</asrwt>
<pdfrwt beam="2">  1        2 0.17810445E-01 0.92469686E+02</pdfrwt>
<pdfrwt beam="1">  1       -2 0.28407780E-02 0.92469686E+02</pdfrwt>
<totfact> 0.12352377E+05</totfact>
</mgrwt>
</event>
<event>
 7    1  0.3960685E-009  0.9112918E+02  0.7818608E-02  0.1300140E+00
         -2   -1    0    0    0  501 -0.00000000000E+00  0.00000000000E+00  0.17370028978E+01  0.17370047695E+01  0.25500000000E-02 0.  1.
          2   -1    0    0  501    0  0.00000000000E+00 -0.00000000000E+00 -0.11952372321E+04  0.11952372321E+04  0.25500000000E-02 0. -1.
         23    2    1    2    0    0  0.00000000000E+00  0.00000000000E+00 -0.11935002292E+04  0.11969742369E+04  0.91129175516E+02 0.  0.
    9000005    2    3    3    0    0  0.11161705131E+02  0.26049326307E+02 -0.10609340725E+04  0.10614126753E+04  0.14581156266E+02 0.  0.
         22    1    3    3    0    0 -0.11161705131E+02 -0.26049326307E+02 -0.13256615673E+03  0.13556156156E+03  0.00000000000E+00 0.  1.
         22    1    4    4    0    0 -0.35507592811E+01  0.39991101508E+01 -0.19067638197E+03  0.19075136543E+03  0.00000000000E+00 0. -1.
         22    1    4    4    0    0  0.14712464412E+02  0.22050216156E+02 -0.87025769053E+03  0.87066130991E+03  0.00000000000E+00 0. -1.
<mgrwt>
<rscale>  0 0.91129176E+02</rscale>
<asrwt>0</asrwt>
<pdfrwt beam="2">  1        2 0.18388199E+00 0.91129176E+02</pdfrwt>
<pdfrwt beam="1">  1       -2 0.26723231E-03 0.91129176E+02</pdfrwt>
<totfact> 0.24913403E+05</totfact>
</mgrwt>
</event>
<event>
 7    1  0.3960685E-009  0.8955038E+02  0.7818608E-02  0.1303944E+00
          2   -1    0    0  501    0  0.00000000000E+00  0.00000000000E+00  0.45973780004E+03  0.45973780005E+03  0.25500000000E-02 0. -1.
         -2   -1    0    0    0  501 -0.00000000000E+00 -0.00000000000E+00 -0.43607849101E+01  0.43607856557E+01  0.25500000000E-02 0.  1.
         23    2    1    2    0    0  0.00000000000E+00  0.00000000000E+00  0.45537701513E+03  0.46409858570E+03  0.89550384381E+02 0.  0.
    9000005    2    3    3    0    0  0.14917858672E+02 -0.33532094221E+02  0.36042903545E+03  0.36230436831E+03  0.29020420282E+01 0.  0.
         22    1    3    3    0    0 -0.14917858672E+02  0.33532094221E+02  0.94947979680E+02  0.10179421740E+03  0.00000000000E+00 0.  1.
         22    1    4    4    0    0  0.12355734990E+02 -0.25494634348E+02  0.26965852020E+03  0.27114268953E+03  0.00000000000E+00 0. -1.
         22    1    4    4    0    0  0.25621236817E+01 -0.80374598721E+01  0.90770515252E+02  0.91161678781E+02  0.00000000000E+00 0. -1.
<mgrwt>
<rscale>  0 0.89550384E+02</rscale>
<asrwt>0</asrwt>
<pdfrwt beam="1">  1        2 0.70728900E-01 0.89550384E+02</pdfrwt>
<pdfrwt beam="2">  1       -2 0.67088997E-03 0.89550384E+02</pdfrwt>
<totfact> 0.21978777E+05</totfact>
</mgrwt>
</event>
<event>
 7    1  0.3960685E-009  0.9217140E+02  0.7818608E-02  0.1297677E+00
          2   -1    0    0  501    0  0.00000000000E+00  0.00000000000E+00  0.64619897116E+02  0.64619897166E+02  0.25500000000E-02 0. -1.
         -2   -1    0    0    0  501 -0.00000000000E+00 -0.00000000000E+00 -0.32867455901E+02  0.32867456000E+02  0.25500000000E-02 0.  1.
         23    2    1    2    0    0 -0.71054273576E-14  0.35527136788E-14  0.31752441214E+02  0.97487353166E+02  0.92171397430E+02 0.  0.
    9000005    2    3    3    0    0 -0.38716594308E+02  0.20115618768E+02  0.36381064699E+01  0.45583320458E+02  0.12688202871E+02 0.  0.
         22    1    3    3    0    0  0.38716594308E+02 -0.20115618768E+02  0.28114334744E+02  0.51904032708E+02  0.00000000000E+00 0.  1.
         22    1    4    4    0    0 -0.14478892884E+02  0.89998510478E+00  0.12498885811E+01  0.14560581507E+02  0.00000000000E+00 0. -1.
         22    1    4    4    0    0 -0.24237701424E+02  0.19215633663E+02  0.23882178888E+01  0.31022738951E+02  0.00000000000E+00 0. -1.
<mgrwt>
<rscale>  0 0.92171397E+02</rscale>
<asrwt>0</asrwt>
<pdfrwt beam="1">  1        2 0.99415226E-02 0.92171397E+02</pdfrwt>
<pdfrwt beam="2">  1       -2 0.50565317E-02 0.92171397E+02</pdfrwt>
<totfact> 0.10496233E+05</totfact>
</mgrwt>
</event>
<event>
 7    1  0.3960685E-009  0.9037965E+02  0.7818608E-02  0.1301935E+00
         -2   -1    0    0    0  501 -0.00000000000E+00  0.00000000000E+00  0.15130736932E+02  0.15130737147E+02  0.25500000000E-02 0.  1.
          2   -1    0    0  501    0  0.00000000000E+00 -0.00000000000E+00 -0.13496501732E+03  0.13496501734E+03  0.25500000000E-02 0. -1.
         23    2    1    2    0    0 -0.71054273576E-14  0.00000000000E+00 -0.11983428039E+03  0.15009575449E+03  0.90379647931E+02 0.  0.
    9000005    2    3    3    0    0  0.42646867788E+02  0.98438262827E+01 -0.60295165497E+02  0.76200135880E+02  0.15978031100E+02 0.  0.
         22    1    3    3    0    0 -0.42646867788E+02 -0.98438262827E+01 -0.59539114889E+02  0.73895618610E+02  0.00000000000E+00 0. -1.
         22    1    4    4    0    0  0.34230566547E+02  0.19079281328E+01 -0.38698245400E+02  0.51700348867E+02  0.00000000000E+00 0.  1.
         22    1    4    4    0    0  0.84163012404E+01  0.79358981498E+01 -0.21596920097E+02  0.24499787013E+02  0.00000000000E+00 0.  1.
<mgrwt>
<rscale>  0 0.90379648E+02</rscale>
<asrwt>0</asrwt>
<pdfrwt beam="2">  1        2 0.20763848E-01 0.90379648E+02</pdfrwt>
<pdfrwt beam="1">  1       -2 0.23278058E-02 0.90379648E+02</pdfrwt>
<totfact> 0.13820004E+05</totfact>
</mgrwt>
</event>
<event>
 7    1  0.3960685E-009  0.9564059E+02  0.7818608E-02  0.1289740E+00
         -2   -1    0    0    0  501 -0.00000000000E+00  0.00000000000E+00  0.28425129456E+02  0.28425129570E+02  0.25500000000E-02 0.  1.
          2   -1    0    0  501    0  0.00000000000E+00 -0.00000000000E+00 -0.80449261325E+02  0.80449261365E+02  0.25500000000E-02 0. -1.
         23    2    1    2    0    0  0.00000000000E+00  0.88817841970E-15 -0.52024131869E+02  0.10887439094E+03  0.95640591304E+02 0.  0.
    9000005    2    3    3    0    0 -0.46536895214E+02 -0.45136492330E+01 -0.23524479244E+02  0.54117785441E+02  0.13757831655E+02 0.  0.
         22    1    3    3    0    0  0.46536895214E+02  0.45136492330E+01 -0.28499652625E+02  0.54756605494E+02  0.00000000000E+00 0.  1.
         22    1    4    4    0    0 -0.88746322217E+00  0.22378015396E+01 -0.22826675264E+01  0.33175168029E+01  0.00000000000E+00 0.  1.
         22    1    4    4    0    0 -0.45649431992E+02 -0.67514507727E+01 -0.21241811718E+02  0.50800268638E+02  0.00000000000E+00 0.  1.
<mgrwt>
<rscale>  0 0.95640591E+02</rscale>
<asrwt>0</asrwt>
<pdfrwt beam="2">  1        2 0.12376809E-01 0.95640591E+02</pdfrwt>
<pdfrwt beam="1">  1       -2 0.43730969E-02 0.95640591E+02</pdfrwt>
<totfact> 0.10066981E+05</totfact>
</mgrwt>
</event>
<event>
 7    1  0.3960685E-009  0.8712840E+02  0.7818608E-02  0.1309959E+00
         -2   -1    0    0    0  501 -0.00000000000E+00  0.00000000000E+00  0.47368114772E+03  0.47368114773E+03  0.25500000000E-02 0.  1.
          2   -1    0    0  501    0  0.00000000000E+00 -0.00000000000E+00 -0.40065758733E+01  0.40065766848E+01  0.25500000000E-02 0. -1.
         23    2    1    2    0    0 -0.88817841970E-15  0.00000000000E+00  0.46967457185E+03  0.47768772441E+03  0.87128403028E+02 0.  0.
    9000005    2    3    3    0    0  0.26702685552E+01 -0.41000616173E+02  0.29622512510E+03  0.29943820425E+03  0.15024398957E+02 0.  0.
         22    1    3    3    0    0 -0.26702685552E+01  0.41000616173E+02  0.17344944675E+03  0.17824952016E+03  0.00000000000E+00 0. -1.
         22    1    4    4    0    0  0.85505950126E+01 -0.29643907788E+02  0.19958487765E+03  0.20195543402E+03  0.00000000000E+00 0.  1.
         22    1    4    4    0    0 -0.58803264574E+01 -0.11356708385E+02  0.96640247450E+02  0.97482770230E+02  0.00000000000E+00 0.  1.
<mgrwt>
<rscale>  0 0.87128403E+02</rscale>
<asrwt>0</asrwt>
<pdfrwt beam="2">  1        2 0.61639585E-03 0.87128403E+02</pdfrwt>
<pdfrwt beam="1">  1       -2 0.72874082E-01 0.87128403E+02</pdfrwt>
<totfact> 0.42550011E+04</totfact>
</mgrwt>
</event>
<event>
 7    1  0.3960685E-009  0.9495461E+02  0.7818608E-02  0.1291278E+00
          2   -1    0    0  501    0  0.00000000000E+00  0.00000000000E+00  0.94956254398E+01  0.94956257822E+01  0.25500000000E-02 0. -1.
         -2   -1    0    0    0  501 -0.00000000000E+00 -0.00000000000E+00 -0.23738243099E+03  0.23738243100E+03  0.25500000000E-02 0.  1.
         23    2    1    2    0    0  0.00000000000E+00 -0.17763568394E-14 -0.22788680555E+03  0.24687805679E+03  0.94954614309E+02 0.  0.
    9000005    2    3    3    0    0  0.28167969224E+02  0.13334853465E+02 -0.20696569254E+03  0.20934213030E+03  0.42516850743E+01 0.  0.
         22    1    3    3    0    0 -0.28167969224E+02 -0.13334853465E+02 -0.20921113015E+02  0.37535926483E+02  0.00000000000E+00 0. -1.
         22    1    4    4    0    0  0.11405150873E+02  0.74880798811E+01 -0.96217827384E+02  0.97180343245E+02  0.00000000000E+00 0.  1.
         22    1    4    4    0    0  0.16762818351E+02  0.58467735842E+01 -0.11074786515E+03  0.11216178706E+03  0.00000000000E+00 0.  1.
<mgrwt>
<rscale>  0 0.94954614E+02</rscale>
<asrwt>0</asrwt>
<pdfrwt beam="1">  1        2 0.14608657E-02 0.94954614E+02</pdfrwt>
<pdfrwt beam="2">  1       -2 0.36520370E-01 0.94954614E+02</pdfrwt>
<totfact> 0.51918996E+04</totfact>
</mgrwt>
</event>
<event>
 7    1  0.3960685E-009  0.9002528E+02  0.7818608E-02  0.1302790E+00
          2   -1    0    0  501    0  0.00000000000E+00  0.00000000000E+00  0.18618910640E+03  0.18618910642E+03  0.25500000000E-02 0. -1.
         -2   -1    0    0    0  501 -0.00000000000E+00 -0.00000000000E+00 -0.10882149487E+02  0.10882149786E+02  0.25500000000E-02 0.  1.
         23    2    1    2    0    0  0.88817841970E-15  0.71054273576E-14  0.17530695691E+03  0.19707125620E+03  0.90025279114E+02 0.  0.
    9000005    2    3    3    0    0  0.45935719448E+01  0.33385829338E+02  0.23299603649E+02  0.41372990477E+02  0.57565881433E+01 0.  0.
         22    1    3    3    0    0 -0.45935719448E+01 -0.33385829338E+02  0.15200735327E+03  0.15569826573E+03  0.00000000000E+00 0. -1.
         22    1    4    4    0    0 -0.11228266956E+01  0.33304550857E+01  0.33055984130E+01  0.48248991423E+01  0.00000000000E+00 0. -1.
         22    1    4    4    0    0  0.57163986404E+01  0.30055374252E+02  0.19994005236E+02  0.36548091335E+02  0.00000000000E+00 0. -1.
<mgrwt>
<rscale>  0 0.90025279E+02</rscale>
<asrwt>0</asrwt>
<pdfrwt beam="1">  1        2 0.28644478E-01 0.90025279E+02</pdfrwt>
<pdfrwt beam="2">  1       -2 0.16741769E-02 0.90025279E+02</pdfrwt>
<totfact> 0.15600161E+05</totfact>
</mgrwt>
</event>
<event>
 7    1  0.3960685E-009  0.9084671E+02  0.7818608E-02  0.1300814E+00
         -2   -1    0    0    0  501 -0.00000000000E+00  0.00000000000E+00  0.15108853157E+03  0.15108853159E+03  0.25500000000E-02 0.  1.
          2   -1    0    0  501    0  0.00000000000E+00 -0.00000000000E+00 -0.13656106353E+02  0.13656106591E+02  0.25500000000E-02 0. -1.
         23    2    1    2    0    0  0.00000000000E+00  0.00000000000E+00  0.13743242521E+03  0.16474463818E+03  0.90846707748E+02 0.  0.
    9000005    2    3    3    0    0 -0.82128322532E+01  0.27293763143E+02  0.13175620550E+03  0.13568229845E+03  0.15413899759E+02 0.  0.
         22    1    3    3    0    0  0.82128322532E+01 -0.27293763143E+02  0.56762197150E+01  0.29062339726E+02  0.00000000000E+00 0. -1.
         22    1    4    4    0    0 -0.38568131325E+01  0.53552881904E+01  0.10657840031E+02  0.12535695963E+02  0.00000000000E+00 0. -1.
         22    1    4    4    0    0 -0.43560191207E+01  0.21938474953E+02  0.12109836547E+03  0.12314660249E+03  0.00000000000E+00 0. -1.
<mgrwt>
<rscale>  0 0.90846708E+02</rscale>
<asrwt>0</asrwt>
<pdfrwt beam="2">  1        2 0.21009396E-02 0.90846708E+02</pdfrwt>
<pdfrwt beam="1">  1       -2 0.23244388E-01 0.90846708E+02</pdfrwt>
<totfact> 0.70315400E+04</totfact>
</mgrwt>
</event>
<event>
 7    1  0.3960685E-009  0.8911044E+02  0.7818608E-02  0.1305020E+00
         -2   -1    0    0    0  501 -0.00000000000E+00  0.00000000000E+00  0.68708878318E+02  0.68708878365E+02  0.25500000000E-02 0.  1.
          2   -1    0    0  501    0  0.00000000000E+00 -0.00000000000E+00 -0.28892448341E+02  0.28892448453E+02  0.25500000000E-02 0. -1.
         23    2    1    2    0    0  0.00000000000E+00  0.00000000000E+00  0.39816429977E+02  0.97601326819E+02  0.89110442153E+02 0.  0.
    9000005    2    3    3    0    0 -0.27122018840E+02 -0.20078260342E+02 -0.11915421279E+02  0.35836248670E+02  0.18759024932E+01 0.  0.
         22    1    3    3    0    0  0.27122018840E+02  0.20078260342E+02  0.51731851256E+02  0.61765078149E+02  0.00000000000E+00 0.  1.
         22    1    4    4    0    0 -0.49473911075E+01 -0.38009174266E+01 -0.29780095047E+01  0.69131897605E+01  0.00000000000E+00 0. -1.
         22    1    4    4    0    0 -0.22174627733E+02 -0.16277342915E+02 -0.89374117746E+01  0.28923058910E+02  0.00000000000E+00 0. -1.
<mgrwt>
<rscale>  0 0.89110442E+02</rscale>
<asrwt>0</asrwt>
<pdfrwt beam="2">  1        2 0.44449920E-02 0.89110442E+02</pdfrwt>
<pdfrwt beam="1">  1       -2 0.10570597E-01 0.89110442E+02</pdfrwt>
<totfact> 0.93743097E+04</totfact>
</mgrwt>
</event>
<event>
 7    1  0.3960685E-009  0.9061926E+02  0.7818608E-02  0.1301359E+00
         -2   -1    0    0    0  501 -0.00000000000E+00  0.00000000000E+00  0.24896982304E+01  0.24896995363E+01  0.25500000000E-02 0.  1.
          2   -1    0    0  501    0  0.00000000000E+00 -0.00000000000E+00 -0.82458271465E+03  0.82458271466E+03  0.25500000000E-02 0. -1.
         23    2    1    2    0    0 -0.88817841970E-15 -0.35527136788E-14 -0.82209301642E+03  0.82707241419E+03  0.90619262127E+02 0.  0.
    9000005    2    3    3    0    0 -0.57682626525E+01 -0.29271344936E+02 -0.72225883737E+03  0.72287573577E+03  0.11902561876E+01 0.  0.
         22    1    3    3    0    0  0.57682626525E+01  0.29271344936E+02 -0.99834179050E+02  0.10419667843E+03  0.00000000000E+00 0.  1.
         22    1    4    4    0    0 -0.55928697428E+01 -0.28504642223E+02 -0.70729502206E+03  0.70789126499E+03  0.00000000000E+00 0. -1.
         22    1    4    4    0    0 -0.17539290966E+00 -0.76670271300E+00 -0.14963815314E+02  0.14984470777E+02  0.00000000000E+00 0. -1.
<mgrwt>
<rscale>  0 0.90619262E+02</rscale>
<asrwt>0</asrwt>
<pdfrwt beam="2">  1        2 0.12685866E+00 0.90619262E+02</pdfrwt>
<pdfrwt beam="1">  1       -2 0.38303126E-03 0.90619262E+02</pdfrwt>
<totfact> 0.24897367E+05</totfact>
</mgrwt>
</event>
<event>
 7    1  0.3960685E-009  0.9167103E+02  0.7818608E-02  0.1298855E+00
          2   -1    0    0  501    0  0.00000000000E+00  0.00000000000E+00  0.91133842538E+02  0.91133842574E+02  0.25500000000E-02 0. -1.
         -2   -1    0    0    0  501 -0.00000000000E+00 -0.00000000000E+00 -0.23052847611E+02  0.23052847752E+02  0.25500000000E-02 0.  1.
         23    2    1    2    0    0  0.00000000000E+00  0.00000000000E+00  0.68080994928E+02  0.11418669033E+03  0.91671033468E+02 0.  0.
    9000005    2    3    3    0    0 -0.30137957252E+02 -0.17456955721E+02 -0.18546410449E+01  0.36058366721E+02  0.91501009164E+01 0.  0.
         22    1    3    3    0    0  0.30137957252E+02  0.17456955721E+02  0.69935635973E+02  0.78128323605E+02  0.00000000000E+00 0. -1.
         22    1    4    4    0    0 -0.27476435642E+02 -0.18348942772E+02 -0.26351233972E+01  0.33144865240E+02  0.00000000000E+00 0. -1.
         22    1    4    4    0    0 -0.26615216102E+01  0.89198705040E+00  0.78048235226E+00  0.29135014814E+01  0.00000000000E+00 0. -1.
<mgrwt>
<rscale>  0 0.91671033E+02</rscale>
<asrwt>0</asrwt>
<pdfrwt beam="1">  1        2 0.14020591E-01 0.91671033E+02</pdfrwt>
<pdfrwt beam="2">  1       -2 0.35465920E-02 0.91671033E+02</pdfrwt>
<totfact> 0.11752875E+05</totfact>
</mgrwt>
</event>
<event>
 7    1  0.3960685E-009  0.1053487E+03  0.7818608E-02  0.1269434E+00
          2   -1    0    0  501    0  0.00000000000E+00  0.00000000000E+00  0.42062272418E+03  0.42062272419E+03  0.25500000000E-02 0. -1.
         -2   -1    0    0    0  501 -0.00000000000E+00 -0.00000000000E+00 -0.65963761218E+01  0.65963766147E+01  0.25500000000E-02 0.  1.
         23    2    1    2    0    0  0.00000000000E+00  0.00000000000E+00  0.41402634806E+03  0.42721910081E+03  0.10534867443E+03 0.  0.
    9000005    2    3    3    0    0 -0.29594832696E+02 -0.29272889962E+02  0.33620789208E+03  0.33896680169E+03  0.11401304194E+02 0.  0.
         22    1    3    3    0    0  0.29594832696E+02  0.29272889962E+02  0.77818455977E+02  0.88252299118E+02  0.00000000000E+00 0.  1.
         22    1    4    4    0    0 -0.23038695401E+02 -0.27333281370E+02  0.25873735054E+03  0.26119514988E+03  0.00000000000E+00 0. -1.
         22    1    4    4    0    0 -0.65561372949E+01 -0.19396085922E+01  0.77470541540E+02  0.77771651804E+02  0.00000000000E+00 0. -1.
<mgrwt>
<rscale>  0 0.10534867E+03</rscale>
<asrwt>0</asrwt>
<pdfrwt beam="1">  1        2 0.64711186E-01 0.10534867E+03</pdfrwt>
<pdfrwt beam="2">  1       -2 0.10148272E-02 0.10534867E+03</pdfrwt>
<totfact> 0.13809911E+05</totfact>
</mgrwt>
</event>
<event>
 7    1  0.3960685E-009  0.9403573E+02  0.7818608E-02  0.1293363E+00
         -2   -1    0    0    0  501 -0.00000000000E+00  0.00000000000E+00  0.41461757502E+01  0.41461765343E+01  0.25500000000E-02 0.  1.
          2   -1    0    0  501    0  0.00000000000E+00 -0.00000000000E+00 -0.53318519995E+03  0.53318519995E+03  0.25500000000E-02 0. -1.
         23    2    1    2    0    0  0.00000000000E+00  0.00000000000E+00 -0.52903902420E+03  0.53733137649E+03  0.94035732755E+02 0.  0.
    9000005    2    3    3    0    0 -0.37223225030E+02 -0.28046244650E+02 -0.26885330373E+03  0.27300436414E+03  0.87820039569E+01 0.  0.
         22    1    3    3    0    0  0.37223225030E+02  0.28046244650E+02 -0.26018572046E+03  0.26432701234E+03  0.00000000000E+00 0.  1.
         22    1    4    4    0    0 -0.20630910934E+02 -0.10558298471E+02 -0.14243134668E+03  0.14430454140E+03  0.00000000000E+00 0. -1.
         22    1    4    4    0    0 -0.16592314095E+02 -0.17487946179E+02 -0.12642195706E+03  0.12869982274E+03  0.00000000000E+00 0. -1.
<mgrwt>
<rscale>  0 0.94035733E+02</rscale>
<asrwt>0</asrwt>
<pdfrwt beam="2">  1        2 0.82028438E-01 0.94035733E+02</pdfrwt>
<pdfrwt beam="1">  1       -2 0.63787368E-03 0.94035733E+02</pdfrwt>
<totfact> 0.20267643E+05</totfact>
</mgrwt>
</event>
<event>
 7    1  0.3960685E-009  0.9485649E+02  0.7818608E-02  0.1291500E+00
         -2   -1    0    0    0  501 -0.00000000000E+00  0.00000000000E+00  0.38853792978E+02  0.38853793062E+02  0.25500000000E-02 0.  1.
          2   -1    0    0  501    0  0.00000000000E+00 -0.00000000000E+00 -0.57894955912E+02  0.57894955968E+02  0.25500000000E-02 0. -1.
         23    2    1    2    0    0  0.00000000000E+00  0.00000000000E+00 -0.19041162933E+02  0.96748749030E+02  0.94856494522E+02 0.  0.
    9000005    2    3    3    0    0 -0.85351871394E+01 -0.38475730962E+02  0.15771882386E+02  0.44163775730E+02  0.12184232441E+02 0.  0.
         22    1    3    3    0    0  0.85351871394E+01  0.38475730962E+02 -0.34813045319E+02  0.52584973300E+02  0.00000000000E+00 0. -1.
         22    1    4    4    0    0 -0.57614107759E+01 -0.15993275180E+02  0.81568329974E+00  0.17018931940E+02  0.00000000000E+00 0.  1.
         22    1    4    4    0    0 -0.27737763635E+01 -0.22482455781E+02  0.14956199086E+02  0.27144843790E+02  0.00000000000E+00 0.  1.
<mgrwt>
<rscale>  0 0.94856495E+02</rscale>
<asrwt>0</asrwt>
<pdfrwt beam="2">  1        2 0.89069163E-02 0.94856495E+02</pdfrwt>
<pdfrwt beam="1">  1       -2 0.59775066E-02 0.94856495E+02</pdfrwt>
<totfact> 0.93898217E+04</totfact>
</mgrwt>
</event>
<event>
 7    1  0.3960685E-009  0.9443445E+02  0.7818608E-02  0.1292455E+00
         -2   -1    0    0    0  501 -0.00000000000E+00  0.00000000000E+00  0.97118508403E+02  0.97118508437E+02  0.25500000000E-02 0.  1.
          2   -1    0    0  501    0  0.00000000000E+00 -0.00000000000E+00 -0.22956143115E+02  0.22956143256E+02  0.25500000000E-02 0. -1.
         23    2    1    2    0    0 -0.35527136788E-14  0.00000000000E+00  0.74162365288E+02  0.12007465169E+03  0.94434451097E+02 0.  0.
    9000005    2    3    3    0    0  0.29803456594E+02 -0.20635955604E+02  0.74582262019E+02  0.83821858670E+02  0.12227080372E+02 0.  0.
         22    1    3    3    0    0 -0.29803456594E+02  0.20635955604E+02 -0.41989673070E+00  0.36252793022E+02  0.00000000000E+00 0. -1.
         22    1    4    4    0    0  0.22204597694E+02 -0.13563067509E+02  0.40024083246E+02  0.47738121022E+02  0.00000000000E+00 0.  1.
         22    1    4    4    0    0  0.75988589006E+01 -0.70728880947E+01  0.34558178773E+02  0.36083737649E+02  0.00000000000E+00 0.  1.
<mgrwt>
<rscale>  0 0.94434451E+02</rscale>
<asrwt>0</asrwt>
<pdfrwt beam="2">  1        2 0.35317143E-02 0.94434451E+02</pdfrwt>
<pdfrwt beam="1">  1       -2 0.14941309E-01 0.94434451E+02</pdfrwt>
<totfact> 0.73774661E+04</totfact>
</mgrwt>
</event>
<event>
 7    1  0.3960685E-009  0.1009371E+03  0.7818608E-02  0.1278338E+00
          2   -1    0    0  501    0  0.00000000000E+00  0.00000000000E+00  0.78614792903E+03  0.78614792904E+03  0.25500000000E-02 0.  1.
         -2   -1    0    0    0  501 -0.00000000000E+00 -0.00000000000E+00 -0.32399421823E+01  0.32399431858E+01  0.25500000000E-02 0. -1.
         23    2    1    2    0    0  0.00000000000E+00  0.00000000000E+00  0.78290798685E+03  0.78938787222E+03  0.10093709397E+03 0.  0.
    9000005    2    3    3    0    0  0.31112483543E+02  0.16220182973E+02  0.67429687938E+03  0.67525000106E+03  0.74297658108E+01 0.  0.
         22    1    3    3    0    0 -0.31112483543E+02 -0.16220182973E+02  0.10861110747E+03  0.11413787116E+03  0.00000000000E+00 0. -1.
         22    1    4    4    0    0  0.16267538833E+02  0.11286087169E+02  0.42705472284E+03  0.42751344410E+03  0.00000000000E+00 0.  1.
         22    1    4    4    0    0  0.14844944711E+02  0.49340958038E+01  0.24724215654E+03  0.24773655696E+03  0.00000000000E+00 0.  1.
<mgrwt>
<rscale>  0 0.10093709E+03</rscale>
<asrwt>0</asrwt>
<pdfrwt beam="1">  1        2 0.12094568E+00 0.10093709E+03</pdfrwt>
<pdfrwt beam="2">  1       -2 0.49845336E-03 0.10093709E+03</pdfrwt>
<totfact> 0.18558866E+05</totfact>
</mgrwt>
</event>
<event>
 7    1  0.3960685E-009  0.8998144E+02  0.7818608E-02  0.1302897E+00
          2   -1    0    0  501    0  0.00000000000E+00  0.00000000000E+00  0.51781950635E+03  0.51781950636E+03  0.25500000000E-02 0. -1.
         -2   -1    0    0    0  501 -0.00000000000E+00 -0.00000000000E+00 -0.39090155275E+01  0.39090163592E+01  0.25500000000E-02 0.  1.
         23    2    1    2    0    0  0.00000000000E+00  0.00000000000E+00  0.51391049083E+03  0.52172852272E+03  0.89981436072E+02 0.  0.
    9000005    2    3    3    0    0  0.23000741395E+02  0.19712056053E+01  0.48036038085E+03  0.48100347348E+03  0.92372209870E+01 0.  0.
         22    1    3    3    0    0 -0.23000741395E+02 -0.19712056053E+01  0.33550109975E+02  0.40725049240E+02  0.00000000000E+00 0.  1.
         22    1    4    4    0    0  0.23420114905E+02  0.21343400950E+01  0.43105491140E+03  0.43169595068E+03  0.00000000000E+00 0. -1.
         22    1    4    4    0    0 -0.41937351070E+00 -0.16313448965E+00  0.49305469447E+02  0.49307522797E+02  0.00000000000E+00 0. -1.
<mgrwt>
<rscale>  0 0.89981436E+02</rscale>
<asrwt>0</asrwt>
<pdfrwt beam="1">  1        2 0.79664566E-01 0.89981436E+02</pdfrwt>
<pdfrwt beam="2">  1       -2 0.60138687E-03 0.89981436E+02</pdfrwt>
<totfact> 0.22567256E+05</totfact>
</mgrwt>
</event>
<event>
 7    1  0.3960685E-009  0.9005525E+02  0.7818608E-02  0.1302718E+00
          2   -1    0    0  501    0  0.00000000000E+00  0.00000000000E+00  0.22781075606E+02  0.22781075749E+02  0.25500000000E-02 0. -1.
         -2   -1    0    0    0  501 -0.00000000000E+00 -0.00000000000E+00 -0.88998734350E+02  0.88998734386E+02  0.25500000000E-02 0.  1.
         23    2    1    2    0    0  0.00000000000E+00  0.00000000000E+00 -0.66217658744E+02  0.11177981013E+03  0.90055247622E+02 0.  0.
    9000005    2    3    3    0    0  0.26529807012E+02 -0.34551311064E+02 -0.40472115986E+02  0.61178854331E+02  0.14395703821E+02 0.  0.
         22    1    3    3    0    0 -0.26529807012E+02  0.34551311064E+02 -0.25745542758E+02  0.50600955804E+02  0.00000000000E+00 0. -1.
         22    1    4    4    0    0 -0.10476808093E+01 -0.21958848937E+01 -0.59023574263E+01  0.63841498049E+01  0.00000000000E+00 0.  1.
         22    1    4    4    0    0  0.27577487822E+02 -0.32355426171E+02 -0.34569758559E+02  0.54794704526E+02  0.00000000000E+00 0.  1.
<mgrwt>
<rscale>  0 0.90055248E+02</rscale>
<asrwt>0</asrwt>
<pdfrwt beam="1">  1        2 0.35047809E-02 0.90055248E+02</pdfrwt>
<pdfrwt beam="2">  1       -2 0.13692113E-01 0.90055248E+02</pdfrwt>
<totfact> 0.85133111E+04</totfact>
</mgrwt>
</event>
<event>
 7    1  0.3960685E-009  0.9320105E+02  0.7818608E-02  0.1295280E+00
          2   -1    0    0  501    0  0.00000000000E+00  0.00000000000E+00  0.43737983937E+03  0.43737983938E+03  0.25500000000E-02 0. -1.
         -2   -1    0    0    0  501 -0.00000000000E+00 -0.00000000000E+00 -0.49650408620E+01  0.49650415168E+01  0.25500000000E-02 0.  1.
         23    2    1    2    0    0  0.00000000000E+00  0.00000000000E+00  0.43241479851E+03  0.44234488090E+03  0.93201049805E+02 0.  0.
    9000005    2    3    3    0    0 -0.44296280439E+02 -0.88265191969E+01  0.19381378960E+03  0.19950643798E+03  0.14105525765E+02 0.  0.
         22    1    3    3    0    0  0.44296280439E+02  0.88265191969E+01  0.23860100892E+03  0.24283844292E+03  0.00000000000E+00 0.  1.
         22    1    4    4    0    0 -0.43997237546E+02 -0.83935828139E+01  0.17357961114E+03  0.17926541928E+03  0.00000000000E+00 0.  1.
         22    1    4    4    0    0 -0.29904289319E+00 -0.43293638305E+00  0.20234178452E+02  0.20241018705E+02  0.00000000000E+00 0.  1.
<mgrwt>
<rscale>  0 0.93201050E+02</rscale>
<asrwt>0</asrwt>
<pdfrwt beam="1">  1        2 0.67289184E-01 0.93201050E+02</pdfrwt>
<pdfrwt beam="2">  1       -2 0.76385274E-03 0.93201050E+02</pdfrwt>
<totfact> 0.19433975E+05</totfact>
</mgrwt>
</event>
<event>
 7    1  0.3960685E-009  0.9160460E+02  0.7818608E-02  0.1299012E+00
          2   -1    0    0  501    0  0.00000000000E+00  0.00000000000E+00  0.54359912218E+03  0.54359912218E+03  0.25500000000E-02 0. -1.
         -2   -1    0    0    0  501 -0.00000000000E+00 -0.00000000000E+00 -0.38591870239E+01  0.38591878664E+01  0.25500000000E-02 0.  1.
         23    2    1    2    0    0  0.00000000000E+00 -0.35527136788E-14  0.53973993515E+03  0.54745831005E+03  0.91604604923E+02 0.  0.
    9000005    2    3    3    0    0 -0.32229661169E+02 -0.30476953364E+02  0.29427498022E+03  0.29801765609E+03  0.15784917321E+02 0.  0.
         22    1    3    3    0    0  0.32229661169E+02  0.30476953364E+02  0.24546495494E+03  0.24944065396E+03  0.00000000000E+00 0. -1.
         22    1    4    4    0    0 -0.51812345126E+01 -0.15007151652E+02  0.10567111559E+03  0.10685712172E+03  0.00000000000E+00 0. -1.
         22    1    4    4    0    0 -0.27048426656E+02 -0.15469801712E+02  0.18860386463E+03  0.19116053437E+03  0.00000000000E+00 0. -1.
<mgrwt>
<rscale>  0 0.91604605E+02</rscale>
<asrwt>0</asrwt>
<pdfrwt beam="1">  1        2 0.83630634E-01 0.91604605E+02</pdfrwt>
<pdfrwt beam="2">  1       -2 0.59372115E-03 0.91604605E+02</pdfrwt>
<totfact> 0.21855463E+05</totfact>
</mgrwt>
</event>
<event>
 7    1  0.3960685E-009  0.9169031E+02  0.7818608E-02  0.1298809E+00
          2   -1    0    0  501    0  0.00000000000E+00  0.00000000000E+00  0.17135741347E+03  0.17135741349E+03  0.25500000000E-02 0. -1.
         -2   -1    0    0    0  501 -0.00000000000E+00 -0.00000000000E+00 -0.12265464590E+02  0.12265464855E+02  0.25500000000E-02 0.  1.
         23    2    1    2    0    0 -0.35527136788E-14  0.00000000000E+00  0.15909194888E+03  0.18362287835E+03  0.91690311663E+02 0.  0.
    9000005    2    3    3    0    0  0.29935881658E+02  0.10800503335E+02  0.17807811375E+02  0.38798794044E+02  0.13244636284E+02 0.  0.
         22    1    3    3    0    0 -0.29935881658E+02 -0.10800503335E+02  0.14128413751E+03  0.14482408430E+03  0.00000000000E+00 0. -1.
         22    1    4    4    0    0  0.28534984028E+00 -0.18088189044E+01 -0.27391762231E+00  0.18515618337E+01  0.00000000000E+00 0. -1.
         22    1    4    4    0    0  0.29650531818E+02  0.12609322239E+02  0.18081728998E+02  0.36947232210E+02  0.00000000000E+00 0. -1.
<mgrwt>
<rscale>  0 0.91690312E+02</rscale>
<asrwt>0</asrwt>
<pdfrwt beam="1">  1        2 0.26362678E-01 0.91690312E+02</pdfrwt>
<pdfrwt beam="2">  1       -2 0.18869947E-02 0.91690312E+02</pdfrwt>
<totfact> 0.14417717E+05</totfact>
</mgrwt>
</event>
<event>
 7    1  0.3960685E-009  0.9077420E+02  0.7818608E-02  0.1300988E+00
          2   -1    0    0  501    0  0.00000000000E+00  0.00000000000E+00  0.44973386595E+03  0.44973386595E+03  0.25500000000E-02 0. -1.
         -2   -1    0    0    0  501 -0.00000000000E+00 -0.00000000000E+00 -0.45804615967E+01  0.45804623065E+01  0.25500000000E-02 0.  1.
         23    2    1    2    0    0 -0.35527136788E-14  0.88817841970E-15  0.44515340435E+03  0.45431432826E+03  0.90774200401E+02 0.  0.
    9000005    2    3    3    0    0  0.19031268501E+02 -0.50265494143E+01  0.42662129311E+03  0.42727926720E+03  0.13205645016E+02 0.  0.
         22    1    3    3    0    0 -0.19031268501E+02  0.50265494143E+01  0.18532111240E+02  0.27035061065E+02  0.00000000000E+00 0.  1.
         22    1    4    4    0    0  0.13559060120E+02 -0.90649064393E+01  0.34021578644E+03  0.34060652076E+03  0.00000000000E+00 0.  1.
         22    1    4    4    0    0  0.54722083809E+01  0.40383570250E+01  0.86405506670E+02  0.86672746437E+02  0.00000000000E+00 0.  1.
<mgrwt>
<rscale>  0 0.90774200E+02</rscale>
<asrwt>0</asrwt>
<pdfrwt beam="1">  1        2 0.69189809E-01 0.90774200E+02</pdfrwt>
<pdfrwt beam="2">  1       -2 0.70468662E-03 0.90774200E+02</pdfrwt>
<totfact> 0.21045117E+05</totfact>
</mgrwt>
</event>
<event>
 7    1  0.3960685E-009  0.9107873E+02  0.7818608E-02  0.1300260E+00
         -2   -1    0    0    0  501 -0.00000000000E+00  0.00000000000E+00  0.17123144421E+02  0.17123144611E+02  0.25500000000E-02 0.  1.
          2   -1    0    0  501    0  0.00000000000E+00 -0.00000000000E+00 -0.12111289770E+03  0.12111289773E+03  0.25500000000E-02 0. -1.
         23    2    1    2    0    0  0.44408920985E-15  0.71054273576E-14 -0.10398975328E+03  0.13823604234E+03  0.91078727564E+02 0.  0.
    9000005    2    3    3    0    0  0.31317262536E+01 -0.40654256531E+02 -0.21934563008E+02  0.46608368933E+02  0.53515153708E+01 0.  0.
         22    1    3    3    0    0 -0.31317262536E+01  0.40654256531E+02 -0.82055190275E+02  0.91627673410E+02  0.00000000000E+00 0. -1.
         22    1    4    4    0    0  0.43582690498E+01 -0.35153267610E+02 -0.19807477374E+02  0.40584269030E+02  0.00000000000E+00 0.  1.
         22    1    4    4    0    0 -0.12265427962E+01 -0.55009889216E+01 -0.21270856343E+01  0.60240999031E+01  0.00000000000E+00 0.  1.
<mgrwt>
<rscale>  0 0.91078728E+02</rscale>
<asrwt>0</asrwt>
<pdfrwt beam="2">  1        2 0.18632753E-01 0.91078728E+02</pdfrwt>
<pdfrwt beam="1">  1       -2 0.26343300E-02 0.91078728E+02</pdfrwt>
<totfact> 0.13063324E+05</totfact>
</mgrwt>
</event>
