<event>
 7    1  0.3301067E-009  0.9069718E+02  0.7818608E-02  0.1301172E+00
          1   -1    0    0  501    0  0.00000000000E+00  0.00000000000E+00  0.38698862230E+03  0.38698862234E+03  0.50400000000E-02 0. -1.
         -1   -1    0    0    0  501 -0.00000000000E+00 -0.00000000000E+00 -0.53140944209E+01  0.53140968109E+01  0.50400000000E-02 0.  1.
         23    2    1    2    0    0  0.00000000000E+00  0.00000000000E+00  0.38167452788E+03  0.39230271915E+03  0.90697178655E+02 0.  0.
    9000005    2    3    3    0    0  0.44147203586E+02  0.25139032021E+01  0.15981410029E+03  0.16607861649E+03  0.92878904162E+01 0.  0.
         22    1    3    3    0    0 -0.44147203586E+02 -0.25139032021E+01  0.22186042759E+03  0.22622410266E+03  0.00000000000E+00 0.  1.
         22    1    4    4    0    0  0.18189600017E+02 -0.11135466420E+01  0.80849201050E+02  0.82877589524E+02  0.00000000000E+00 0.  1.
         22    1    4    4    0    0  0.25957603569E+02  0.36274498441E+01  0.78964899245E+02  0.83201026966E+02  0.00000000000E+00 0.  1.
<mgrwt>
<rscale>  0 0.90697179E+02</rscale>
<asrwt>0</asrwt>
<pdfrwt beam="1">  1        1 0.59536706E-01 0.90697179E+02</pdfrwt>
<pdfrwt beam="2">  1       -1 0.81755325E-03 0.90697179E+02</pdfrwt>
<totfact> 0.13604426E+05</totfact>
</mgrwt>
</event>
<event>
 7    1  0.3301067E-009  0.8790299E+02  0.7818608E-02  0.1308011E+00
         -1   -1    0    0    0  501 -0.00000000000E+00  0.00000000000E+00  0.19788933056E+02  0.19788933698E+02  0.50400000000E-02 0.  1.
          1   -1    0    0  501    0  0.00000000000E+00 -0.00000000000E+00 -0.97616878733E+02  0.97616878863E+02  0.50400000000E-02 0. -1.
         23    2    1    2    0    0  0.17763568394E-14  0.17763568394E-14 -0.77827945677E+02  0.11740581256E+03  0.87902990250E+02 0.  0.
    9000005    2    3    3    0    0 -0.14220085014E+02 -0.15600769407E+02 -0.89650527193E+02  0.93211427725E+02  0.14337308272E+02 0.  0.
         22    1    3    3    0    0  0.14220085014E+02  0.15600769407E+02  0.11822581516E+02  0.24194384837E+02  0.00000000000E+00 0.  1.
         22    1    4    4    0    0 -0.14284501249E+02 -0.18033974710E+02 -0.83003322467E+02  0.86132588260E+02  0.00000000000E+00 0.  1.
         22    1    4    4    0    0  0.64416234460E-01  0.24332053024E+01 -0.66472047263E+01  0.70788394648E+01  0.00000000000E+00 0.  1.
<mgrwt>
<rscale>  0 0.87902990E+02</rscale>
<asrwt>0</asrwt>
<pdfrwt beam="2">  1        1 0.15017981E-01 0.87902990E+02</pdfrwt>
<pdfrwt beam="1">  1       -1 0.30444514E-02 0.87902990E+02</pdfrwt>
<totfact> 0.11491162E+05</totfact>
</mgrwt>
</event>
<event>
 7    1  0.3301067E-009  0.9323581E+02  0.7818608E-02  0.1295200E+00
          1   -1    0    0  501    0  0.00000000000E+00  0.00000000000E+00  0.50405135542E+03  0.50405135544E+03  0.50400000000E-02 0. -1.
         -1   -1    0    0    0  501 -0.00000000000E+00 -0.00000000000E+00 -0.43115213656E+01  0.43115243113E+01  0.50400000000E-02 0.  1.
         23    2    1    2    0    0  0.17763568394E-14 -0.35527136788E-14  0.49973983405E+03  0.50836287976E+03  0.93235807357E+02 0.  0.
    9000005    2    3    3    0    0 -0.15117189968E+02  0.29805554214E+02  0.42536871670E+03  0.42682783458E+03  0.11249654896E+02 0.  0.
         22    1    3    3    0    0  0.15117189968E+02 -0.29805554214E+02  0.74371117356E+02  0.81535045172E+02  0.00000000000E+00 0.  1.
         22    1    4    4    0    0  0.35995720303E+00 -0.62433041263E+00  0.23676685762E+02  0.23687650925E+02  0.00000000000E+00 0. -1.
         22    1    4    4    0    0 -0.15477147171E+02  0.30429884627E+02  0.40169203094E+03  0.40314018366E+03  0.00000000000E+00 0. -1.
<mgrwt>
<rscale>  0 0.93235807E+02</rscale>
<asrwt>0</asrwt>
<pdfrwt beam="1">  1        1 0.77546318E-01 0.93235807E+02</pdfrwt>
<pdfrwt beam="2">  1       -1 0.66331159E-03 0.93235807E+02</pdfrwt>
<totfact> 0.13137626E+05</totfact>
</mgrwt>
</event>
<event>
 7    1  0.3301067E-009  0.9247164E+02  0.7818608E-02  0.1296974E+00
         -1   -1    0    0    0  501 -0.00000000000E+00  0.00000000000E+00  0.22963489491E+02  0.22963490044E+02  0.50400000000E-02 0.  1.
          1   -1    0    0  501    0  0.00000000000E+00 -0.00000000000E+00 -0.93093482399E+02  0.93093482536E+02  0.50400000000E-02 0. -1.
         23    2    1    2    0    0 -0.71054273576E-14  0.35527136788E-14 -0.70129992908E+02  0.11605697258E+03  0.92471644190E+02 0.  0.
    9000005    2    3    3    0    0  0.41158115838E+02 -0.19106297028E+02 -0.45177499608E+02  0.64272148478E+02  0.55553140034E+01 0.  0.
         22    1    3    3    0    0 -0.41158115838E+02  0.19106297028E+02 -0.24952493300E+02  0.51784824102E+02  0.00000000000E+00 0.  1.
         22    1    4    4    0    0  0.37357739594E+02 -0.18948417687E+02 -0.40829559446E+02  0.58495266176E+02  0.00000000000E+00 0. -1.
         22    1    4    4    0    0  0.38003762435E+01 -0.15787934140E+00 -0.43479401616E+01  0.57768823017E+01  0.00000000000E+00 0. -1.
<mgrwt>
<rscale>  0 0.92471644E+02</rscale>
<asrwt>0</asrwt>
<pdfrwt beam="2">  1        1 0.14322074E-01 0.92471644E+02</pdfrwt>
<pdfrwt beam="1">  1       -1 0.35328446E-02 0.92471644E+02</pdfrwt>
<totfact> 0.99318825E+04</totfact>
</mgrwt>
</event>
<event>
 7    1  0.3301067E-009  0.9154649E+02  0.7818608E-02  0.1299149E+00
         -1   -1    0    0    0  501 -0.00000000000E+00  0.00000000000E+00  0.98861560685E+02  0.98861560814E+02  0.50400000000E-02 0.  1.
          1   -1    0    0  501    0  0.00000000000E+00 -0.00000000000E+00 -0.21193168234E+02  0.21193168833E+02  0.50400000000E-02 0. -1.
         23    2    1    2    0    0  0.00000000000E+00  0.00000000000E+00  0.77668392451E+02  0.12005472965E+03  0.91546485048E+02 0.  0.
    9000005    2    3    3    0    0  0.34907970949E+02  0.58694769100E+01  0.75654205736E+02  0.84599488242E+02  0.13434930973E+02 0.  0.
         22    1    3    3    0    0 -0.34907970949E+02 -0.58694769100E+01  0.20141867147E+01  0.35455241405E+02  0.00000000000E+00 0. -1.
         22    1    4    4    0    0  0.20143363396E+02  0.51399749106E+01  0.57770198791E+02  0.61396826460E+02  0.00000000000E+00 0.  1.
         22    1    4    4    0    0  0.14764607553E+02  0.72950199945E+00  0.17884006945E+02  0.23202661782E+02  0.00000000000E+00 0.  1.
<mgrwt>
<rscale>  0 0.91546485E+02</rscale>
<asrwt>0</asrwt>
<pdfrwt beam="2">  1        1 0.32604874E-02 0.91546485E+02</pdfrwt>
<pdfrwt beam="1">  1       -1 0.15209471E-01 0.91546485E+02</pdfrwt>
<totfact> 0.80697673E+04</totfact>
</mgrwt>
</event>
<event>
 7    1  0.3301067E-009  0.9052211E+02  0.7818608E-02  0.1301592E+00
          1   -1    0    0  501    0  0.00000000000E+00  0.00000000000E+00  0.74899977700E+02  0.74899977870E+02  0.50400000000E-02 0. -1.
         -1   -1    0    0    0  501 -0.00000000000E+00 -0.00000000000E+00 -0.27350651124E+02  0.27350651588E+02  0.50400000000E-02 0.  1.
         23    2    1    2    0    0  0.00000000000E+00  0.00000000000E+00  0.47549326576E+02  0.10225062946E+03  0.90522112031E+02 0.  0.
    9000005    2    3    3    0    0  0.10710246989E+02  0.13032442004E+02 -0.22450360123E+02  0.30247087370E+02  0.11238936317E+02 0.  0.
         22    1    3    3    0    0 -0.10710246989E+02 -0.13032442004E+02  0.69999686699E+02  0.72003542088E+02  0.00000000000E+00 0. -1.
         22    1    4    4    0    0  0.26794113015E+01 -0.82379659685E+00 -0.86943147397E+01  0.91350421207E+01  0.00000000000E+00 0. -1.
         22    1    4    4    0    0  0.80308356876E+01  0.13856238601E+02 -0.13756045383E+02  0.21112045249E+02  0.00000000000E+00 0. -1.
<mgrwt>
<rscale>  0 0.90522112E+02</rscale>
<asrwt>0</asrwt>
<pdfrwt beam="1">  1        1 0.11523073E-01 0.90522112E+02</pdfrwt>
<pdfrwt beam="2">  1       -1 0.42077926E-02 0.90522112E+02</pdfrwt>
<totfact> 0.10170300E+05</totfact>
</mgrwt>
</event>
<event>
 7    1  0.3301067E-009  0.7301151E+02  0.7818608E-02  0.1350142E+00
         -1   -1    0    0    0  501 -0.00000000000E+00  0.00000000000E+00  0.25605051769E+01  0.25605101372E+01  0.50400000000E-02 0.  1.
          1   -1    0    0  501    0  0.00000000000E+00 -0.00000000000E+00 -0.52047100171E+03  0.52047100174E+03  0.50400000000E-02 0. -1.
         23    2    1    2    0    0 -0.22204460493E-15  0.00000000000E+00 -0.51791049654E+03  0.52303151187E+03  0.73011505885E+02 0.  0.
    9000005    2    3    3    0    0  0.10777747050E+01  0.23681629282E+02 -0.45615772401E+03  0.45688481068E+03  0.10093557158E+02 0.  0.
         22    1    3    3    0    0 -0.10777747050E+01 -0.23681629282E+02 -0.61752772528E+02  0.66146701193E+02  0.00000000000E+00 0.  1.
         22    1    4    4    0    0 -0.20822407480E+01  0.19610510329E+02 -0.40169626342E+03  0.40218005406E+03  0.00000000000E+00 0. -1.
         22    1    4    4    0    0  0.31600154530E+01  0.40711189527E+01 -0.54461460590E+02  0.54704756620E+02  0.00000000000E+00 0. -1.
<mgrwt>
<rscale>  0 0.73011506E+02</rscale>
<asrwt>0</asrwt>
<pdfrwt beam="2">  1        1 0.80072378E-01 0.73011506E+02</pdfrwt>
<pdfrwt beam="1">  1       -1 0.39392467E-03 0.73011506E+02</pdfrwt>
<totfact> 0.25037084E+05</totfact>
</mgrwt>
</event>
<event>
 6    1  0.3301067E-009  0.1324320E+03  0.7818608E-02  0.1223891E+00
          1   -1    0    0  501    0  0.00000000000E+00  0.00000000000E+00  0.22483036937E+04  0.22483036938E+04  0.50400000000E-02 0. -1.
         -1   -1    0    0    0  501 -0.00000000000E+00 -0.00000000000E+00 -0.19501588270E+01  0.19501653397E+01  0.50400000000E-02 0.  1.
    9000005    2    1    2    0    0 -0.67865461817E+01  0.18187158773E+02  0.21988565734E+04  0.21989431262E+04  0.19524489019E+01 0.  0.
         22    1    1    2    0    0  0.67865461817E+01 -0.18187158773E+02  0.47496961533E+02  0.51310732875E+02  0.00000000000E+00 0.  1.
         22    1    3    3    0    0 -0.13275548184E+01  0.24040414076E+01  0.37747259204E+03  0.37748258180E+03  0.00000000000E+00 0.  1.
         22    1    3    3    0    0 -0.54589913633E+01  0.15783117366E+02  0.18213839813E+04  0.18214605444E+04  0.00000000000E+00 0.  1.
<mgrwt>
<rscale>  0 0.13243197E+03</rscale>
<asrwt>0</asrwt>
<pdfrwt beam="1">  1        1 0.34589300E+00 0.13243197E+03</pdfrwt>
<pdfrwt beam="2">  1       -1 0.30002483E-03 0.13243197E+03</pdfrwt>
<totfact> 0.23816180E+04</totfact>
</mgrwt>
</event>
<event>
 7    1  0.3301067E-009  0.9381076E+02  0.7818608E-02  0.1293877E+00
          1   -1    0    0  501    0  0.00000000000E+00  0.00000000000E+00  0.39559188709E+02  0.39559189030E+02  0.50400000000E-02 0. -1.
         -1   -1    0    0    0  501 -0.00000000000E+00 -0.00000000000E+00 -0.55615769479E+02  0.55615769707E+02  0.50400000000E-02 0.  1.
         23    2    1    2    0    0  0.00000000000E+00  0.00000000000E+00 -0.16056580769E+02  0.95174958738E+02  0.93810761561E+02 0.  0.
    9000005    2    3    3    0    0  0.15997610944E+02  0.11936122983E+02  0.34126059483E+02  0.41168551984E+02  0.11483342232E+02 0.  0.
         22    1    3    3    0    0 -0.15997610944E+02 -0.11936122983E+02 -0.50182640252E+02  0.54006406754E+02  0.00000000000E+00 0.  1.
         22    1    4    4    0    0  0.63312876805E+01  0.24693075910E+01  0.21909979138E+02  0.22939700728E+02  0.00000000000E+00 0.  1.
         22    1    4    4    0    0  0.96663232634E+01  0.94668153920E+01  0.12216080345E+02  0.18228851255E+02  0.00000000000E+00 0.  1.
<mgrwt>
<rscale>  0 0.93810762E+02</rscale>
<asrwt>0</asrwt>
<pdfrwt beam="1">  1        1 0.60860290E-02 0.93810762E+02</pdfrwt>
<pdfrwt beam="2">  1       -1 0.85562723E-02 0.93810762E+02</pdfrwt>
<totfact> 0.83488420E+04</totfact>
</mgrwt>
</event>
<event>
 7    1  0.3301067E-009  0.9125737E+02  0.7818608E-02  0.1299835E+00
          1   -1    0    0  501    0  0.00000000000E+00  0.00000000000E+00  0.72105596287E+03  0.72105596288E+03  0.50400000000E-02 0. -1.
         -1   -1    0    0    0  501 -0.00000000000E+00 -0.00000000000E+00 -0.28873976925E+01  0.28874020912E+01  0.50400000000E-02 0.  1.
         23    2    1    2    0    0 -0.17763568394E-14  0.00000000000E+00  0.71816856517E+03  0.72394336498E+03  0.91257370594E+02 0.  0.
    9000005    2    3    3    0    0  0.14442195931E+02  0.30613013299E+01  0.70140968970E+03  0.70160934393E+03  0.78848010187E+01 0.  0.
         22    1    3    3    0    0 -0.14442195931E+02 -0.30613013299E+01  0.16758875472E+02  0.22334021050E+02  0.00000000000E+00 0.  1.
         22    1    4    4    0    0  0.80565428512E+00  0.57422293125E+00  0.79760692744E+01  0.80371942786E+01  0.00000000000E+00 0.  1.
         22    1    4    4    0    0  0.13636541646E+02  0.24870783987E+01  0.69343362043E+03  0.69357214965E+03  0.00000000000E+00 0.  1.
<mgrwt>
<rscale>  0 0.91257371E+02</rscale>
<asrwt>0</asrwt>
<pdfrwt beam="1">  1        1 0.11093162E+00 0.91257371E+02</pdfrwt>
<pdfrwt beam="2">  1       -1 0.44421563E-03 0.91257371E+02</pdfrwt>
<totfact> 0.14177308E+05</totfact>
</mgrwt>
</event>
<event>
 7    1  0.3301067E-009  0.8886553E+02  0.7818608E-02  0.1305622E+00
          1   -1    0    0  501    0  0.00000000000E+00  0.00000000000E+00  0.33181458738E+02  0.33181459121E+02  0.50400000000E-02 0. -1.
         -1   -1    0    0    0  501 -0.00000000000E+00 -0.00000000000E+00 -0.59499204793E+02  0.59499205007E+02  0.50400000000E-02 0.  1.
         23    2    1    2    0    0  0.17763568394E-14  0.00000000000E+00 -0.26317746055E+02  0.92680664127E+02  0.88865526193E+02 0.  0.
    9000005    2    3    3    0    0  0.12881787552E+02 -0.10694853378E+02  0.29454687157E+02  0.34449361156E+02  0.62337427986E+01 0.  0.
         22    1    3    3    0    0 -0.12881787552E+02  0.10694853378E+02 -0.55772433212E+02  0.58231302971E+02  0.00000000000E+00 0.  1.
         22    1    4    4    0    0  0.65691198641E+01 -0.25845009045E+01  0.16244711695E+02  0.17712245447E+02  0.00000000000E+00 0. -1.
         22    1    4    4    0    0  0.63126676880E+01 -0.81103524732E+01  0.13209975462E+02  0.16737115710E+02  0.00000000000E+00 0. -1.
<mgrwt>
<rscale>  0 0.88865526E+02</rscale>
<asrwt>0</asrwt>
<pdfrwt beam="1">  1        1 0.51048399E-02 0.88865526E+02</pdfrwt>
<pdfrwt beam="2">  1       -1 0.91537238E-02 0.88865526E+02</pdfrwt>
<totfact> 0.94761093E+04</totfact>
</mgrwt>
</event>
<event>
 7    1  0.3301067E-009  0.9179460E+02  0.7818608E-02  0.1298563E+00
         -1   -1    0    0    0  501 -0.00000000000E+00  0.00000000000E+00  0.37340502310E+02  0.37340502650E+02  0.50400000000E-02 0.  1.
          1   -1    0    0  501    0  0.00000000000E+00 -0.00000000000E+00 -0.56414936542E+02  0.56414936767E+02  0.50400000000E-02 0. -1.
         23    2    1    2    0    0  0.00000000000E+00  0.35527136788E-14 -0.19074434232E+02  0.93755439417E+02  0.91794598855E+02 0.  0.
    9000005    2    3    3    0    0  0.23790674302E+02 -0.22488392431E+02 -0.41157976111E+02  0.54266114280E+02  0.13383130561E+02 0.  0.
         22    1    3    3    0    0 -0.23790674302E+02  0.22488392431E+02  0.22083541880E+02  0.39489325137E+02  0.00000000000E+00 0.  1.
         22    1    4    4    0    0  0.15913632275E+02 -0.61287798764E+01 -0.22490721135E+02  0.28224779399E+02  0.00000000000E+00 0. -1.
         22    1    4    4    0    0  0.78770420262E+01 -0.16359612554E+02 -0.18667254976E+02  0.26041334880E+02  0.00000000000E+00 0. -1.
<mgrwt>
<rscale>  0 0.91794599E+02</rscale>
<asrwt>0</asrwt>
<pdfrwt beam="2">  1        1 0.86792211E-02 0.91794599E+02</pdfrwt>
<pdfrwt beam="1">  1       -1 0.57446927E-02 0.91794599E+02</pdfrwt>
<totfact> 0.93700622E+04</totfact>
</mgrwt>
</event>
<event>
 7    1  0.3301067E-009  0.9181929E+02  0.7818608E-02  0.1298505E+00
          1   -1    0    0  501    0  0.00000000000E+00  0.00000000000E+00  0.39662866463E+02  0.39662866783E+02  0.50400000000E-02 0. -1.
         -1   -1    0    0    0  501 -0.00000000000E+00 -0.00000000000E+00 -0.53140268349E+02  0.53140268588E+02  0.50400000000E-02 0.  1.
         23    2    1    2    0    0  0.00000000000E+00  0.17763568394E-14 -0.13477401886E+02  0.92803135371E+02  0.91819287588E+02 0.  0.
    9000005    2    3    3    0    0 -0.23113184979E+02 -0.13257054134E+02 -0.43421589858E+02  0.52720430902E+02  0.13566155111E+02 0.  0.
         22    1    3    3    0    0  0.23113184979E+02  0.13257054134E+02  0.29944187973E+02  0.40082704469E+02  0.00000000000E+00 0. -1.
         22    1    4    4    0    0 -0.11319441525E+02 -0.13365305859E+02 -0.30901753139E+02  0.35520128156E+02  0.00000000000E+00 0.  1.
         22    1    4    4    0    0 -0.11793743454E+02  0.10825172470E+00 -0.12519836719E+02  0.17200302746E+02  0.00000000000E+00 0.  1.
<mgrwt>
<rscale>  0 0.91819288E+02</rscale>
<asrwt>0</asrwt>
<pdfrwt beam="1">  1        1 0.61019794E-02 0.91819288E+02</pdfrwt>
<pdfrwt beam="2">  1       -1 0.81754260E-02 0.91819288E+02</pdfrwt>
<totfact> 0.88765319E+04</totfact>
</mgrwt>
</event>
<event>
 7    1  0.3301067E-009  0.9103951E+02  0.7818608E-02  0.1300354E+00
          1   -1    0    0  501    0  0.00000000000E+00  0.00000000000E+00  0.71117666653E+02  0.71117666831E+02  0.50400000000E-02 0. -1.
         -1   -1    0    0    0  501 -0.00000000000E+00 -0.00000000000E+00 -0.29135491236E+02  0.29135491672E+02  0.50400000000E-02 0.  1.
         23    2    1    2    0    0  0.00000000000E+00  0.00000000000E+00  0.41982175416E+02  0.10025315850E+03  0.91039511956E+02 0.  0.
    9000005    2    3    3    0    0 -0.41177546634E+02 -0.12855195451E+02  0.32003029332E+02  0.55976417956E+02  0.15758143416E+02 0.  0.
         22    1    3    3    0    0  0.41177546634E+02  0.12855195451E+02  0.99791460846E+01  0.44276740547E+02  0.00000000000E+00 0. -1.
         22    1    4    4    0    0 -0.95387999901E+01  0.34307831232E+01  0.49792201855E+01  0.11293874966E+02  0.00000000000E+00 0.  1.
         22    1    4    4    0    0 -0.31638746644E+02 -0.16285978574E+02  0.27023809146E+02  0.44682542990E+02  0.00000000000E+00 0.  1.
<mgrwt>
<rscale>  0 0.91039512E+02</rscale>
<asrwt>0</asrwt>
<pdfrwt beam="1">  1        1 0.10941180E-01 0.91039512E+02</pdfrwt>
<pdfrwt beam="2">  1       -1 0.44823833E-02 0.91039512E+02</pdfrwt>
<totfact> 0.99320953E+04</totfact>
</mgrwt>
</event>
<event>
 7    1  0.3301067E-009  0.8975017E+02  0.7818608E-02  0.1303458E+00
         -1   -1    0    0    0  501 -0.00000000000E+00  0.00000000000E+00  0.68933847415E+01  0.68933865840E+01  0.50400000000E-02 0.  1.
          1   -1    0    0  501    0  0.00000000000E+00 -0.00000000000E+00 -0.29213121213E+03  0.29213121217E+03  0.50400000000E-02 0. -1.
         23    2    1    2    0    0  0.00000000000E+00  0.00000000000E+00 -0.28523782739E+03  0.29902459875E+03  0.89750167068E+02 0.  0.
    9000005    2    3    3    0    0  0.40253086319E+02 -0.64360215298E+00 -0.20708392796E+03  0.21111124836E+03  0.79674828745E+01 0.  0.
         22    1    3    3    0    0 -0.40253086319E+02  0.64360215298E+00 -0.78153899425E+02  0.87913350393E+02  0.00000000000E+00 0.  1.
         22    1    4    4    0    0  0.12372756744E+01  0.30973921192E+00 -0.21968783603E+01  0.25402881733E+01  0.00000000000E+00 0.  1.
         22    1    4    4    0    0  0.39015810645E+02 -0.95334136489E+00 -0.20488704960E+03  0.20857096019E+03  0.00000000000E+00 0.  1.
<mgrwt>
<rscale>  0 0.89750167E+02</rscale>
<asrwt>0</asrwt>
<pdfrwt beam="2">  1        1 0.44943254E-01 0.89750167E+02</pdfrwt>
<pdfrwt beam="1">  1       -1 0.10605211E-02 0.89750167E+02</pdfrwt>
<totfact> 0.13293738E+05</totfact>
</mgrwt>
</event>
<event>
 7    1  0.3301067E-009  0.9010578E+02  0.7818608E-02  0.1302596E+00
          1   -1    0    0  501    0  0.00000000000E+00  0.00000000000E+00  0.17807259354E+02  0.17807260067E+02  0.50400000000E-02 0. -1.
         -1   -1    0    0    0  501 -0.00000000000E+00 -0.00000000000E+00 -0.11398512519E+03  0.11398512530E+03  0.50400000000E-02 0.  1.
         23    2    1    2    0    0  0.00000000000E+00  0.71054273576E-14 -0.96177865836E+02  0.13179238537E+03  0.90105776531E+02 0.  0.
    9000005    2    3    3    0    0 -0.24340904828E+02 -0.37482902649E+02 -0.48234057985E+02  0.66248077072E+02  0.80520635300E+01 0.  0.
         22    1    3    3    0    0  0.24340904828E+02  0.37482902649E+02 -0.47943807850E+02  0.65544308296E+02  0.00000000000E+00 0.  1.
         22    1    4    4    0    0 -0.20336921921E+02 -0.34734993312E+02 -0.45190748709E+02  0.60517054807E+02  0.00000000000E+00 0. -1.
         22    1    4    4    0    0 -0.40039829076E+01 -0.27479093369E+01 -0.30433092761E+01  0.57310222647E+01  0.00000000000E+00 0. -1.
<mgrwt>
<rscale>  0 0.90105777E+02</rscale>
<asrwt>0</asrwt>
<pdfrwt beam="1">  1        1 0.27395785E-02 0.90105777E+02</pdfrwt>
<pdfrwt beam="2">  1       -1 0.17536173E-01 0.90105777E+02</pdfrwt>
<totfact> 0.81805482E+04</totfact>
</mgrwt>
</event>
<event>
 7    1  0.3301067E-009  0.9100485E+02  0.7818608E-02  0.1300436E+00
         -1   -1    0    0    0  501 -0.00000000000E+00  0.00000000000E+00  0.15801308442E+02  0.15801309246E+02  0.50400000000E-02 0.  1.
          1   -1    0    0  501    0  0.00000000000E+00 -0.00000000000E+00 -0.13103158646E+03  0.13103158655E+03  0.50400000000E-02 0. -1.
         23    2    1    2    0    0  0.00000000000E+00  0.00000000000E+00 -0.11523027802E+03  0.14683289580E+03  0.91004847770E+02 0.  0.
    9000005    2    3    3    0    0  0.33269471216E+02  0.97304818372E+01 -0.14065452231E+02  0.39894306097E+02  0.13862853989E+02 0.  0.
         22    1    3    3    0    0 -0.33269471216E+02 -0.97304818372E+01 -0.10116482578E+03  0.10693858970E+03  0.00000000000E+00 0. -1.
         22    1    4    4    0    0  0.18144241095E+02 -0.21551331348E+00 -0.22672908078E+01  0.18286621845E+02  0.00000000000E+00 0. -1.
         22    1    4    4    0    0  0.15125230121E+02  0.99459951507E+01 -0.11798161424E+02  0.21607684252E+02  0.00000000000E+00 0. -1.
<mgrwt>
<rscale>  0 0.91004848E+02</rscale>
<asrwt>0</asrwt>
<pdfrwt beam="2">  1        1 0.20158705E-01 0.91004848E+02</pdfrwt>
<pdfrwt beam="1">  1       -1 0.24309707E-02 0.91004848E+02</pdfrwt>
<totfact> 0.10998185E+05</totfact>
</mgrwt>
</event>
<event>
 7    1  0.3301067E-009  0.9088817E+02  0.7818608E-02  0.1300715E+00
          1   -1    0    0  501    0  0.00000000000E+00  0.00000000000E+00  0.12725812165E+03  0.12725812175E+03  0.50400000000E-02 0. -1.
         -1   -1    0    0    0  501 -0.00000000000E+00 -0.00000000000E+00 -0.16228156098E+02  0.16228156880E+02  0.50400000000E-02 0.  1.
         23    2    1    2    0    0  0.00000000000E+00  0.00000000000E+00  0.11102996555E+03  0.14348627863E+03  0.90888167020E+02 0.  0.
    9000005    2    3    3    0    0 -0.20578495346E+02 -0.33540494865E+02  0.25214957272E+02  0.49079420231E+02  0.14985197814E+02 0.  0.
         22    1    3    3    0    0  0.20578495346E+02  0.33540494865E+02  0.85815008276E+02  0.94406858395E+02  0.00000000000E+00 0.  1.
         22    1    4    4    0    0 -0.14150052691E+01  0.15012516094E+01  0.20494234467E+01  0.29079430479E+01  0.00000000000E+00 0. -1.
         22    1    4    4    0    0 -0.19163490077E+02 -0.35041746474E+02  0.23165533825E+02  0.46171477183E+02  0.00000000000E+00 0. -1.
<mgrwt>
<rscale>  0 0.90888167E+02</rscale>
<asrwt>0</asrwt>
<pdfrwt beam="1">  1        1 0.19578173E-01 0.90888167E+02</pdfrwt>
<pdfrwt beam="2">  1       -1 0.24966394E-02 0.90888167E+02</pdfrwt>
<totfact> 0.10979341E+05</totfact>
</mgrwt>
</event>
<event>
 7    1  0.3301067E-009  0.9265138E+02  0.7818608E-02  0.1296555E+00
          1   -1    0    0  501    0  0.00000000000E+00  0.00000000000E+00  0.10735800487E+02  0.10735801670E+02  0.50400000000E-02 0. -1.
         -1   -1    0    0    0  501 -0.00000000000E+00 -0.00000000000E+00 -0.19989840348E+03  0.19989840354E+03  0.50400000000E-02 0.  1.
         23    2    1    2    0    0  0.00000000000E+00  0.00000000000E+00 -0.18916260299E+03  0.21063420521E+03  0.92651379024E+02 0.  0.
    9000005    2    3    3    0    0 -0.18627412763E+02 -0.22554467938E+02 -0.18779802528E+02  0.37758575861E+02  0.14742609600E+02 0.  0.
         22    1    3    3    0    0  0.18627412763E+02  0.22554467938E+02 -0.17038280046E+03  0.17287562935E+03  0.00000000000E+00 0.  1.
         22    1    4    4    0    0 -0.44648053457E+01 -0.32495412399E+01 -0.11461233270E+02  0.12722180360E+02  0.00000000000E+00 0.  1.
         22    1    4    4    0    0 -0.14162607417E+02 -0.19304926698E+02 -0.73185692580E+01  0.25036395500E+02  0.00000000000E+00 0.  1.
<mgrwt>
<rscale>  0 0.92651379E+02</rscale>
<asrwt>0</asrwt>
<pdfrwt beam="1">  1        1 0.16516619E-02 0.92651379E+02</pdfrwt>
<pdfrwt beam="2">  1       -1 0.30753598E-01 0.92651379E+02</pdfrwt>
<totfact> 0.66588645E+04</totfact>
</mgrwt>
</event>
<event>
 7    1  0.3301067E-009  0.9396622E+02  0.7818608E-02  0.1293522E+00
         -1   -1    0    0    0  501 -0.00000000000E+00  0.00000000000E+00  0.18272909900E+02  0.18272910595E+02  0.50400000000E-02 0.  1.
          1   -1    0    0  501    0  0.00000000000E+00 -0.00000000000E+00 -0.12080246795E+03  0.12080246806E+03  0.50400000000E-02 0. -1.
         23    2    1    2    0    0  0.00000000000E+00  0.00000000000E+00 -0.10252955805E+03  0.13907537865E+03  0.93966220914E+02 0.  0.
    9000005    2    3    3    0    0  0.33912836045E+02  0.29718858344E+02 -0.40845029366E+02  0.62666792296E+02  0.15017304779E+02 0.  0.
         22    1    3    3    0    0 -0.33912836045E+02 -0.29718858344E+02 -0.61684528684E+02  0.76408586355E+02  0.00000000000E+00 0. -1.
         22    1    4    4    0    0  0.18486660078E+02  0.19137931435E+02 -0.14343558455E+02  0.30228375570E+02  0.00000000000E+00 0. -1.
         22    1    4    4    0    0  0.15426175966E+02  0.10580926909E+02 -0.26501470911E+02  0.32438416725E+02  0.00000000000E+00 0. -1.
<mgrwt>
<rscale>  0 0.93966221E+02</rscale>
<asrwt>0</asrwt>
<pdfrwt beam="2">  1        1 0.18584995E-01 0.93966221E+02</pdfrwt>
<pdfrwt beam="1">  1       -1 0.28112170E-02 0.93966221E+02</pdfrwt>
<totfact> 0.99378243E+04</totfact>
</mgrwt>
</event>
<event>
 7    1  0.3301067E-009  0.9401369E+02  0.7818608E-02  0.1293413E+00
          1   -1    0    0  501    0  0.00000000000E+00  0.00000000000E+00  0.12542134377E+02  0.12542135390E+02  0.50400000000E-02 0. -1.
         -1   -1    0    0    0  501 -0.00000000000E+00 -0.00000000000E+00 -0.17617762375E+03  0.17617762383E+03  0.50400000000E-02 0.  1.
         23    2    1    2    0    0  0.00000000000E+00 -0.88817841970E-15 -0.16363548938E+03  0.18871975922E+03  0.94013691210E+02 0.  0.
    9000005    2    3    3    0    0 -0.43144637128E+02  0.53768635443E+01 -0.53981559109E+02  0.70760635797E+02  0.14236870447E+02 0.  0.
         22    1    3    3    0    0  0.43144637128E+02 -0.53768635443E+01 -0.10965393027E+03  0.11795912342E+03  0.00000000000E+00 0.  1.
         22    1    4    4    0    0 -0.30993425173E+01  0.35493159394E+01 -0.11105251622E+02  0.12063589071E+02  0.00000000000E+00 0.  1.
         22    1    4    4    0    0 -0.40045294611E+02  0.18275476049E+01 -0.42876307487E+02  0.58697046726E+02  0.00000000000E+00 0.  1.
<mgrwt>
<rscale>  0 0.94013691E+02</rscale>
<asrwt>0</asrwt>
<pdfrwt beam="1">  1        1 0.19295593E-02 0.94013691E+02</pdfrwt>
<pdfrwt beam="2">  1       -1 0.27104248E-01 0.94013691E+02</pdfrwt>
<totfact> 0.66359554E+04</totfact>
</mgrwt>
</event>
<event>
 7    1  0.3301067E-009  0.9096479E+02  0.7818608E-02  0.1300532E+00
         -1   -1    0    0    0  501 -0.00000000000E+00  0.00000000000E+00  0.54866398374E+01  0.54866421523E+01  0.50400000000E-02 0. -1.
          1   -1    0    0  501    0  0.00000000000E+00 -0.00000000000E+00 -0.37703362484E+03  0.37703362487E+03  0.50400000000E-02 0.  1.
         23    2    1    2    0    0  0.00000000000E+00  0.00000000000E+00 -0.37154698500E+03  0.38252026702E+03  0.90964787809E+02 0.  0.
    9000005    2    3    3    0    0 -0.34386422059E+02 -0.19702852031E+02 -0.27643106395E+03  0.27947820359E+03  0.11104267791E+02 0.  0.
         22    1    3    3    0    0  0.34386422059E+02  0.19702852031E+02 -0.95115921049E+02  0.10304206344E+03  0.00000000000E+00 0.  1.
         22    1    4    4    0    0 -0.21707872918E+02 -0.10300683455E+02 -0.13027721480E+03  0.13247448253E+03  0.00000000000E+00 0.  1.
         22    1    4    4    0    0 -0.12678549141E+02 -0.94021685760E+01 -0.14615384916E+03  0.14700372106E+03  0.00000000000E+00 0.  1.
<mgrwt>
<rscale>  0 0.90964788E+02</rscale>
<asrwt>0</asrwt>
<pdfrwt beam="2">  1        1 0.58005153E-01 0.90964788E+02</pdfrwt>
<pdfrwt beam="1">  1       -1 0.84409891E-03 0.90964788E+02</pdfrwt>
<totfact> 0.13438747E+05</totfact>
</mgrwt>
</event>
<event>
 7    1  0.3301067E-009  0.1002470E+03  0.7818608E-02  0.1279777E+00
         -1   -1    0    0    0  501 -0.00000000000E+00  0.00000000000E+00  0.41526077122E+02  0.41526077428E+02  0.50400000000E-02 0.  1.
          1   -1    0    0  501    0  0.00000000000E+00 -0.00000000000E+00 -0.60500855796E+02  0.60500856006E+02  0.50400000000E-02 0. -1.
         23    2    1    2    0    0  0.00000000000E+00  0.00000000000E+00 -0.18974778673E+02  0.10202693343E+03  0.10024695966E+03 0.  0.
    9000005    2    3    3    0    0  0.38837615769E+02  0.21626700654E+02  0.13321330975E+02  0.47080475148E+02  0.79396915148E+01 0.  0.
         22    1    3    3    0    0 -0.38837615769E+02 -0.21626700654E+02 -0.32296109648E+02  0.54946458286E+02  0.00000000000E+00 0. -1.
         22    1    4    4    0    0  0.10803654394E+02  0.24158457368E+01  0.46467770581E+01  0.12006156584E+02  0.00000000000E+00 0.  1.
         22    1    4    4    0    0  0.28033961375E+02  0.19210854918E+02  0.86745539165E+01  0.35074318563E+02  0.00000000000E+00 0.  1.
<mgrwt>
<rscale>  0 0.10024696E+03</rscale>
<asrwt>0</asrwt>
<pdfrwt beam="2">  1        1 0.93078240E-02 0.10024696E+03</pdfrwt>
<pdfrwt beam="1">  1       -1 0.63886273E-02 0.10024696E+03</pdfrwt>
<totfact> 0.74025550E+04</totfact>
</mgrwt>
</event>
<event>
 7    1  0.3301067E-009  0.9242777E+02  0.7818608E-02  0.1297077E+00
          1   -1    0    0  501    0  0.00000000000E+00  0.00000000000E+00  0.12876351124E+03  0.12876351134E+03  0.50400000000E-02 0. -1.
         -1   -1    0    0    0  501 -0.00000000000E+00 -0.00000000000E+00 -0.16586400704E+02  0.16586401469E+02  0.50400000000E-02 0.  1.
         23    2    1    2    0    0  0.00000000000E+00  0.00000000000E+00  0.11217711054E+03  0.14534991281E+03  0.92427771937E+02 0.  0.
    9000005    2    3    3    0    0 -0.33098445539E+02  0.14053378162E+01  0.61674052301E+01  0.34284438017E+02  0.63169400330E+01 0.  0.
         22    1    3    3    0    0  0.33098445539E+02 -0.14053378162E+01  0.10600970531E+03  0.11106547479E+03  0.00000000000E+00 0. -1.
         22    1    4    4    0    0 -0.66166546764E+01  0.14347893898E+01 -0.10145473736E+01  0.68460241070E+01  0.00000000000E+00 0. -1.
         22    1    4    4    0    0 -0.26481790863E+02 -0.29451573619E-01  0.71819526037E+01  0.27438413910E+02  0.00000000000E+00 0. -1.
<mgrwt>
<rscale>  0 0.92427772E+02</rscale>
<asrwt>0</asrwt>
<pdfrwt beam="1">  1        1 0.19809770E-01 0.92427772E+02</pdfrwt>
<pdfrwt beam="2">  1       -1 0.25517541E-02 0.92427772E+02</pdfrwt>
<totfact> 0.10512425E+05</totfact>
</mgrwt>
</event>
<event>
 7    1  0.3301067E-009  0.9259140E+02  0.7818608E-02  0.1296695E+00
          1   -1    0    0  501    0  0.00000000000E+00  0.00000000000E+00  0.28518667209E+03  0.28518667213E+03  0.50400000000E-02 0. -1.
         -1   -1    0    0    0  501 -0.00000000000E+00 -0.00000000000E+00 -0.75153987705E+01  0.75154004605E+01  0.50400000000E-02 0.  1.
         23    2    1    2    0    0  0.00000000000E+00  0.00000000000E+00  0.27767127332E+03  0.29270207259E+03  0.92591399571E+02 0.  0.
    9000005    2    3    3    0    0  0.16547320209E+02  0.42010176498E+02  0.13031131235E+03  0.13857995597E+03  0.13590339775E+02 0.  0.
         22    1    3    3    0    0 -0.16547320209E+02 -0.42010176498E+02  0.14735996097E+03  0.15412211662E+03  0.00000000000E+00 0.  1.
         22    1    4    4    0    0  0.18506499795E-01  0.15117081726E+01  0.17812738108E+02  0.17876779436E+02  0.00000000000E+00 0. -1.
         22    1    4    4    0    0  0.16528813710E+02  0.40498468325E+02  0.11249857424E+03  0.12070317653E+03  0.00000000000E+00 0. -1.
<mgrwt>
<rscale>  0 0.92591400E+02</rscale>
<asrwt>0</asrwt>
<pdfrwt beam="1">  1        1 0.43874865E-01 0.92591400E+02</pdfrwt>
<pdfrwt beam="2">  1       -1 0.11562155E-02 0.92591400E+02</pdfrwt>
<totfact> 0.12177259E+05</totfact>
</mgrwt>
</event>
<event>
 7    1  0.3301067E-009  0.9170076E+02  0.7818608E-02  0.1298785E+00
          1   -1    0    0  501    0  0.00000000000E+00  0.00000000000E+00  0.50584644513E+02  0.50584644764E+02  0.50400000000E-02 0. -1.
         -1   -1    0    0    0  501 -0.00000000000E+00 -0.00000000000E+00 -0.41559202281E+02  0.41559202587E+02  0.50400000000E-02 0.  1.
         23    2    1    2    0    0  0.00000000000E+00  0.35527136788E-14  0.90254422321E+01  0.92143847351E+02  0.91700763340E+02 0.  0.
    9000005    2    3    3    0    0 -0.36641158184E+02 -0.26462508711E+02  0.47590538831E+01  0.46745158936E+02  0.10937204842E+02 0.  0.
         22    1    3    3    0    0  0.36641158184E+02  0.26462508711E+02  0.42663883490E+01  0.45398688416E+02  0.00000000000E+00 0.  1.
         22    1    4    4    0    0 -0.10388325556E+02 -0.13984781030E+02  0.12281890632E+01  0.17464245093E+02  0.00000000000E+00 0.  1.
         22    1    4    4    0    0 -0.26252832628E+02 -0.12477727681E+02  0.35308648199E+01  0.29280913843E+02  0.00000000000E+00 0.  1.
<mgrwt>
<rscale>  0 0.91700763E+02</rscale>
<asrwt>0</asrwt>
<pdfrwt beam="1">  1        1 0.77822530E-02 0.91700763E+02</pdfrwt>
<pdfrwt beam="2">  1       -1 0.63937235E-02 0.91700763E+02</pdfrwt>
<totfact> 0.92433874E+04</totfact>
</mgrwt>
</event>
<event>
 7    1  0.3301067E-009  0.9115939E+02  0.7818608E-02  0.1300068E+00
          1   -1    0    0  501    0  0.00000000000E+00  0.00000000000E+00  0.67244812171E+03  0.67244812173E+03  0.50400000000E-02 0. -1.
         -1   -1    0    0    0  501 -0.00000000000E+00 -0.00000000000E+00 -0.30894680332E+01  0.30894721442E+01  0.50400000000E-02 0.  1.
         23    2    1    2    0    0  0.00000000000E+00  0.00000000000E+00  0.66935865367E+03  0.67553759387E+03  0.91159385056E+02 0.  0.
    9000005    2    3    3    0    0 -0.26985327178E+02 -0.12143982901E+02  0.59026627087E+03  0.59109063288E+03  0.99086599872E+01 0.  0.
         22    1    3    3    0    0  0.26985327178E+02  0.12143982901E+02  0.79092382802E+02  0.84446960992E+02  0.00000000000E+00 0.  1.
         22    1    4    4    0    0 -0.74080377304E+00  0.12911542547E+01  0.16380036092E+02  0.16447536348E+02  0.00000000000E+00 0. -1.
         22    1    4    4    0    0 -0.26244523405E+02 -0.13435137156E+02  0.57388623478E+03  0.57464309653E+03  0.00000000000E+00 0. -1.
<mgrwt>
<rscale>  0 0.91159385E+02</rscale>
<asrwt>0</asrwt>
<pdfrwt beam="1">  1        1 0.10345370E+00 0.91159385E+02</pdfrwt>
<pdfrwt beam="2">  1       -1 0.47530242E-03 0.91159385E+02</pdfrwt>
<totfact> 0.14224268E+05</totfact>
</mgrwt>
</event>
<event>
 7    1  0.3301067E-009  0.9208104E+02  0.7818608E-02  0.1297889E+00
         -1   -1    0    0    0  501 -0.00000000000E+00  0.00000000000E+00  0.41791784108E+01  0.41791814498E+01  0.50400000000E-02 0.  1.
          1   -1    0    0  501    0  0.00000000000E+00 -0.00000000000E+00 -0.50721186821E+03  0.50721186824E+03  0.50400000000E-02 0. -1.
         23    2    1    2    0    0 -0.35527136788E-14  0.00000000000E+00 -0.50303268980E+03  0.51139104969E+03  0.92081044147E+02 0.  0.
    9000005    2    3    3    0    0  0.31400137546E+02  0.29686390076E+02 -0.32192715873E+03  0.32520172728E+03  0.15868758752E+02 0.  0.
         22    1    3    3    0    0 -0.31400137546E+02 -0.29686390076E+02 -0.18110553107E+03  0.18618932241E+03  0.00000000000E+00 0.  1.
         22    1    4    4    0    0  0.17656022686E+02  0.19189353598E+02 -0.13639381726E+03  0.13886410557E+03  0.00000000000E+00 0. -1.
         22    1    4    4    0    0  0.13744114860E+02  0.10497036478E+02 -0.18553334147E+03  0.18633762171E+03  0.00000000000E+00 0. -1.
<mgrwt>
<rscale>  0 0.92081044E+02</rscale>
<asrwt>0</asrwt>
<pdfrwt beam="2">  1        1 0.78032547E-01 0.92081044E+02</pdfrwt>
<pdfrwt beam="1">  1       -1 0.64295116E-03 0.92081044E+02</pdfrwt>
<totfact> 0.13589370E+05</totfact>
</mgrwt>
</event>
<event>
 7    1  0.3301067E-009  0.9095956E+02  0.7818608E-02  0.1300544E+00
         -1   -1    0    0    0  501 -0.00000000000E+00  0.00000000000E+00  0.66583889262E+02  0.66583889452E+02  0.50400000000E-02 0.  1.
          1   -1    0    0  501    0  0.00000000000E+00 -0.00000000000E+00 -0.31064725675E+02  0.31064726084E+02  0.50400000000E-02 0. -1.
         23    2    1    2    0    0  0.35527136788E-14  0.00000000000E+00  0.35519163587E+02  0.97648615536E+02  0.90959557685E+02 0.  0.
    9000005    2    3    3    0    0  0.27701240344E+02  0.90994446103E+01 -0.19549426002E+02  0.35337234810E+02  0.40474063508E+01 0.  0.
         22    1    3    3    0    0 -0.27701240344E+02 -0.90994446103E+01  0.55068589589E+02  0.62311380727E+02  0.00000000000E+00 0.  1.
         22    1    4    4    0    0  0.31378552125E+01  0.20468530614E+01 -0.37004307773E+01  0.52658266898E+01  0.00000000000E+00 0.  1.
         22    1    4    4    0    0  0.24563385132E+02  0.70525915488E+01 -0.15848995225E+02  0.30071408120E+02  0.00000000000E+00 0.  1.
<mgrwt>
<rscale>  0 0.90959558E+02</rscale>
<asrwt>0</asrwt>
<pdfrwt beam="2">  1        1 0.47791886E-02 0.90959558E+02</pdfrwt>
<pdfrwt beam="1">  1       -1 0.10243675E-01 0.90959558E+02</pdfrwt>
<totfact> 0.87769127E+04</totfact>
</mgrwt>
</event>
<event>
 7    1  0.3301067E-009  0.9125464E+02  0.7818608E-02  0.1299842E+00
          1   -1    0    0  501    0  0.00000000000E+00  0.00000000000E+00  0.28560912606E+02  0.28560913051E+02  0.50400000000E-02 0. -1.
         -1   -1    0    0    0  501 -0.00000000000E+00 -0.00000000000E+00 -0.72891655234E+02  0.72891655408E+02  0.50400000000E-02 0.  1.
         23    2    1    2    0    0  0.00000000000E+00  0.44408920985E-15 -0.44330742627E+02  0.10145256846E+03  0.91254637718E+02 0.  0.
    9000005    2    3    3    0    0 -0.20137193195E+02 -0.20562498029E+01  0.23029403553E+02  0.31116773828E+02  0.53071152638E+01 0.  0.
         22    1    3    3    0    0  0.20137193195E+02  0.20562498029E+01 -0.67360146180E+02  0.70335794631E+02  0.00000000000E+00 0.  1.
         22    1    4    4    0    0 -0.63971342929E+01 -0.25643091709E+01  0.10208951408E+02  0.12317536179E+02  0.00000000000E+00 0.  1.
         22    1    4    4    0    0 -0.13740058902E+02  0.50805936803E+00  0.12820452145E+02  0.18799237648E+02  0.00000000000E+00 0.  1.
<mgrwt>
<rscale>  0 0.91254638E+02</rscale>
<asrwt>0</asrwt>
<pdfrwt beam="1">  1        1 0.43939866E-02 0.91254638E+02</pdfrwt>
<pdfrwt beam="2">  1       -1 0.11214101E-01 0.91254638E+02</pdfrwt>
<totfact> 0.85783924E+04</totfact>
</mgrwt>
</event>
<event>
 7    1  0.3301067E-009  0.9241501E+02  0.7818608E-02  0.1297107E+00
          1   -1    0    0  501    0  0.00000000000E+00  0.00000000000E+00  0.19248897881E+03  0.19248897887E+03  0.50400000000E-02 0. -1.
         -1   -1    0    0    0  501 -0.00000000000E+00 -0.00000000000E+00 -0.11092236198E+02  0.11092237343E+02  0.50400000000E-02 0.  1.
         23    2    1    2    0    0 -0.35527136788E-14  0.00000000000E+00  0.18139674261E+03  0.20358121622E+03  0.92415006177E+02 0.  0.
    9000005    2    3    3    0    0  0.19907138633E+02  0.39220317069E+02  0.12110562481E+03  0.12895182305E+03  0.52414565129E+01 0.  0.
         22    1    3    3    0    0 -0.19907138633E+02 -0.39220317069E+02  0.60291117795E+02  0.74629393167E+02  0.00000000000E+00 0.  1.
         22    1    4    4    0    0  0.93708887349E+01  0.22181175903E+02  0.71866908118E+02  0.75793605288E+02  0.00000000000E+00 0.  1.
         22    1    4    4    0    0  0.10536249898E+02  0.17039141166E+02  0.49238716696E+02  0.53158217761E+02  0.00000000000E+00 0.  1.
<mgrwt>
<rscale>  0 0.92415006E+02</rscale>
<asrwt>0</asrwt>
<pdfrwt beam="1">  1        1 0.29613688E-01 0.92415006E+02</pdfrwt>
<pdfrwt beam="2">  1       -1 0.17064980E-02 0.92415006E+02</pdfrwt>
<totfact> 0.11334728E+05</totfact>
</mgrwt>
</event>
<event>
 7    1  0.3301067E-009  0.9159860E+02  0.7818608E-02  0.1299026E+00
          1   -1    0    0  501    0  0.00000000000E+00  0.00000000000E+00  0.17627816826E+02  0.17627817546E+02  0.50400000000E-02 0. -1.
         -1   -1    0    0    0  501 -0.00000000000E+00 -0.00000000000E+00 -0.11899238285E+03  0.11899238295E+03  0.50400000000E-02 0.  1.
         23    2    1    2    0    0  0.00000000000E+00  0.00000000000E+00 -0.10136456602E+03  0.13662020050E+03  0.91598602282E+02 0.  0.
    9000005    2    3    3    0    0  0.26215231353E+02  0.23584749757E+01  0.51932545860E+01  0.26859688969E+02  0.12931508756E+01 0.  0.
         22    1    3    3    0    0 -0.26215231353E+02 -0.23584749757E+01 -0.10655782061E+03  0.10976051153E+03  0.00000000000E+00 0.  1.
         22    1    4    4    0    0  0.13547920570E+02  0.81076365016E+00  0.31885687812E+01  0.13941680685E+02  0.00000000000E+00 0. -1.
         22    1    4    4    0    0  0.12667310783E+02  0.15477113255E+01  0.20046858047E+01  0.12918008283E+02  0.00000000000E+00 0. -1.
<mgrwt>
<rscale>  0 0.91598602E+02</rscale>
<asrwt>0</asrwt>
<pdfrwt beam="1">  1        1 0.27119720E-02 0.91598602E+02</pdfrwt>
<pdfrwt beam="2">  1       -1 0.18306520E-01 0.91598602E+02</pdfrwt>
<totfact> 0.77732085E+04</totfact>
</mgrwt>
</event>
<event>
 7    1  0.3301067E-009  0.9092176E+02  0.7818608E-02  0.1300635E+00
         -1   -1    0    0    0  501 -0.00000000000E+00  0.00000000000E+00  0.35652937056E+02  0.35652937412E+02  0.50400000000E-02 0.  1.
          1   -1    0    0  501    0  0.00000000000E+00 -0.00000000000E+00 -0.57966931495E+02  0.57966931714E+02  0.50400000000E-02 0. -1.
         23    2    1    2    0    0  0.00000000000E+00  0.00000000000E+00 -0.22313994439E+02  0.93619869127E+02  0.90921755083E+02 0.  0.
    9000005    2    3    3    0    0 -0.28693523124E+02  0.26670216272E+02 -0.32553982265E+02  0.53129425119E+02  0.15111431000E+02 0.  0.
         22    1    3    3    0    0  0.28693523124E+02 -0.26670216272E+02  0.10239987826E+02  0.40490444008E+02  0.00000000000E+00 0.  1.
         22    1    4    4    0    0 -0.61092778498E+01 -0.97595160020E-01 -0.91657384651E+01  0.11015605397E+02  0.00000000000E+00 0. -1.
         22    1    4    4    0    0 -0.22584245274E+02  0.26767811432E+02 -0.23388243800E+02  0.42113819721E+02  0.00000000000E+00 0. -1.
<mgrwt>
<rscale>  0 0.90921755E+02</rscale>
<asrwt>0</asrwt>
<pdfrwt beam="2">  1        1 0.89179895E-02 0.90921755E+02</pdfrwt>
<pdfrwt beam="1">  1       -1 0.54850673E-02 0.90921755E+02</pdfrwt>
<totfact> 0.96619462E+04</totfact>
</mgrwt>
</event>
<event>
 7    1  0.3301067E-009  0.9142279E+02  0.7818608E-02  0.1299442E+00
          1   -1    0    0  501    0  0.00000000000E+00  0.00000000000E+00  0.99581519238E+01  0.99581531992E+01  0.50400000000E-02 0. -1.
         -1   -1    0    0    0  501 -0.00000000000E+00 -0.00000000000E+00 -0.20983125754E+03  0.20983125760E+03  0.50400000000E-02 0.  1.
         23    2    1    2    0    0  0.00000000000E+00  0.00000000000E+00 -0.19987310562E+03  0.21978941080E+03  0.91422791201E+02 0.  0.
    9000005    2    3    3    0    0 -0.40586919323E+02 -0.19305350713E+02 -0.11497973595E+03  0.12373276710E+03  0.83344698667E+01 0.  0.
         22    1    3    3    0    0  0.40586919323E+02  0.19305350713E+02 -0.84893369667E+02  0.96056643704E+02  0.00000000000E+00 0.  1.
         22    1    4    4    0    0 -0.20858934282E+02 -0.12203439537E+02 -0.51690040750E+02  0.57060313605E+02  0.00000000000E+00 0.  1.
         22    1    4    4    0    0 -0.19727985040E+02 -0.71019111755E+01 -0.63289695199E+02  0.66672453490E+02  0.00000000000E+00 0.  1.
<mgrwt>
<rscale>  0 0.91422791E+02</rscale>
<asrwt>0</asrwt>
<pdfrwt beam="1">  1        1 0.15320236E-02 0.91422791E+02</pdfrwt>
<pdfrwt beam="2">  1       -1 0.32281729E-01 0.91422791E+02</pdfrwt>
<totfact> 0.67981859E+04</totfact>
</mgrwt>
</event>
<event>
 7    1  0.3301067E-009  0.9099176E+02  0.7818608E-02  0.1300468E+00
          1   -1    0    0  501    0  0.00000000000E+00  0.00000000000E+00  0.56329108152E+02  0.56329108378E+02  0.50400000000E-02 0. -1.
         -1   -1    0    0    0  501 -0.00000000000E+00 -0.00000000000E+00 -0.36746103795E+02  0.36746104141E+02  0.50400000000E-02 0.  1.
         23    2    1    2    0    0  0.00000000000E+00  0.00000000000E+00  0.19583004357E+02  0.93075212519E+02  0.90991764054E+02 0.  0.
    9000005    2    3    3    0    0 -0.18391876818E+02 -0.28105666674E+02 -0.21375241540E+02  0.40105716211E+02  0.48350687482E+01 0.  0.
         22    1    3    3    0    0  0.18391876818E+02  0.28105666674E+02  0.40958245898E+02  0.52969496308E+02  0.00000000000E+00 0.  1.
         22    1    4    4    0    0 -0.11893820495E+02 -0.16381598387E+02 -0.10277435530E+02  0.22703422930E+02  0.00000000000E+00 0.  1.
         22    1    4    4    0    0 -0.64980563222E+01 -0.11724068288E+02 -0.11097806010E+02  0.17402293281E+02  0.00000000000E+00 0.  1.
<mgrwt>
<rscale>  0 0.90991764E+02</rscale>
<asrwt>0</asrwt>
<pdfrwt beam="1">  1        1 0.86660167E-02 0.90991764E+02</pdfrwt>
<pdfrwt beam="2">  1       -1 0.56532468E-02 0.90991764E+02</pdfrwt>
<totfact> 0.95998545E+04</totfact>
</mgrwt>
</event>
<event>
 7    1  0.3301067E-009  0.8715503E+02  0.7818608E-02  0.1309891E+00
          1   -1    0    0  501    0  0.00000000000E+00  0.00000000000E+00  0.38552623841E+02  0.38552624171E+02  0.50400000000E-02 0. -1.
         -1   -1    0    0    0  501 -0.00000000000E+00 -0.00000000000E+00 -0.49257341679E+02  0.49257341937E+02  0.50400000000E-02 0.  1.
         23    2    1    2    0    0  0.00000000000E+00  0.00000000000E+00 -0.10704717838E+02  0.87809966108E+02  0.87155029481E+02 0.  0.
    9000005    2    3    3    0    0 -0.21670447220E+01  0.10654913419E+02 -0.46646891500E+02  0.50259159054E+02  0.15225876639E+02 0.  0.
         22    1    3    3    0    0  0.21670447220E+01 -0.10654913419E+02  0.35942173662E+02  0.37550807054E+02  0.00000000000E+00 0. -1.
         22    1    4    4    0    0 -0.53714258133E-01  0.11783033108E+02 -0.46374590539E+02  0.47848149412E+02  0.00000000000E+00 0.  1.
         22    1    4    4    0    0 -0.21133304638E+01 -0.11281196890E+01 -0.27230096083E+00  0.24110096423E+01  0.00000000000E+00 0.  1.
<mgrwt>
<rscale>  0 0.87155029E+02</rscale>
<asrwt>0</asrwt>
<pdfrwt beam="1">  1        1 0.59311730E-02 0.87155029E+02</pdfrwt>
<pdfrwt beam="2">  1       -1 0.75780526E-02 0.87155029E+02</pdfrwt>
<totfact> 0.10237173E+05</totfact>
</mgrwt>
</event>
<event>
 7    1  0.3301067E-009  0.8775622E+02  0.7818608E-02  0.1308378E+00
         -1   -1    0    0    0  501 -0.00000000000E+00  0.00000000000E+00  0.32753676539E+02  0.32753676927E+02  0.50400000000E-02 0.  1.
          1   -1    0    0  501    0  0.00000000000E+00 -0.00000000000E+00 -0.58780833536E+02  0.58780833752E+02  0.50400000000E-02 0. -1.
         23    2    1    2    0    0  0.00000000000E+00 -0.88817841970E-15 -0.26027156997E+02  0.91534510679E+02  0.87756217693E+02 0.  0.
    9000005    2    3    3    0    0  0.15711810702E+02 -0.69619181422E+01 -0.54987739458E+02  0.57858931452E+02  0.53549190678E+01 0.  0.
         22    1    3    3    0    0 -0.15711810702E+02  0.69619181422E+01  0.28960582461E+02  0.33675579227E+02  0.00000000000E+00 0.  1.
         22    1    4    4    0    0  0.15476535152E+02 -0.75788243165E+01 -0.51424911066E+02  0.54235442254E+02  0.00000000000E+00 0. -1.
         22    1    4    4    0    0  0.23527555012E+00  0.61690617432E+00 -0.35628283919E+01  0.36234891972E+01  0.00000000000E+00 0. -1.
<mgrwt>
<rscale>  0 0.87756218E+02</rscale>
<asrwt>0</asrwt>
<pdfrwt beam="2">  1        1 0.90432052E-02 0.87756218E+02</pdfrwt>
<pdfrwt beam="1">  1       -1 0.50390272E-02 0.87756218E+02</pdfrwt>
<totfact> 0.10678964E+05</totfact>
</mgrwt>
</event>
<event>
 7    1  0.3301067E-009  0.1109987E+03  0.7818608E-02  0.1258732E+00
         -1   -1    0    0    0  501 -0.00000000000E+00  0.00000000000E+00  0.41897931718E+02  0.41897932021E+02  0.50400000000E-02 0.  1.
          1   -1    0    0  501    0  0.00000000000E+00 -0.00000000000E+00 -0.73516212123E+02  0.73516212296E+02  0.50400000000E-02 0. -1.
         23    2    1    2    0    0 -0.88817841970E-15  0.00000000000E+00 -0.31618280405E+02  0.11541414432E+03  0.11099868942E+03 0.  0.
    9000005    2    3    3    0    0 -0.57860684992E+01  0.46814745665E+02  0.13229913605E+02  0.50326053960E+02  0.11514429765E+02 0.  0.
         22    1    3    3    0    0  0.57860684992E+01 -0.46814745665E+02 -0.44848194010E+02  0.65088090357E+02  0.00000000000E+00 0. -1.
         22    1    4    4    0    0  0.25241218089E+01  0.23517310431E+02  0.43746866563E+01  0.24053543692E+02  0.00000000000E+00 0. -1.
         22    1    4    4    0    0 -0.83101903082E+01  0.23297435234E+02  0.88552269487E+01  0.26272510268E+02  0.00000000000E+00 0. -1.
<mgrwt>
<rscale>  0 0.11099869E+03</rscale>
<asrwt>0</asrwt>
<pdfrwt beam="2">  1        1 0.11310187E-01 0.11099869E+03</pdfrwt>
<pdfrwt beam="1">  1       -1 0.64458357E-02 0.11099869E+03</pdfrwt>
<totfact> 0.57381419E+04</totfact>
</mgrwt>
</event>
<event>
 7    1  0.3301067E-009  0.9395108E+02  0.7818608E-02  0.1293556E+00
          1   -1    0    0  501    0  0.00000000000E+00  0.00000000000E+00  0.32174421854E+02  0.32174422249E+02  0.50400000000E-02 0. -1.
         -1   -1    0    0    0  501 -0.00000000000E+00 -0.00000000000E+00 -0.68585584921E+02  0.68585585106E+02  0.50400000000E-02 0.  1.
         23    2    1    2    0    0  0.00000000000E+00  0.22204460493E-15 -0.36411163067E+02  0.10076000735E+03  0.93951084540E+02 0.  0.
    9000005    2    3    3    0    0 -0.46690264730E+02 -0.19300153232E+01 -0.21462323881E+02  0.51697052157E+02  0.53148918796E+01 0.  0.
         22    1    3    3    0    0  0.46690264730E+02  0.19300153232E+01 -0.14948839186E+02  0.49062955198E+02  0.00000000000E+00 0. -1.
         22    1    4    4    0    0 -0.35635222131E+02 -0.37171529323E+01 -0.16053343530E+02  0.39260617936E+02  0.00000000000E+00 0. -1.
         22    1    4    4    0    0 -0.11055042599E+02  0.17871376091E+01 -0.54089803510E+01  0.12436434221E+02  0.00000000000E+00 0. -1.
<mgrwt>
<rscale>  0 0.93951085E+02</rscale>
<asrwt>0</asrwt>
<pdfrwt beam="1">  1        1 0.49499111E-02 0.93951085E+02</pdfrwt>
<pdfrwt beam="2">  1       -1 0.10551628E-01 0.93951085E+02</pdfrwt>
<totfact> 0.80434517E+04</totfact>
</mgrwt>
</event>
<event>
 7    1  0.3301067E-009  0.9034287E+02  0.7818608E-02  0.1302024E+00
         -1   -1    0    0    0  501 -0.00000000000E+00  0.00000000000E+00  0.18094130350E+02  0.18094131052E+02  0.50400000000E-02 0.  1.
          1   -1    0    0  501    0  0.00000000000E+00 -0.00000000000E+00 -0.11276907361E+03  0.11276907372E+03  0.50400000000E-02 0. -1.
         23    2    1    2    0    0  0.00000000000E+00  0.35527136788E-14 -0.94674943257E+02  0.13086320477E+03  0.90342866251E+02 0.  0.
    9000005    2    3    3    0    0  0.32605785679E+02 -0.20764800354E+02 -0.78954531568E+02  0.89132574090E+02  0.14713378787E+02 0.  0.
         22    1    3    3    0    0 -0.32605785679E+02  0.20764800354E+02 -0.15720411689E+02  0.41730630682E+02  0.00000000000E+00 0. -1.
         22    1    4    4    0    0  0.21905226589E+02 -0.17664784779E+02 -0.42162267262E+02  0.50690633788E+02  0.00000000000E+00 0. -1.
         22    1    4    4    0    0  0.10700559090E+02 -0.31000155748E+01 -0.36792264306E+02  0.38441940302E+02  0.00000000000E+00 0. -1.
<mgrwt>
<rscale>  0 0.90342866E+02</rscale>
<asrwt>0</asrwt>
<pdfrwt beam="2">  1        1 0.17349088E-01 0.90342866E+02</pdfrwt>
<pdfrwt beam="1">  1       -1 0.27837125E-02 0.90342866E+02</pdfrwt>
<totfact> 0.10928157E+05</totfact>
</mgrwt>
</event>
<event>
 7    1  0.3301067E-009  0.9090027E+02  0.7818608E-02  0.1300686E+00
          1   -1    0    0  501    0  0.00000000000E+00  0.00000000000E+00  0.21901243697E+03  0.21901243702E+03  0.50400000000E-02 0. -1.
         -1   -1    0    0    0  501 -0.00000000000E+00 -0.00000000000E+00 -0.94319504575E+01  0.94319518040E+01  0.50400000000E-02 0.  1.
         23    2    1    2    0    0  0.00000000000E+00  0.00000000000E+00  0.20958048651E+03  0.22844438883E+03  0.90900266566E+02 0.  0.
    9000005    2    3    3    0    0  0.15413149711E+02 -0.34171142693E+02  0.43316959363E+02  0.58007325266E+02  0.91246172002E+01 0.  0.
         22    1    3    3    0    0 -0.15413149711E+02  0.34171142693E+02  0.16626352714E+03  0.17043706356E+03  0.00000000000E+00 0. -1.
         22    1    4    4    0    0  0.10716487562E+02 -0.27238186139E+02  0.27765459972E+02  0.40344549288E+02  0.00000000000E+00 0. -1.
         22    1    4    4    0    0  0.46966621491E+01 -0.69329565539E+01  0.15551499391E+02  0.17662775977E+02  0.00000000000E+00 0. -1.
<mgrwt>
<rscale>  0 0.90900267E+02</rscale>
<asrwt>0</asrwt>
<pdfrwt beam="1">  1        1 0.33694220E-01 0.90900267E+02</pdfrwt>
<pdfrwt beam="2">  1       -1 0.14510695E-02 0.90900267E+02</pdfrwt>
<totfact> 0.12150164E+05</totfact>
</mgrwt>
</event>
<event>
 7    1  0.3301067E-009  0.8932956E+02  0.7818608E-02  0.1304483E+00
         -1   -1    0    0    0  501 -0.00000000000E+00  0.00000000000E+00  0.13035702697E+01  0.13035800127E+01  0.50400000000E-02 0.  1.
          1   -1    0    0  501    0  0.00000000000E+00 -0.00000000000E+00 -0.15303624146E+04  0.15303624146E+04  0.50400000000E-02 0. -1.
         23    2    1    2    0    0  0.35527136788E-14  0.00000000000E+00 -0.15290588443E+04  0.15316659946E+04  0.89329556439E+02 0.  0.
    9000005    2    3    3    0    0  0.25552860339E+02 -0.11221266558E+02 -0.13611484973E+04  0.13614521581E+04  0.69196581409E+01 0.  0.
         22    1    3    3    0    0 -0.25552860339E+02  0.11221266558E+02 -0.16791034706E+03  0.17021383652E+03  0.00000000000E+00 0.  1.
         22    1    4    4    0    0  0.74031604410E+01 -0.24133838999E+00 -0.41282403842E+03  0.41289048394E+03  0.00000000000E+00 0. -1.
         22    1    4    4    0    0  0.18149699898E+02 -0.10979928168E+02 -0.94832445883E+03  0.94856167414E+03  0.00000000000E+00 0. -1.
<mgrwt>
<rscale>  0 0.89329556E+02</rscale>
<asrwt>0</asrwt>
<pdfrwt beam="2">  1        1 0.23543893E+00 0.89329556E+02</pdfrwt>
<pdfrwt beam="1">  1       -1 0.20055125E-03 0.89329556E+02</pdfrwt>
<totfact> 0.11472183E+05</totfact>
</mgrwt>
</event>
<event>
 7    1  0.3301067E-009  0.8438526E+02  0.7818608E-02  0.1317048E+00
          1   -1    0    0  501    0  0.00000000000E+00  0.00000000000E+00  0.21309484936E+01  0.21309544538E+01  0.50400000000E-02 0. -1.
         -1   -1    0    0    0  501 -0.00000000000E+00 -0.00000000000E+00 -0.83540997825E+03  0.83540997827E+03  0.50400000000E-02 0.  1.
         23    2    1    2    0    0  0.00000000000E+00  0.00000000000E+00 -0.83327902976E+03  0.83754093272E+03  0.84385262624E+02 0.  0.
    9000005    2    3    3    0    0 -0.17920815370E+02 -0.29396423955E+02 -0.64773384679E+03  0.64882866420E+03  0.15303393569E+02 0.  0.
         22    1    3    3    0    0  0.17920815370E+02  0.29396423955E+02 -0.18554518297E+03  0.18871226852E+03  0.00000000000E+00 0. -1.
         22    1    4    4    0    0  0.26574860419E+01 -0.20071544738E+01 -0.46003372188E+02  0.46123759104E+02  0.00000000000E+00 0. -1.
         22    1    4    4    0    0 -0.20578301412E+02 -0.27389269481E+02 -0.60173047460E+03  0.60270490510E+03  0.00000000000E+00 0. -1.
<mgrwt>
<rscale>  0 0.84385263E+02</rscale>
<asrwt>0</asrwt>
<pdfrwt beam="1">  1        1 0.32783936E-03 0.84385263E+02</pdfrwt>
<pdfrwt beam="2">  1       -1 0.12852435E+00 0.84385263E+02</pdfrwt>
<totfact> 0.38318224E+04</totfact>
</mgrwt>
</event>
<event>
 7    1  0.3301067E-009  0.9064383E+02  0.7818608E-02  0.1301300E+00
         -1   -1    0    0    0  501 -0.00000000000E+00  0.00000000000E+00  0.94334391593E+01  0.94334405057E+01  0.50400000000E-02 0.  1.
          1   -1    0    0  501    0  0.00000000000E+00 -0.00000000000E+00 -0.21774408941E+03  0.21774408947E+03  0.50400000000E-02 0. -1.
         23    2    1    2    0    0  0.00000000000E+00  0.00000000000E+00 -0.20831065025E+03  0.22717752998E+03  0.90643825588E+02 0.  0.
    9000005    2    3    3    0    0 -0.42807554597E+02 -0.60621888588E+01 -0.13258285974E+03  0.13997698457E+03  0.12087375492E+02 0.  0.
         22    1    3    3    0    0  0.42807554597E+02  0.60621888588E+01 -0.75727790510E+02  0.87200545410E+02  0.00000000000E+00 0.  1.
         22    1    4    4    0    0 -0.30541610573E+02 -0.31773931515E+01 -0.10895362030E+03  0.11319795572E+03  0.00000000000E+00 0. -1.
         22    1    4    4    0    0 -0.12265944024E+02 -0.28847957073E+01 -0.23629239442E+02  0.26779028842E+02  0.00000000000E+00 0. -1.
<mgrwt>
<rscale>  0 0.90643826E+02</rscale>
<asrwt>0</asrwt>
<pdfrwt beam="2">  1        1 0.33499087E-01 0.90643826E+02</pdfrwt>
<pdfrwt beam="1">  1       -1 0.14512986E-02 0.90643826E+02</pdfrwt>
<totfact> 0.12228457E+05</totfact>
</mgrwt>
</event>
<event>
 7    1  0.3301067E-009  0.9555399E+02  0.7818608E-02  0.1289933E+00
          1   -1    0    0  501    0  0.00000000000E+00  0.00000000000E+00  0.19152542234E+01  0.19152608548E+01  0.50400000000E-02 0. -1.
         -1   -1    0    0    0  501 -0.00000000000E+00 -0.00000000000E+00 -0.11918195506E+04  0.11918195506E+04  0.50400000000E-02 0.  1.
         23    2    1    2    0    0 -0.66613381478E-15  0.17763568394E-14 -0.11899042964E+04  0.11937348115E+04  0.95553992952E+02 0.  0.
    9000005    2    3    3    0    0  0.14619309330E+01 -0.10419136585E+02 -0.11767612397E+04  0.11768992661E+04  0.14634603399E+02 0.  0.
         22    1    3    3    0    0 -0.14619309330E+01  0.10419136585E+02 -0.13143056676E+02  0.16835545373E+02  0.00000000000E+00 0. -1.
         22    1    4    4    0    0  0.68535833763E+01 -0.91422739177E+01 -0.95692417809E+03  0.95699239046E+03  0.00000000000E+00 0.  1.
         22    1    4    4    0    0 -0.53916524434E+01 -0.12768626674E+01 -0.21983706163E+03  0.21990687565E+03  0.00000000000E+00 0.  1.
<mgrwt>
<rscale>  0 0.95553993E+02</rscale>
<asrwt>0</asrwt>
<pdfrwt beam="1">  1        1 0.29465596E-03 0.95553993E+02</pdfrwt>
<pdfrwt beam="2">  1       -1 0.18335626E+00 0.95553993E+02</pdfrwt>
<totfact> 0.17935818E+04</totfact>
</mgrwt>
</event>
<event>
 7    1  0.3301067E-009  0.8974237E+02  0.7818608E-02  0.1303477E+00
          1   -1    0    0  501    0  0.00000000000E+00  0.00000000000E+00  0.13686825492E+03  0.13686825501E+03  0.50400000000E-02 0. -1.
         -1   -1    0    0    0  501 -0.00000000000E+00 -0.00000000000E+00 -0.14710664622E+02  0.14710665486E+02  0.50400000000E-02 0.  1.
         23    2    1    2    0    0  0.00000000000E+00  0.00000000000E+00  0.12215759030E+03  0.15157892050E+03  0.89742366094E+02 0.  0.
    9000005    2    3    3    0    0  0.27639825264E+02 -0.11662198955E+02  0.11673854551E+03  0.12109395910E+03  0.11657276594E+02 0.  0.
         22    1    3    3    0    0 -0.27639825264E+02  0.11662198955E+02  0.54190447873E+01  0.30484961399E+02  0.00000000000E+00 0.  1.
         22    1    4    4    0    0  0.22469178361E+02 -0.12182655832E+02  0.79844316715E+02  0.83835529408E+02  0.00000000000E+00 0.  1.
         22    1    4    4    0    0  0.51706469026E+01  0.52045687736E+00  0.36894228795E+02  0.37258429692E+02  0.00000000000E+00 0.  1.
<mgrwt>
<rscale>  0 0.89742366E+02</rscale>
<asrwt>0</asrwt>
<pdfrwt beam="1">  1        1 0.21056655E-01 0.89742366E+02</pdfrwt>
<pdfrwt beam="2">  1       -1 0.22631792E-02 0.89742366E+02</pdfrwt>
<totfact> 0.11510102E+05</totfact>
</mgrwt>
</event>
<event>
 7    1  0.3301067E-009  0.9278605E+02  0.7818608E-02  0.1296242E+00
          1   -1    0    0  501    0  0.00000000000E+00  0.00000000000E+00  0.95048689362E+02  0.95048689495E+02  0.50400000000E-02 0. -1.
         -1   -1    0    0    0  501 -0.00000000000E+00 -0.00000000000E+00 -0.22644316879E+02  0.22644317439E+02  0.50400000000E-02 0.  1.
         23    2    1    2    0    0  0.00000000000E+00  0.00000000000E+00  0.72404372483E+02  0.11769300693E+03  0.92786048125E+02 0.  0.
    9000005    2    3    3    0    0 -0.14250171347E+02  0.17761661639E+02  0.86666115906E+02  0.90824040951E+02  0.14813735550E+02 0.  0.
         22    1    3    3    0    0  0.14250171347E+02 -0.17761661639E+02 -0.14261743422E+02  0.26868965984E+02  0.00000000000E+00 0.  1.
         22    1    4    4    0    0 -0.63686804498E+01  0.72643352311E+01  0.63215717754E+02  0.63949649164E+02  0.00000000000E+00 0. -1.
         22    1    4    4    0    0 -0.78814908971E+01  0.10497326408E+02  0.23450398151E+02  0.26874391787E+02  0.00000000000E+00 0. -1.
<mgrwt>
<rscale>  0 0.92786048E+02</rscale>
<asrwt>0</asrwt>
<pdfrwt beam="1">  1        1 0.14622876E-01 0.92786048E+02</pdfrwt>
<pdfrwt beam="2">  1       -1 0.34837411E-02 0.92786048E+02</pdfrwt>
<totfact> 0.98738096E+04</totfact>
</mgrwt>
</event>
<event>
 7    1  0.3301067E-009  0.9007969E+02  0.7818608E-02  0.1302659E+00
         -1   -1    0    0    0  501 -0.00000000000E+00  0.00000000000E+00  0.99641375738E+01  0.99641388484E+01  0.50400000000E-02 0.  1.
          1   -1    0    0  501    0  0.00000000000E+00 -0.00000000000E+00 -0.20358888364E+03  0.20358888370E+03  0.50400000000E-02 0. -1.
         23    2    1    2    0    0  0.00000000000E+00  0.00000000000E+00 -0.19362474607E+03  0.21355302255E+03  0.90079693335E+02 0.  0.
    9000005    2    3    3    0    0  0.18949867517E+02 -0.31572075106E+02 -0.15826564324E+03  0.16250246371E+03  0.17729849288E+01 0.  0.
         22    1    3    3    0    0 -0.18949867517E+02  0.31572075106E+02 -0.35359102824E+02  0.51050558841E+02  0.00000000000E+00 0.  1.
         22    1    4    4    0    0  0.84412482573E+01 -0.12648517860E+02 -0.67436163934E+02  0.69129414017E+02  0.00000000000E+00 0.  1.
         22    1    4    4    0    0  0.10508619260E+02 -0.18923557246E+02 -0.90829479309E+02  0.93373049694E+02  0.00000000000E+00 0.  1.
<mgrwt>
<rscale>  0 0.90079693E+02</rscale>
<asrwt>0</asrwt>
<pdfrwt beam="2">  1        1 0.31321364E-01 0.90079693E+02</pdfrwt>
<pdfrwt beam="1">  1       -1 0.15329445E-02 0.90079693E+02</pdfrwt>
<totfact> 0.12273014E+05</totfact>
</mgrwt>
</event>
<event>
 7    1  0.3301067E-009  0.9337344E+02  0.7818608E-02  0.1294882E+00
          1   -1    0    0  501    0  0.00000000000E+00  0.00000000000E+00  0.36385838337E+03  0.36385838340E+03  0.50400000000E-02 0. -1.
         -1   -1    0    0    0  501 -0.00000000000E+00 -0.00000000000E+00 -0.59903786844E+01  0.59903808046E+01  0.50400000000E-02 0.  1.
         23    2    1    2    0    0 -0.35527136788E-14 -0.71054273576E-14  0.35786800468E+03  0.36984876421E+03  0.93373441672E+02 0.  0.
    9000005    2    3    3    0    0  0.29260795176E+02  0.35337989599E+02  0.20453416345E+03  0.20979803940E+03  0.87192703664E+01 0.  0.
         22    1    3    3    0    0 -0.29260795176E+02 -0.35337989599E+02  0.15333384124E+03  0.16005072481E+03  0.00000000000E+00 0.  1.
         22    1    4    4    0    0  0.10078275853E+02  0.17361700919E+02  0.76287131451E+02  0.78884261599E+02  0.00000000000E+00 0. -1.
         22    1    4    4    0    0  0.19182519323E+02  0.17976288680E+02  0.12824703200E+03  0.13091377780E+03  0.00000000000E+00 0. -1.
<mgrwt>
<rscale>  0 0.93373442E+02</rscale>
<asrwt>0</asrwt>
<pdfrwt beam="1">  1        1 0.55978191E-01 0.93373442E+02</pdfrwt>
<pdfrwt beam="2">  1       -1 0.92159724E-03 0.93373442E+02</pdfrwt>
<totfact> 0.12458678E+05</totfact>
</mgrwt>
</event>
<event>
 7    1  0.3301067E-009  0.9122680E+02  0.7818608E-02  0.1299908E+00
          1   -1    0    0  501    0  0.00000000000E+00  0.00000000000E+00  0.26199359006E+01  0.26199407483E+01  0.50400000000E-02 0. -1.
         -1   -1    0    0    0  501 -0.00000000000E+00 -0.00000000000E+00 -0.79413398416E+03  0.79413398417E+03  0.50400000000E-02 0.  1.
         23    2    1    2    0    0  0.41633363423E-16  0.35527136788E-14 -0.79151404826E+03  0.79675392492E+03  0.91226795901E+02 0.  0.
    9000005    2    3    3    0    0 -0.54807490097E-01 -0.25548824356E+02 -0.72502792826E+03  0.72552787925E+03  0.85124251460E+01 0.  0.
         22    1    3    3    0    0  0.54807490097E-01  0.25548824356E+02 -0.66486119995E+02  0.71226045670E+02  0.00000000000E+00 0. -1.
         22    1    4    4    0    0 -0.88157561023E+00 -0.19997879948E+02 -0.45297976200E+03  0.45342183136E+03  0.00000000000E+00 0. -1.
         22    1    4    4    0    0  0.82676812013E+00 -0.55509444074E+01 -0.27204816627E+03  0.27210604789E+03  0.00000000000E+00 0. -1.
<mgrwt>
<rscale>  0 0.91226796E+02</rscale>
<asrwt>0</asrwt>
<pdfrwt beam="1">  1        1 0.40306807E-03 0.91226796E+02</pdfrwt>
<pdfrwt beam="2">  1       -1 0.12217427E+00 0.91226796E+02</pdfrwt>
<totfact> 0.32837608E+04</totfact>
</mgrwt>
</event>
<event>
 6    1  0.3301067E-009  0.1334234E+03  0.7818608E-02  0.1222463E+00
         -1   -1    0    0    0  501 -0.00000000000E+00  0.00000000000E+00  0.19412364419E+03  0.19412364425E+03  0.50400000000E-02 0.  1.
          1   -1    0    0  501    0  0.00000000000E+00 -0.00000000000E+00 -0.22925851205E+02  0.22925851759E+02  0.50400000000E-02 0. -1.
    9000005    2    1    2    0    0  0.36338291280E+02  0.55415139962E+02  0.91312184051E+02  0.11325633793E+03  0.98880723621E+01 0.  0.
         22    1    1    2    0    0 -0.36338291280E+02 -0.55415139962E+02  0.79885608929E+02  0.10379315808E+03  0.00000000000E+00 0.  1.
         22    1    3    3    0    0  0.30891888162E+02  0.52232266907E+02  0.82173768430E+02  0.10215207623E+03  0.00000000000E+00 0. -1.
         22    1    3    3    0    0  0.54464031177E+01  0.31828730551E+01  0.91384156218E+01  0.11104261699E+02  0.00000000000E+00 0. -1.
<mgrwt>
<rscale>  0 0.13342338E+03</rscale>
<asrwt>0</asrwt>
<pdfrwt beam="2">  1        1 0.35270540E-02 0.13342338E+03</pdfrwt>
<pdfrwt beam="1">  1       -1 0.29865177E-01 0.13342338E+03</pdfrwt>
<totfact> 0.25732666E+04</totfact>
</mgrwt>
</event>
<event>
 7    1  0.3301067E-009  0.9075908E+02  0.7818608E-02  0.1301024E+00
          1   -1    0    0  501    0  0.00000000000E+00  0.00000000000E+00  0.23848815199E+02  0.23848815732E+02  0.50400000000E-02 0. -1.
         -1   -1    0    0    0  501 -0.00000000000E+00 -0.00000000000E+00 -0.86348215095E+02  0.86348215243E+02  0.50400000000E-02 0.  1.
         23    2    1    2    0    0  0.00000000000E+00  0.00000000000E+00 -0.62499399896E+02  0.11019703097E+03  0.90759080252E+02 0.  0.
    9000005    2    3    3    0    0 -0.36004529823E+02  0.18257486807E+02 -0.55077724738E+02  0.69151406915E+02  0.10894921918E+02 0.  0.
         22    1    3    3    0    0  0.36004529823E+02 -0.18257486807E+02 -0.74216751579E+01  0.41045624060E+02  0.00000000000E+00 0. -1.
         22    1    4    4    0    0 -0.21107113519E+02  0.46999706243E+01 -0.30140301420E+02  0.37094982608E+02  0.00000000000E+00 0. -1.
         22    1    4    4    0    0 -0.14897416304E+02  0.13557516183E+02 -0.24937423318E+02  0.32056424307E+02  0.00000000000E+00 0. -1.
<mgrwt>
<rscale>  0 0.90759080E+02</rscale>
<asrwt>0</asrwt>
<pdfrwt beam="1">  1        1 0.36690486E-02 0.90759080E+02</pdfrwt>
<pdfrwt beam="2">  1       -1 0.13284341E-01 0.90759080E+02</pdfrwt>
<totfact> 0.84538179E+04</totfact>
</mgrwt>
</event>
<event>
 7    1  0.3301067E-009  0.9550511E+02  0.7818608E-02  0.1290042E+00
         -1   -1    0    0    0  501 -0.00000000000E+00  0.00000000000E+00  0.96460182231E+01  0.96460195398E+01  0.50400000000E-02 0.  1.
          1   -1    0    0  501    0  0.00000000000E+00 -0.00000000000E+00 -0.23639872373E+03  0.23639872378E+03  0.50400000000E-02 0. -1.
         23    2    1    2    0    0 -0.71054273576E-14  0.00000000000E+00 -0.22675270551E+03  0.24604474332E+03  0.95505111185E+02 0.  0.
    9000005    2    3    3    0    0  0.41925627168E+02 -0.22310604171E+02 -0.11215999728E+03  0.12200035590E+03  0.69785799755E+01 0.  0.
         22    1    3    3    0    0 -0.41925627168E+02  0.22310604171E+02 -0.11459270823E+03  0.12404438742E+03  0.00000000000E+00 0.  1.
         22    1    4    4    0    0  0.79770728187E+01 -0.24109837061E+01 -0.25431763787E+02  0.26762308244E+02  0.00000000000E+00 0. -1.
         22    1    4    4    0    0  0.33948554350E+02 -0.19899620465E+02 -0.86728233493E+02  0.95238047659E+02  0.00000000000E+00 0. -1.
<mgrwt>
<rscale>  0 0.95505111E+02</rscale>
<asrwt>0</asrwt>
<pdfrwt beam="2">  1        1 0.36369030E-01 0.95505111E+02</pdfrwt>
<pdfrwt beam="1">  1       -1 0.14840031E-02 0.95505111E+02</pdfrwt>
<totfact> 0.10801845E+05</totfact>
</mgrwt>
</event>
<event>
 7    1  0.3301067E-009  0.9191465E+02  0.7818608E-02  0.1298280E+00
          1   -1    0    0  501    0  0.00000000000E+00  0.00000000000E+00  0.64701181152E+03  0.64701181154E+03  0.50400000000E-02 0. -1.
         -1   -1    0    0    0  501 -0.00000000000E+00 -0.00000000000E+00 -0.32643520508E+01  0.32643559416E+01  0.50400000000E-02 0.  1.
         23    2    1    2    0    0  0.00000000000E+00  0.00000000000E+00  0.64374745947E+03  0.65027616748E+03  0.91914647478E+02 0.  0.
    9000005    2    3    3    0    0 -0.82887160479E+01  0.30138010834E+02  0.55708736538E+03  0.55815139113E+03  0.14478958520E+02 0.  0.
         22    1    3    3    0    0  0.82887160479E+01 -0.30138010834E+02  0.86660094082E+02  0.92124776347E+02  0.00000000000E+00 0.  1.
         22    1    4    4    0    0 -0.94568921391E+01  0.28550963401E+02  0.54915169927E+03  0.54997470772E+03  0.00000000000E+00 0.  1.
         22    1    4    4    0    0  0.11681760912E+01  0.15870474324E+01  0.79356661159E+01  0.81766834130E+01  0.00000000000E+00 0.  1.
<mgrwt>
<rscale>  0 0.91914647E+02</rscale>
<asrwt>0</asrwt>
<pdfrwt beam="1">  1        1 0.99540357E-01 0.91914647E+02</pdfrwt>
<pdfrwt beam="2">  1       -1 0.50220792E-03 0.91914647E+02</pdfrwt>
<totfact> 0.13906517E+05</totfact>
</mgrwt>
</event>
<event>
 7    1  0.3301067E-009  0.9023514E+02  0.7818608E-02  0.1302283E+00
          1   -1    0    0  501    0  0.00000000000E+00  0.00000000000E+00  0.44083764951E+02  0.44083765239E+02  0.50400000000E-02 0. -1.
         -1   -1    0    0    0  501 -0.00000000000E+00 -0.00000000000E+00 -0.46175623009E+02  0.46175623284E+02  0.50400000000E-02 0.  1.
         23    2    1    2    0    0  0.35527136788E-14 -0.71054273576E-14 -0.20918580576E+01  0.90259388523E+02  0.90235144741E+02 0.  0.
    9000005    2    3    3    0    0 -0.16220824718E+02  0.23472597640E+02 -0.35175547540E+02  0.46571764369E+02  0.10841222126E+02 0.  0.
         22    1    3    3    0    0  0.16220824718E+02 -0.23472597640E+02  0.33083689482E+02  0.43687624155E+02  0.00000000000E+00 0. -1.
         22    1    4    4    0    0 -0.15668871373E+02  0.24618307988E+02 -0.33001505057E+02  0.44053081099E+02  0.00000000000E+00 0. -1.
         22    1    4    4    0    0 -0.55195334514E+00 -0.11457103478E+01 -0.21740424827E+01  0.25186832697E+01  0.00000000000E+00 0. -1.
<mgrwt>
<rscale>  0 0.90235145E+02</rscale>
<asrwt>0</asrwt>
<pdfrwt beam="1">  1        1 0.67821177E-02 0.90235145E+02</pdfrwt>
<pdfrwt beam="2">  1       -1 0.71039420E-02 0.90235145E+02</pdfrwt>
<totfact> 0.94727066E+04</totfact>
</mgrwt>
</event>
<event>
 7    1  0.3301067E-009  0.9090230E+02  0.7818608E-02  0.1300681E+00
         -1   -1    0    0    0  501 -0.00000000000E+00  0.00000000000E+00  0.50048095783E+01  0.50048121160E+01  0.50400000000E-02 0.  1.
          1   -1    0    0  501    0  0.00000000000E+00 -0.00000000000E+00 -0.41276429867E+03  0.41276429870E+03  0.50400000000E-02 0. -1.
         23    2    1    2    0    0  0.00000000000E+00 -0.71054273576E-14 -0.40775948909E+03  0.41776911082E+03  0.90902304748E+02 0.  0.
    9000005    2    3    3    0    0  0.27602949552E+02  0.33072975549E+02 -0.25766738636E+03  0.26161731340E+03  0.13978273812E+02 0.  0.
         22    1    3    3    0    0 -0.27602949552E+02 -0.33072975549E+02 -0.15009210273E+03  0.15615179742E+03  0.00000000000E+00 0.  1.
         22    1    4    4    0    0  0.20847793660E+02  0.27946105113E+02 -0.23148033270E+03  0.23409134909E+03  0.00000000000E+00 0.  1.
         22    1    4    4    0    0  0.67551558916E+01  0.51268704361E+01 -0.26187053668E+02  0.27525964314E+02  0.00000000000E+00 0.  1.
<mgrwt>
<rscale>  0 0.90902305E+02</rscale>
<asrwt>0</asrwt>
<pdfrwt beam="2">  1        1 0.63502173E-01 0.90902305E+02</pdfrwt>
<pdfrwt beam="1">  1       -1 0.76997123E-03 0.90902305E+02</pdfrwt>
<totfact> 0.13666622E+05</totfact>
</mgrwt>
</event>
<event>
 7    1  0.3301067E-009  0.9013016E+02  0.7818608E-02  0.1302537E+00
         -1   -1    0    0    0  501 -0.00000000000E+00  0.00000000000E+00  0.97819583252E+02  0.97819583382E+02  0.50400000000E-02 0.  1.
          1   -1    0    0  501    0  0.00000000000E+00 -0.00000000000E+00 -0.20761294831E+02  0.20761295443E+02  0.50400000000E-02 0. -1.
         23    2    1    2    0    0  0.71054273576E-14  0.00000000000E+00  0.77058288421E+02  0.11858087882E+03  0.90130155933E+02 0.  0.
    9000005    2    3    3    0    0 -0.34508294859E+02 -0.89030996138E+01  0.34589905674E+01  0.36807140734E+02  0.85272150450E+01 0.  0.
         22    1    3    3    0    0  0.34508294859E+02  0.89030996138E+01  0.73599297854E+02  0.81773738091E+02  0.00000000000E+00 0.  1.
         22    1    4    4    0    0 -0.42950252230E+01 -0.35162991246E+00  0.32646874634E+01  0.54063915411E+01  0.00000000000E+00 0. -1.
         22    1    4    4    0    0 -0.30213269636E+02 -0.85514697014E+01  0.19430310397E+00  0.31400749193E+02  0.00000000000E+00 0. -1.
<mgrwt>
<rscale>  0 0.90130156E+02</rscale>
<asrwt>0</asrwt>
<pdfrwt beam="2">  1        1 0.31940454E-02 0.90130156E+02</pdfrwt>
<pdfrwt beam="1">  1       -1 0.15049167E-01 0.90130156E+02</pdfrwt>
<totfact> 0.84165205E+04</totfact>
</mgrwt>
</event>
<event>
 7    1  0.3301067E-009  0.9112675E+02  0.7818608E-02  0.1300146E+00
          1   -1    0    0  501    0  0.00000000000E+00  0.00000000000E+00  0.25365519415E+01  0.25365569487E+01  0.50400000000E-02 0. -1.
         -1   -1    0    0    0  501 -0.00000000000E+00 -0.00000000000E+00 -0.81844130209E+03  0.81844130211E+03  0.50400000000E-02 0.  1.
         23    2    1    2    0    0  0.00000000000E+00  0.00000000000E+00 -0.81590475015E+03  0.82097785905E+03  0.91126745483E+02 0.  0.
    9000005    2    3    3    0    0 -0.27691294276E+02 -0.42945600767E+01 -0.72932337702E+03  0.72997464374E+03  0.12850727959E+02 0.  0.
         22    1    3    3    0    0  0.27691294276E+02  0.42945600767E+01 -0.86581373132E+02  0.91003215318E+02  0.00000000000E+00 0. -1.
         22    1    4    4    0    0 -0.54475068891E+01 -0.62696928374E+01 -0.23595251708E+03  0.23609865458E+03  0.00000000000E+00 0.  1.
         22    1    4    4    0    0 -0.22243787387E+02  0.19751327607E+01 -0.49337085994E+03  0.49387598916E+03  0.00000000000E+00 0.  1.
<mgrwt>
<rscale>  0 0.91126745E+02</rscale>
<asrwt>0</asrwt>
<pdfrwt beam="1">  1        1 0.39023980E-03 0.91126745E+02</pdfrwt>
<pdfrwt beam="2">  1       -1 0.12591384E+00 0.91126745E+02</pdfrwt>
<totfact> 0.31978020E+04</totfact>
</mgrwt>
</event>
<event>
 7    1  0.3301067E-009  0.9176085E+02  0.7818608E-02  0.1298643E+00
          1   -1    0    0  501    0  0.00000000000E+00  0.00000000000E+00  0.27093643914E+02  0.27093644383E+02  0.50400000000E-02 0. -1.
         -1   -1    0    0    0  501 -0.00000000000E+00 -0.00000000000E+00 -0.77693988417E+02  0.77693988580E+02  0.50400000000E-02 0.  1.
         23    2    1    2    0    0  0.00000000000E+00  0.00000000000E+00 -0.50600344503E+02  0.10478763296E+03  0.91760847632E+02 0.  0.
    9000005    2    3    3    0    0 -0.31331351477E+02  0.29261996453E+01 -0.62804322705E+02  0.71036287602E+02  0.10561958910E+02 0.  0.
         22    1    3    3    0    0  0.31331351477E+02 -0.29261996453E+01  0.12203978202E+02  0.33751345361E+02  0.00000000000E+00 0. -1.
         22    1    4    4    0    0 -0.22254202585E+02  0.11939034366E+01 -0.32907836401E+02  0.39744189950E+02  0.00000000000E+00 0.  1.
         22    1    4    4    0    0 -0.90771488918E+01  0.17322962087E+01 -0.29896486304E+02  0.31292097652E+02  0.00000000000E+00 0.  1.
<mgrwt>
<rscale>  0 0.91760848E+02</rscale>
<asrwt>0</asrwt>
<pdfrwt beam="1">  1        1 0.41682530E-02 0.91760848E+02</pdfrwt>
<pdfrwt beam="2">  1       -1 0.11952921E-01 0.91760848E+02</pdfrwt>
<totfact> 0.83688714E+04</totfact>
</mgrwt>
</event>
<event>
 7    1  0.3301067E-009  0.9474491E+02  0.7818608E-02  0.1291752E+00
          1   -1    0    0  501    0  0.00000000000E+00  0.00000000000E+00  0.57558281097E+02  0.57558281318E+02  0.50400000000E-02 0. -1.
         -1   -1    0    0    0  501 -0.00000000000E+00 -0.00000000000E+00 -0.38989164477E+02  0.38989164803E+02  0.50400000000E-02 0.  1.
         23    2    1    2    0    0  0.00000000000E+00  0.00000000000E+00  0.18569116620E+02  0.96547446121E+02  0.94744906251E+02 0.  0.
    9000005    2    3    3    0    0 -0.20286005741E+02 -0.41232032929E+02  0.20450570916E+00  0.47061473338E+02  0.10155682243E+02 0.  0.
         22    1    3    3    0    0  0.20286005741E+02  0.41232032929E+02  0.18364610911E+02  0.49485972783E+02  0.00000000000E+00 0.  1.
         22    1    4    4    0    0 -0.15825455032E+01 -0.13550516282E+02  0.51133582641E+00  0.13652194186E+02  0.00000000000E+00 0. -1.
         22    1    4    4    0    0 -0.18703460238E+02 -0.27681516647E+02 -0.30683011725E+00  0.33409279152E+02  0.00000000000E+00 0. -1.
<mgrwt>
<rscale>  0 0.94744906E+02</rscale>
<asrwt>0</asrwt>
<pdfrwt beam="1">  1        1 0.88551202E-02 0.94744906E+02</pdfrwt>
<pdfrwt beam="2">  1       -1 0.59983330E-02 0.94744906E+02</pdfrwt>
<totfact> 0.86045094E+04</totfact>
</mgrwt>
</event>
<event>
 7    1  0.3301067E-009  0.8938118E+02  0.7818608E-02  0.1304357E+00
         -1   -1    0    0    0  501 -0.00000000000E+00  0.00000000000E+00  0.36182327079E+03  0.36182327082E+03  0.50400000000E-02 0.  1.
          1   -1    0    0  501    0  0.00000000000E+00 -0.00000000000E+00 -0.55199551031E+01  0.55199574040E+01  0.50400000000E-02 0. -1.
         23    2    1    2    0    0  0.00000000000E+00  0.00000000000E+00  0.35630331568E+03  0.36734322822E+03  0.89381175625E+02 0.  0.
    9000005    2    3    3    0    0  0.43022174730E+02 -0.48447174526E+01  0.18564157038E+03  0.19127559884E+03  0.15785539414E+02 0.  0.
         22    1    3    3    0    0 -0.43022174730E+02  0.48447174526E+01  0.17066174531E+03  0.17606762938E+03  0.00000000000E+00 0. -1.
         22    1    4    4    0    0  0.18934561599E+02  0.51088767695E+01  0.67378356799E+02  0.70174505411E+02  0.00000000000E+00 0.  1.
         22    1    4    4    0    0  0.24087613132E+02 -0.99535942221E+01  0.11826321358E+03  0.12110109343E+03  0.00000000000E+00 0.  1.
<mgrwt>
<rscale>  0 0.89381176E+02</rscale>
<asrwt>0</asrwt>
<pdfrwt beam="2">  1        1 0.84922380E-03 0.89381176E+02</pdfrwt>
<pdfrwt beam="1">  1       -1 0.55665134E-01 0.89381176E+02</pdfrwt>
<totfact> 0.58922701E+04</totfact>
</mgrwt>
</event>
<event>
 7    1  0.3301067E-009  0.8989169E+02  0.7818608E-02  0.1303114E+00
          1   -1    0    0  501    0  0.00000000000E+00  0.00000000000E+00  0.43880709665E+03  0.43880709668E+03  0.50400000000E-02 0. -1.
         -1   -1    0    0    0  501 -0.00000000000E+00 -0.00000000000E+00 -0.46036818299E+01  0.46036845888E+01  0.50400000000E-02 0.  1.
         23    2    1    2    0    0 -0.71054273576E-14 -0.88817841970E-15  0.43420341482E+03  0.44341078127E+03  0.89891687619E+02 0.  0.
    9000005    2    3    3    0    0  0.38331864935E+02  0.56593102881E+01  0.32595017946E+03  0.32843198919E+03  0.11076658759E+02 0.  0.
         22    1    3    3    0    0 -0.38331864935E+02 -0.56593102881E+01  0.10825323536E+03  0.11497879208E+03  0.00000000000E+00 0.  1.
         22    1    4    4    0    0  0.14823793261E+02 -0.95245417221E-01  0.86419120383E+02  0.87681345143E+02  0.00000000000E+00 0. -1.
         22    1    4    4    0    0  0.23508071674E+02  0.57545557054E+01  0.23953105907E+03  0.24075064404E+03  0.00000000000E+00 0. -1.
<mgrwt>
<rscale>  0 0.89891688E+02</rscale>
<asrwt>0</asrwt>
<pdfrwt beam="1">  1        1 0.67508781E-01 0.89891688E+02</pdfrwt>
<pdfrwt beam="2">  1       -1 0.70825899E-03 0.89891688E+02</pdfrwt>
<totfact> 0.14210218E+05</totfact>
</mgrwt>
</event>
<event>
 7    1  0.3301067E-009  0.9041474E+02  0.7818608E-02  0.1301850E+00
         -1   -1    0    0    0  501 -0.00000000000E+00  0.00000000000E+00  0.24704821129E+03  0.24704821134E+03  0.50400000000E-02 0.  1.
          1   -1    0    0  501    0  0.00000000000E+00 -0.00000000000E+00 -0.82724982549E+01  0.82724997902E+01  0.50400000000E-02 0. -1.
         23    2    1    2    0    0  0.00000000000E+00  0.00000000000E+00  0.23877571303E+03  0.25532071113E+03  0.90414735509E+02 0.  0.
    9000005    2    3    3    0    0 -0.39064724837E+02 -0.20856109980E+02  0.10568416964E+03  0.11505528783E+03  0.10370414430E+02 0.  0.
         22    1    3    3    0    0  0.39064724837E+02  0.20856109980E+02  0.13309154339E+03  0.14026542330E+03  0.00000000000E+00 0. -1.
         22    1    4    4    0    0 -0.28946395246E+02 -0.17715079296E+02  0.69357109710E+02  0.77214807514E+02  0.00000000000E+00 0.  1.
         22    1    4    4    0    0 -0.10118329591E+02 -0.31410306846E+01  0.36327059930E+02  0.37840480317E+02  0.00000000000E+00 0.  1.
<mgrwt>
<rscale>  0 0.90414736E+02</rscale>
<asrwt>0</asrwt>
<pdfrwt beam="2">  1        1 0.12726923E-02 0.90414736E+02</pdfrwt>
<pdfrwt beam="1">  1       -1 0.38007414E-01 0.90414736E+02</pdfrwt>
<totfact> 0.66464605E+04</totfact>
</mgrwt>
</event>
<event>
 7    1  0.3301067E-009  0.1023932E+03  0.7818608E-02  0.1275342E+00
         -1   -1    0    0    0  501 -0.00000000000E+00  0.00000000000E+00  0.96018966161E+01  0.96018979388E+01  0.50400000000E-02 0.  1.
          1   -1    0    0  501    0  0.00000000000E+00 -0.00000000000E+00 -0.27297671079E+03  0.27297671084E+03  0.50400000000E-02 0. -1.
         23    2    1    2    0    0  0.00000000000E+00  0.00000000000E+00 -0.26337481418E+03  0.28257860878E+03  0.10239324878E+03 0.  0.
    9000005    2    3    3    0    0  0.42996258273E+02 -0.17034435558E+02 -0.19130966428E+03  0.19695013191E+03  0.71495869878E+01 0.  0.
         22    1    3    3    0    0 -0.42996258273E+02  0.17034435558E+02 -0.72065149898E+02  0.85628476864E+02  0.00000000000E+00 0.  1.
         22    1    4    4    0    0  0.78161724105E+01 -0.51557352884E+01 -0.48256616476E+02  0.49156639340E+02  0.00000000000E+00 0.  1.
         22    1    4    4    0    0  0.35180085863E+02 -0.11878700270E+02 -0.14305304780E+03  0.14779349257E+03  0.00000000000E+00 0.  1.
<mgrwt>
<rscale>  0 0.10239325E+03</rscale>
<asrwt>0</asrwt>
<pdfrwt beam="2">  1        1 0.41996411E-01 0.10239325E+03</pdfrwt>
<pdfrwt beam="1">  1       -1 0.14772152E-02 0.10239325E+03</pdfrwt>
<totfact> 0.92131122E+04</totfact>
</mgrwt>
</event>
<event>
 7    1  0.3301067E-009  0.7747003E+02  0.7818608E-02  0.1336388E+00
          1   -1    0    0  501    0  0.00000000000E+00  0.00000000000E+00  0.61478775632E+02  0.61478775838E+02  0.50400000000E-02 0. -1.
         -1   -1    0    0    0  501 -0.00000000000E+00 -0.00000000000E+00 -0.24405192017E+02  0.24405192537E+02  0.50400000000E-02 0.  1.
         23    2    1    2    0    0  0.00000000000E+00  0.35527136788E-14  0.37073583615E+02  0.85883968376E+02  0.77470029185E+02 0.  0.
    9000005    2    3    3    0    0  0.22492365017E+02  0.28567223063E+02  0.54205063756E+01  0.37677018500E+02  0.82573068310E+01 0.  0.
         22    1    3    3    0    0 -0.22492365017E+02 -0.28567223063E+02  0.31653077239E+02  0.48206949876E+02  0.00000000000E+00 0. -1.
         22    1    4    4    0    0  0.15090301006E+02  0.22513871959E+02  0.69821410984E+01  0.27988245914E+02  0.00000000000E+00 0.  1.
         22    1    4    4    0    0  0.74020640113E+01  0.60533511037E+01 -0.15616347228E+01  0.96887725858E+01  0.00000000000E+00 0.  1.
<mgrwt>
<rscale>  0 0.77470029E+02</rscale>
<asrwt>0</asrwt>
<pdfrwt beam="1">  1        1 0.94582730E-02 0.77470029E+02</pdfrwt>
<pdfrwt beam="2">  1       -1 0.37546451E-02 0.77470029E+02</pdfrwt>
<totfact> 0.15107653E+05</totfact>
</mgrwt>
</event>
<event>
 7    1  0.3301067E-009  0.9262986E+02  0.7818608E-02  0.1296605E+00
         -1   -1    0    0    0  501 -0.00000000000E+00  0.00000000000E+00  0.10846318018E+03  0.10846318030E+03  0.50400000000E-02 0.  1.
          1   -1    0    0  501    0  0.00000000000E+00 -0.00000000000E+00 -0.19776964718E+02  0.19776965360E+02  0.50400000000E-02 0. -1.
         23    2    1    2    0    0  0.00000000000E+00  0.00000000000E+00  0.88686215462E+02  0.12824014566E+03  0.92629855582E+02 0.  0.
    9000005    2    3    3    0    0 -0.45860614667E+02 -0.38977952897E+01  0.41712118121E+02  0.62475758586E+02  0.67030461023E+01 0.  0.
         22    1    3    3    0    0  0.45860614667E+02  0.38977952897E+01  0.46974097341E+02  0.65764387071E+02  0.00000000000E+00 0.  1.
         22    1    4    4    0    0 -0.45094713804E+02 -0.33130145875E+01  0.39411419679E+02  0.59981407785E+02  0.00000000000E+00 0. -1.
         22    1    4    4    0    0 -0.76590086310E+00 -0.58478070227E+00  0.23006984415E+01  0.24943508015E+01  0.00000000000E+00 0. -1.
<mgrwt>
<rscale>  0 0.92629856E+02</rscale>
<asrwt>0</asrwt>
<pdfrwt beam="2">  1        1 0.30426101E-02 0.92629856E+02</pdfrwt>
<pdfrwt beam="1">  1       -1 0.16686643E-01 0.92629856E+02</pdfrwt>
<totfact> 0.76919536E+04</totfact>
</mgrwt>
</event>
<event>
 7    1  0.3301067E-009  0.8973178E+02  0.7818608E-02  0.1303503E+00
          1   -1    0    0  501    0  0.00000000000E+00  0.00000000000E+00  0.17485313417E+04  0.17485313418E+04  0.50400000000E-02 0. -1.
         -1   -1    0    0    0  501 -0.00000000000E+00 -0.00000000000E+00 -0.11512165476E+01  0.11512275801E+01  0.50400000000E-02 0.  1.
         23    2    1    2    0    0  0.00000000000E+00  0.00000000000E+00  0.17473801252E+04  0.17496825693E+04  0.89731775255E+02 0.  0.
    9000005    2    3    3    0    0 -0.81285487182E+01 -0.92129791288E+01  0.17145711382E+04  0.17146485585E+04  0.10702282929E+02 0.  0.
         22    1    3    3    0    0  0.81285487182E+01  0.92129791288E+01  0.32808987015E+02  0.35034010870E+02  0.00000000000E+00 0.  1.
         22    1    4    4    0    0 -0.87855266966E+01 -0.69452380964E+01  0.84494922832E+03  0.84502344361E+03  0.00000000000E+00 0.  1.
         22    1    4    4    0    0  0.65697797844E+00 -0.22677410325E+01  0.86962190987E+03  0.86962511486E+03  0.00000000000E+00 0.  1.
<mgrwt>
<rscale>  0 0.89731775E+02</rscale>
<asrwt>0</asrwt>
<pdfrwt beam="1">  1        1 0.26900499E+00 0.89731775E+02</pdfrwt>
<pdfrwt beam="2">  1       -1 0.17711097E-03 0.89731775E+02</pdfrwt>
<totfact> 0.99295964E+04</totfact>
</mgrwt>
</event>
<event>
 7    1  0.3301067E-009  0.1034914E+03  0.7818608E-02  0.1273121E+00
         -1   -1    0    0    0  501 -0.00000000000E+00  0.00000000000E+00  0.42023761097E+02  0.42023761399E+02  0.50400000000E-02 0.  1.
          1   -1    0    0  501    0  0.00000000000E+00 -0.00000000000E+00 -0.63716726529E+02  0.63716726728E+02  0.50400000000E-02 0. -1.
         23    2    1    2    0    0  0.00000000000E+00  0.00000000000E+00 -0.21692965432E+02  0.10574048813E+03  0.10349138167E+03 0.  0.
    9000005    2    3    3    0    0 -0.24293502891E+02  0.61610421282E+01 -0.56452518240E+02  0.62887725856E+02  0.11825672279E+02 0.  0.
         22    1    3    3    0    0  0.24293502891E+02 -0.61610421282E+01  0.34759552808E+02  0.42852762271E+02  0.00000000000E+00 0.  1.
         22    1    4    4    0    0 -0.71815046155E+01  0.67910873166E+01 -0.14237899439E+02  0.17332358637E+02  0.00000000000E+00 0.  1.
         22    1    4    4    0    0 -0.17111998276E+02 -0.63004518849E+00 -0.42214618801E+02  0.45555367219E+02  0.00000000000E+00 0.  1.
<mgrwt>
<rscale>  0 0.10349138E+03</rscale>
<asrwt>0</asrwt>
<pdfrwt beam="2">  1        1 0.98025733E-02 0.10349138E+03</pdfrwt>
<pdfrwt beam="1">  1       -1 0.64651941E-02 0.10349138E+03</pdfrwt>
<totfact> 0.68250074E+04</totfact>
</mgrwt>
</event>
<event>
 7    1  0.3301067E-009  0.9142687E+02  0.7818608E-02  0.1299433E+00
          1   -1    0    0  501    0  0.00000000000E+00  0.00000000000E+00  0.27170163444E+03  0.27170163449E+03  0.50400000000E-02 0. -1.
         -1   -1    0    0    0  501 -0.00000000000E+00 -0.00000000000E+00 -0.76912235482E+01  0.76912251995E+01  0.50400000000E-02 0.  1.
         23    2    1    2    0    0  0.00000000000E+00  0.00000000000E+00  0.26401041090E+03  0.27939285969E+03  0.91426872333E+02 0.  0.
    9000005    2    3    3    0    0  0.12385431152E+02  0.10262750876E+02  0.26240323459E+03  0.26322789832E+03  0.13219151658E+02 0.  0.
         22    1    3    3    0    0 -0.12385431152E+02 -0.10262750876E+02  0.16071763046E+01  0.16164961369E+02  0.00000000000E+00 0.  1.
         22    1    4    4    0    0  0.49026482574E+01 -0.28861971340E+01  0.73256567177E+02  0.73477144259E+02  0.00000000000E+00 0. -1.
         22    1    4    4    0    0  0.74827828947E+01  0.13148948010E+02  0.18914666741E+03  0.18975075406E+03  0.00000000000E+00 0. -1.
<mgrwt>
<rscale>  0 0.91426872E+02</rscale>
<asrwt>0</asrwt>
<pdfrwt beam="1">  1        1 0.41800252E-01 0.91426872E+02</pdfrwt>
<pdfrwt beam="2">  1       -1 0.11832653E-02 0.91426872E+02</pdfrwt>
<totfact> 0.12478027E+05</totfact>
</mgrwt>
</event>
<event>
 7    1  0.3301067E-009  0.9101702E+02  0.7818608E-02  0.1300407E+00
         -1   -1    0    0    0  501 -0.00000000000E+00  0.00000000000E+00  0.19393145427E+02  0.19393146082E+02  0.50400000000E-02 0.  1.
          1   -1    0    0  501    0  0.00000000000E+00 -0.00000000000E+00 -0.10679156445E+03  0.10679156457E+03  0.50400000000E-02 0. -1.
         23    2    1    2    0    0  0.00000000000E+00  0.00000000000E+00 -0.87398419024E+02  0.12618471065E+03  0.91017017938E+02 0.  0.
    9000005    2    3    3    0    0 -0.37200827722E+02  0.23619118330E+02 -0.49251243140E+02  0.67901167848E+02  0.15592283680E+02 0.  0.
         22    1    3    3    0    0  0.37200827722E+02 -0.23619118330E+02 -0.38147175884E+02  0.58283542804E+02  0.00000000000E+00 0.  1.
         22    1    4    4    0    0 -0.22424353757E+02  0.61891912247E+01 -0.19287374834E+02  0.30218546580E+02  0.00000000000E+00 0. -1.
         22    1    4    4    0    0 -0.14776473965E+02  0.17429927105E+02 -0.29963868307E+02  0.37682621268E+02  0.00000000000E+00 0. -1.
<mgrwt>
<rscale>  0 0.91017018E+02</rscale>
<asrwt>0</asrwt>
<pdfrwt beam="2">  1        1 0.16429471E-01 0.91017018E+02</pdfrwt>
<pdfrwt beam="1">  1       -1 0.29835609E-02 0.91017018E+02</pdfrwt>
<totfact> 0.10611410E+05</totfact>
</mgrwt>
</event>
<event>
 7    1  0.3301067E-009  0.8883498E+02  0.7818608E-02  0.1305698E+00
         -1   -1    0    0    0  501 -0.00000000000E+00  0.00000000000E+00  0.87671631782E+01  0.87671646269E+01  0.50400000000E-02 0.  1.
          1   -1    0    0  501    0  0.00000000000E+00 -0.00000000000E+00 -0.22503440923E+03  0.22503440928E+03  0.50400000000E-02 0. -1.
         23    2    1    2    0    0  0.00000000000E+00  0.71054273576E-14 -0.21626724605E+03  0.23380157391E+03  0.88834983252E+02 0.  0.
    9000005    2    3    3    0    0 -0.77396872419E+01  0.40997267045E+02 -0.14253809995E+03  0.14908637074E+03  0.12998359098E+02 0.  0.
         22    1    3    3    0    0  0.77396872419E+01 -0.40997267045E+02 -0.73729146100E+02  0.84715203172E+02  0.00000000000E+00 0.  1.
         22    1    4    4    0    0  0.25655538650E+01  0.21418644683E+02 -0.69565689006E+02  0.72833546485E+02  0.00000000000E+00 0.  1.
         22    1    4    4    0    0 -0.10305241107E+02  0.19578622362E+02 -0.72972410944E+02  0.76252824255E+02  0.00000000000E+00 0.  1.
<mgrwt>
<rscale>  0 0.88834983E+02</rscale>
<asrwt>0</asrwt>
<pdfrwt beam="2">  1        1 0.34620674E-01 0.88834983E+02</pdfrwt>
<pdfrwt beam="1">  1       -1 0.13487946E-02 0.88834983E+02</pdfrwt>
<totfact> 0.12987651E+05</totfact>
</mgrwt>
</event>
<event>
 7    1  0.3301067E-009  0.9122908E+02  0.7818608E-02  0.1299902E+00
         -1   -1    0    0    0  501 -0.00000000000E+00  0.00000000000E+00  0.15011128648E+02  0.15011129494E+02  0.50400000000E-02 0.  1.
          1   -1    0    0  501    0  0.00000000000E+00 -0.00000000000E+00 -0.13860958345E+03  0.13860958354E+03  0.50400000000E-02 0. -1.
         23    2    1    2    0    0  0.71054273576E-14  0.00000000000E+00 -0.12359845480E+03  0.15362071304E+03  0.91229082228E+02 0.  0.
    9000005    2    3    3    0    0 -0.37266050765E+02 -0.29864234440E+01 -0.19756134075E+02  0.43253576447E+02  0.91043823126E+01 0.  0.
         22    1    3    3    0    0  0.37266050765E+02  0.29864234440E+01 -0.10384232073E+03  0.11036713659E+03  0.00000000000E+00 0.  1.
         22    1    4    4    0    0 -0.77104164771E+01 -0.66601038099E+00 -0.20724119741E+00  0.77419016392E+01  0.00000000000E+00 0. -1.
         22    1    4    4    0    0 -0.29555634288E+02 -0.23204130630E+01 -0.19548892877E+02  0.35511674808E+02  0.00000000000E+00 0. -1.
<mgrwt>
<rscale>  0 0.91229082E+02</rscale>
<asrwt>0</asrwt>
<pdfrwt beam="2">  1        1 0.21324551E-01 0.91229082E+02</pdfrwt>
<pdfrwt beam="1">  1       -1 0.23094046E-02 0.91229082E+02</pdfrwt>
<totfact> 0.11035921E+05</totfact>
</mgrwt>
</event>
<event>
 7    1  0.3301067E-009  0.7972689E+02  0.7818608E-02  0.1329828E+00
         -1   -1    0    0    0  501 -0.00000000000E+00  0.00000000000E+00  0.14863233805E+01  0.14863319256E+01  0.50400000000E-02 0.  1.
          1   -1    0    0  501    0  0.00000000000E+00 -0.00000000000E+00 -0.10691413193E+04  0.10691413193E+04  0.50400000000E-02 0. -1.
         23    2    1    2    0    0  0.00000000000E+00  0.17763568394E-14 -0.10676549959E+04  0.10706276513E+04  0.79726891840E+02 0.  0.
    9000005    2    3    3    0    0  0.10767101066E+02  0.14479032449E+02 -0.10085126064E+04  0.10087940432E+04  0.15561859242E+02 0.  0.
         22    1    3    3    0    0 -0.10767101066E+02 -0.14479032449E+02 -0.59142389521E+02  0.61833608048E+02  0.00000000000E+00 0.  1.
         22    1    4    4    0    0  0.59937495780E+01  0.11018451980E+02 -0.91990210859E+03  0.91998761987E+03  0.00000000000E+00 0.  1.
         22    1    4    4    0    0  0.47733514882E+01  0.34605804685E+01 -0.88610497829E+02  0.88806423344E+02  0.00000000000E+00 0.  1.
<mgrwt>
<rscale>  0 0.79726892E+02</rscale>
<asrwt>0</asrwt>
<pdfrwt beam="2">  1        1 0.16448267E+00 0.79726892E+02</pdfrwt>
<pdfrwt beam="1">  1       -1 0.22866665E-03 0.79726892E+02</pdfrwt>
<totfact> 0.18966381E+05</totfact>
</mgrwt>
</event>
<event>
 7    1  0.3301067E-009  0.9224671E+02  0.7818608E-02  0.1297500E+00
         -1   -1    0    0    0  501 -0.00000000000E+00  0.00000000000E+00  0.18896129056E+03  0.18896129063E+03  0.50400000000E-02 0.  1.
          1   -1    0    0  501    0  0.00000000000E+00 -0.00000000000E+00 -0.11258197814E+02  0.11258198943E+02  0.50400000000E-02 0. -1.
         23    2    1    2    0    0  0.00000000000E+00  0.17763568394E-14  0.17770309275E+03  0.20021948957E+03  0.92246706350E+02 0.  0.
    9000005    2    3    3    0    0 -0.40391489648E+02 -0.91201646517E+01  0.49567541390E+02  0.65559289955E+02  0.11244087366E+02 0.  0.
         22    1    3    3    0    0  0.40391489648E+02  0.91201646517E+01  0.12813555136E+03  0.13466019962E+03  0.00000000000E+00 0.  1.
         22    1    4    4    0    0 -0.12622159167E+02 -0.82899482377E+01  0.18532410223E+02  0.23905906645E+02  0.00000000000E+00 0.  1.
         22    1    4    4    0    0 -0.27769330480E+02 -0.83021641401E+00  0.31035131167E+02  0.41653383310E+02  0.00000000000E+00 0.  1.
<mgrwt>
<rscale>  0 0.92246706E+02</rscale>
<asrwt>0</asrwt>
<pdfrwt beam="2">  1        1 0.17320308E-02 0.92246706E+02</pdfrwt>
<pdfrwt beam="1">  1       -1 0.29070964E-01 0.92246706E+02</pdfrwt>
<totfact> 0.68425443E+04</totfact>
</mgrwt>
</event>
<event>
 7    1  0.3301067E-009  0.8375271E+02  0.7818608E-02  0.1318727E+00
         -1   -1    0    0    0  501 -0.00000000000E+00  0.00000000000E+00  0.35802530895E+02  0.35802531250E+02  0.50400000000E-02 0.  1.
          1   -1    0    0  501    0  0.00000000000E+00 -0.00000000000E+00 -0.48980587806E+02  0.48980588065E+02  0.50400000000E-02 0. -1.
         23    2    1    2    0    0  0.00000000000E+00  0.00000000000E+00 -0.13178056910E+02  0.84783119315E+02  0.83752708236E+02 0.  0.
    9000005    2    3    3    0    0  0.47540521058E+01  0.29965713915E+02  0.22277687630E+02  0.38117769827E+02  0.60103235008E+01 0.  0.
         22    1    3    3    0    0 -0.47540521058E+01 -0.29965713915E+02 -0.35455744541E+02  0.46665349488E+02  0.00000000000E+00 0. -1.
         22    1    4    4    0    0  0.58660972872E+01  0.18796051971E+02  0.14757119787E+02  0.24606406717E+02  0.00000000000E+00 0.  1.
         22    1    4    4    0    0 -0.11120451814E+01  0.11169661944E+02  0.75205678431E+01  0.13511363111E+02  0.00000000000E+00 0.  1.
<mgrwt>
<rscale>  0 0.83752708E+02</rscale>
<asrwt>0</asrwt>
<pdfrwt beam="2">  1        1 0.75354751E-02 0.83752708E+02</pdfrwt>
<pdfrwt beam="1">  1       -1 0.55080817E-02 0.83752708E+02</pdfrwt>
<totfact> 0.11833550E+05</totfact>
</mgrwt>
</event>
<event>
 7    1  0.3301067E-009  0.9100746E+02  0.7818608E-02  0.1300430E+00
         -1   -1    0    0    0  501 -0.00000000000E+00  0.00000000000E+00  0.15637555369E+02  0.15637556182E+02  0.50400000000E-02 0.  1.
          1   -1    0    0  501    0  0.00000000000E+00 -0.00000000000E+00 -0.13241133017E+03  0.13241133027E+03  0.50400000000E-02 0. -1.
         23    2    1    2    0    0  0.71054273576E-14  0.00000000000E+00 -0.11677377480E+03  0.14804888645E+03  0.91007462866E+02 0.  0.
    9000005    2    3    3    0    0  0.41251813331E+02 -0.11326487854E+02 -0.78859294633E+02  0.90886755307E+02  0.14546907233E+02 0.  0.
         22    1    3    3    0    0 -0.41251813331E+02  0.11326487854E+02 -0.37914480170E+02  0.57162131143E+02  0.00000000000E+00 0. -1.
         22    1    4    4    0    0  0.12625137812E+02 -0.13492538170E+01 -0.37611126302E+02  0.39696491184E+02  0.00000000000E+00 0. -1.
         22    1    4    4    0    0  0.28626675520E+02 -0.99772340366E+01 -0.41248168331E+02  0.51190264123E+02  0.00000000000E+00 0. -1.
<mgrwt>
<rscale>  0 0.91007463E+02</rscale>
<asrwt>0</asrwt>
<pdfrwt beam="2">  1        1 0.20370973E-01 0.91007463E+02</pdfrwt>
<pdfrwt beam="1">  1       -1 0.24057779E-02 0.91007463E+02</pdfrwt>
<totfact> 0.11017891E+05</totfact>
</mgrwt>
</event>
<event>
 7    1  0.3301067E-009  0.7998211E+02  0.7818608E-02  0.1329102E+00
          1   -1    0    0  501    0  0.00000000000E+00  0.00000000000E+00  0.34719273965E+01  0.34719310547E+01  0.50400000000E-02 0. -1.
         -1   -1    0    0    0  501 -0.00000000000E+00 -0.00000000000E+00 -0.46063284989E+03  0.46063284992E+03  0.50400000000E-02 0.  1.
         23    2    1    2    0    0 -0.35527136788E-14  0.35527136788E-14 -0.45716092250E+03  0.46410478098E+03  0.79982114665E+02 0.  0.
    9000005    2    3    3    0    0  0.28160867481E+02  0.23892381641E+02 -0.30551766338E+03  0.30802929157E+03  0.13308699035E+02 0.  0.
         22    1    3    3    0    0 -0.28160867481E+02 -0.23892381641E+02 -0.15164325912E+03  0.15607548941E+03  0.00000000000E+00 0. -1.
         22    1    4    4    0    0  0.26182143656E+02  0.20757309618E+02 -0.29482379174E+03  0.29671103573E+03  0.00000000000E+00 0.  1.
         22    1    4    4    0    0  0.19787238244E+01  0.31350720231E+01 -0.10693871641E+02  0.11318255839E+02  0.00000000000E+00 0.  1.
<mgrwt>
<rscale>  0 0.79982115E+02</rscale>
<asrwt>0</asrwt>
<pdfrwt beam="1">  1        1 0.53414332E-03 0.79982115E+02</pdfrwt>
<pdfrwt beam="2">  1       -1 0.70866544E-01 0.79982115E+02</pdfrwt>
<totfact> 0.69507762E+04</totfact>
</mgrwt>
</event>
<event>
 7    1  0.4295996E-009  0.9289973E+02  0.7818608E-02  0.1295978E+00
         -1   -1    0    0    0  501 -0.00000000000E+00  0.00000000000E+00  0.18237959062E+02  0.18237959758E+02  0.50400000000E-02 0.  1.
          1   -1    0    0  501    0  0.00000000000E+00 -0.00000000000E+00 -0.11830216771E+03  0.11830216782E+03  0.50400000000E-02 0. -1.
         23    2    1    2    0    0  0.00000000000E+00  0.00000000000E+00 -0.10006420865E+03  0.13654012758E+03  0.92899734048E+02 0.  0.
    9000005    2    3    3    0    0  0.14069287663E+02  0.41662272939E+01 -0.11431758111E+03  0.11608380993E+03  0.13843383674E+02 0.  0.
         22    1    3    3    0    0 -0.14069287663E+02 -0.41662272939E+01  0.14253372460E+02  0.20456317648E+02  0.00000000000E+00 0.  1.
         22    1    4    4    0    0  0.15614875325E+02  0.10606075917E+01 -0.10462562288E+03  0.10578974517E+03  0.00000000000E+00 0.  1.
         22    1    4    4    0    0 -0.15455876615E+01  0.31056197022E+01 -0.96919582329E+01  0.10294064763E+02  0.00000000000E+00 0.  1.
<mgrwt>
<rscale>  0 0.92899734E+02</rscale>
<asrwt>0</asrwt>
<pdfrwt beam="2">  1        1 0.18200333E-01 0.92899734E+02</pdfrwt>
<pdfrwt beam="1">  1       -1 0.28058400E-02 0.92899734E+02</pdfrwt>
<totfact> 0.10214009E+05</totfact>
</mgrwt>
</event>
<event>
 7    1  0.3301067E-009  0.9030947E+02  0.7818608E-02  0.1302104E+00
         -1   -1    0    0    0  501 -0.00000000000E+00  0.00000000000E+00  0.48907081857E+02  0.48907082117E+02  0.50400000000E-02 0.  1.
          1   -1    0    0  501    0  0.00000000000E+00 -0.00000000000E+00 -0.41690278790E+02  0.41690279095E+02  0.50400000000E-02 0. -1.
         23    2    1    2    0    0  0.71054273576E-14  0.17763568394E-14  0.72168030667E+01  0.90597361212E+02  0.90309465794E+02 0.  0.
    9000005    2    3    3    0    0  0.42032040927E+02  0.12832059478E+02 -0.77801073185E+00  0.45928901841E+02  0.13323081803E+02 0.  0.
         22    1    3    3    0    0 -0.42032040927E+02 -0.12832059478E+02  0.79948137985E+01  0.44668459371E+02  0.00000000000E+00 0.  1.
         22    1    4    4    0    0  0.23661836132E+02  0.45486444866E+01  0.57032618757E+01  0.24760853213E+02  0.00000000000E+00 0. -1.
         22    1    4    4    0    0  0.18370204795E+02  0.82834149915E+01 -0.64812726076E+01  0.21168048628E+02  0.00000000000E+00 0. -1.
<mgrwt>
<rscale>  0 0.90309466E+02</rscale>
<asrwt>0</asrwt>
<pdfrwt beam="2">  1        1 0.64138891E-02 0.90309466E+02</pdfrwt>
<pdfrwt beam="1">  1       -1 0.75241665E-02 0.90309466E+02</pdfrwt>
<totfact> 0.93722425E+04</totfact>
</mgrwt>
</event>
<event>
 7    1  0.3301067E-009  0.8623469E+02  0.7818608E-02  0.1312235E+00
          1   -1    0    0  501    0  0.00000000000E+00  0.00000000000E+00  0.42426517127E+03  0.42426517130E+03  0.50400000000E-02 0. -1.
         -1   -1    0    0    0  501 -0.00000000000E+00 -0.00000000000E+00 -0.43819409899E+01  0.43819438883E+01  0.50400000000E-02 0.  1.
         23    2    1    2    0    0  0.17763568394E-14  0.00000000000E+00  0.41988323028E+03  0.42864711519E+03  0.86234693069E+02 0.  0.
    9000005    2    3    3    0    0  0.14991908135E+02  0.17729266210E+02  0.38953814251E+03  0.39043836564E+03  0.12769835821E+02 0.  0.
         22    1    3    3    0    0 -0.14991908135E+02 -0.17729266210E+02  0.30345087767E+02  0.38208749541E+02  0.00000000000E+00 0.  1.
         22    1    4    4    0    0  0.90968952752E+01  0.14582847164E+02  0.18650593916E+03  0.18729623135E+03  0.00000000000E+00 0. -1.
         22    1    4    4    0    0  0.58950128602E+01  0.31464190463E+01  0.20303220335E+03  0.20314213430E+03  0.00000000000E+00 0. -1.
<mgrwt>
<rscale>  0 0.86234693E+02</rscale>
<asrwt>0</asrwt>
<pdfrwt beam="1">  1        1 0.65271560E-01 0.86234693E+02</pdfrwt>
<pdfrwt beam="2">  1       -1 0.67414505E-03 0.86234693E+02</pdfrwt>
<totfact> 0.15779011E+05</totfact>
</mgrwt>
</event>
<event>
 7    1  0.3301067E-009  0.9156046E+02  0.7818608E-02  0.1299116E+00
         -1   -1    0    0    0  501 -0.00000000000E+00  0.00000000000E+00  0.10696397904E+02  0.10696399091E+02  0.50400000000E-02 0.  1.
          1   -1    0    0  501    0  0.00000000000E+00 -0.00000000000E+00 -0.19593784417E+03  0.19593784424E+03  0.50400000000E-02 0. -1.
         23    2    1    2    0    0  0.00000000000E+00 -0.71054273576E-14 -0.18524144627E+03  0.20663424333E+03  0.91560455985E+02 0.  0.
    9000005    2    3    3    0    0 -0.25740345268E+02 -0.35202111468E+02 -0.12054384453E+03  0.12861159472E+03  0.10410082328E+02 0.  0.
         22    1    3    3    0    0  0.25740345268E+02  0.35202111468E+02 -0.64697601734E+02  0.78022648612E+02  0.00000000000E+00 0. -1.
         22    1    4    4    0    0 -0.95583972533E+00 -0.87503535709E+00 -0.62663584389E+00  0.14394404946E+01  0.00000000000E+00 0.  1.
         22    1    4    4    0    0 -0.24784505542E+02 -0.34327076110E+02 -0.11991720869E+03  0.12717215422E+03  0.00000000000E+00 0.  1.
<mgrwt>
<rscale>  0 0.91560456E+02</rscale>
<asrwt>0</asrwt>
<pdfrwt beam="2">  1        1 0.30144281E-01 0.91560456E+02</pdfrwt>
<pdfrwt beam="1">  1       -1 0.16455999E-02 0.91560456E+02</pdfrwt>
<totfact> 0.11661390E+05</totfact>
</mgrwt>
</event>
<event>
 7    1  0.3301067E-009  0.9490777E+02  0.7818608E-02  0.1291384E+00
         -1   -1    0    0    0  501 -0.00000000000E+00  0.00000000000E+00  0.78514075591E+01  0.78514091767E+01  0.50400000000E-02 0.  1.
          1   -1    0    0  501    0  0.00000000000E+00 -0.00000000000E+00 -0.28681112926E+03  0.28681112931E+03  0.50400000000E-02 0. -1.
         23    2    1    2    0    0  0.00000000000E+00  0.00000000000E+00 -0.27895972170E+03  0.29466253848E+03  0.94907772351E+02 0.  0.
    9000005    2    3    3    0    0  0.35481649892E+02 -0.92252657097E+01 -0.23042384449E+03  0.23383668556E+03  0.15504657354E+02 0.  0.
         22    1    3    3    0    0 -0.35481649892E+02  0.92252657097E+01 -0.48535877214E+02  0.60825852920E+02  0.00000000000E+00 0.  1.
         22    1    4    4    0    0  0.14940651358E+02 -0.58607262994E+00 -0.54743966860E+02  0.56749171375E+02  0.00000000000E+00 0. -1.
         22    1    4    4    0    0  0.20540998534E+02 -0.86391930798E+01 -0.17567987763E+03  0.17708751419E+03  0.00000000000E+00 0. -1.
<mgrwt>
<rscale>  0 0.94907772E+02</rscale>
<asrwt>0</asrwt>
<pdfrwt beam="2">  1        1 0.44124781E-01 0.94907772E+02</pdfrwt>
<pdfrwt beam="1">  1       -1 0.12079092E-02 0.94907772E+02</pdfrwt>
<totfact> 0.11410854E+05</totfact>
</mgrwt>
</event>
<event>
 7    1  0.3301067E-009  0.9054093E+02  0.7818608E-02  0.1301547E+00
          1   -1    0    0  501    0  0.00000000000E+00  0.00000000000E+00  0.53472141297E+03  0.53472141299E+03  0.50400000000E-02 0. -1.
         -1   -1    0    0    0  501 -0.00000000000E+00 -0.00000000000E+00 -0.38326761585E+01  0.38326794723E+01  0.50400000000E-02 0.  1.
         23    2    1    2    0    0  0.00000000000E+00 -0.35527136788E-14  0.53088873681E+03  0.53855409246E+03  0.90540927975E+02 0.  0.
    9000005    2    3    3    0    0  0.40586503713E+01  0.19715698058E+02  0.50642811978E+03  0.50687597417E+03  0.69736146543E+01 0.  0.
         22    1    3    3    0    0 -0.40586503713E+01 -0.19715698058E+02  0.24460617032E+02  0.31678118289E+02  0.00000000000E+00 0.  1.
         22    1    4    4    0    0  0.30493359972E+01  0.16112598905E+02  0.32902708575E+03  0.32943548299E+03  0.00000000000E+00 0.  1.
         22    1    4    4    0    0  0.10093143741E+01  0.36030991535E+01  0.17740103403E+03  0.17744049119E+03  0.00000000000E+00 0.  1.
<mgrwt>
<rscale>  0 0.90540928E+02</rscale>
<asrwt>0</asrwt>
<pdfrwt beam="1">  1        1 0.82264790E-01 0.90540928E+02</pdfrwt>
<pdfrwt beam="2">  1       -1 0.58964305E-03 0.90540928E+02</pdfrwt>
<totfact> 0.14290901E+05</totfact>
</mgrwt>
</event>
<event>
 7    1  0.3301067E-009  0.8943202E+02  0.7818608E-02  0.1304233E+00
         -1   -1    0    0    0  501 -0.00000000000E+00  0.00000000000E+00  0.91517741654E+01  0.91517755532E+01  0.50400000000E-02 0.  1.
          1   -1    0    0  501    0  0.00000000000E+00 -0.00000000000E+00 -0.21848455256E+03  0.21848455262E+03  0.50400000000E-02 0. -1.
         23    2    1    2    0    0  0.00000000000E+00  0.00000000000E+00 -0.20933277840E+03  0.22763632817E+03  0.89432017718E+02 0.  0.
    9000005    2    3    3    0    0 -0.84183430092E+01 -0.41490969942E+02 -0.74914161699E+02  0.86708213162E+02  0.10668341995E+02 0.  0.
         22    1    3    3    0    0  0.84183430092E+01  0.41490969942E+02 -0.13441861670E+03  0.14092811501E+03  0.00000000000E+00 0.  1.
         22    1    4    4    0    0 -0.65857547303E+01 -0.97199342640E+01 -0.17725677799E+02  0.21261442588E+02  0.00000000000E+00 0.  1.
         22    1    4    4    0    0 -0.18325882789E+01 -0.31771035678E+02 -0.57188483900E+02  0.65446770574E+02  0.00000000000E+00 0.  1.
<mgrwt>
<rscale>  0 0.89432018E+02</rscale>
<asrwt>0</asrwt>
<pdfrwt beam="2">  1        1 0.33613004E-01 0.89432018E+02</pdfrwt>
<pdfrwt beam="1">  1       -1 0.14079655E-02 0.89432018E+02</pdfrwt>
<totfact> 0.12684626E+05</totfact>
</mgrwt>
</event>
<event>
 6    1  0.3301067E-009  0.2860685E+03  0.7818608E-02  0.1092420E+00
         -1   -1    0    0    0  501 -0.00000000000E+00  0.00000000000E+00  0.14418647404E+03  0.14418647413E+03  0.50400000000E-02 0.  1.
          1   -1    0    0  501    0  0.00000000000E+00 -0.00000000000E+00 -0.14189123355E+03  0.14189123364E+03  0.50400000000E-02 0. -1.
    9000005    2    1    2    0    0  0.32550813243E+02 -0.32871616305E+02 -0.13412635077E+03  0.14202581031E+03  0.64307248580E+01 0.  0.
         22    1    1    2    0    0 -0.32550813243E+02  0.32871616305E+02  0.13642159126E+03  0.14405189746E+03  0.00000000000E+00 0.  1.
         22    1    3    3    0    0  0.31782738587E+02 -0.31574097483E+02 -0.13216663679E+03  0.13955316544E+03  0.00000000000E+00 0.  1.
         22    1    3    3    0    0  0.76807465562E+00 -0.12975188219E+01 -0.19597139777E+01  0.24726448682E+01  0.00000000000E+00 0.  1.
<mgrwt>
<rscale>  0 0.28606850E+03</rscale>
<asrwt>0</asrwt>
<pdfrwt beam="2">  1        1 0.21829421E-01 0.28606850E+03</pdfrwt>
<pdfrwt beam="1">  1       -1 0.22182534E-01 0.28606850E+03</pdfrwt>
<totfact> 0.38583608E+03</totfact>
</mgrwt>
</event>
<event>
 7    1  0.3301067E-009  0.7465037E+02  0.7818608E-02  0.1344957E+00
          1   -1    0    0  501    0  0.00000000000E+00  0.00000000000E+00  0.64123624262E+02  0.64123624460E+02  0.50400000000E-02 0. -1.
         -1   -1    0    0    0  501 -0.00000000000E+00 -0.00000000000E+00 -0.21726302190E+02  0.21726302775E+02  0.50400000000E-02 0.  1.
         23    2    1    2    0    0  0.00000000000E+00  0.00000000000E+00  0.42397322072E+02  0.85849927235E+02  0.74650365621E+02 0.  0.
    9000005    2    3    3    0    0 -0.42803258894E+01 -0.34848409995E+02  0.30372612075E+02  0.48737577277E+02  0.14836542916E+02 0.  0.
         22    1    3    3    0    0  0.42803258894E+01  0.34848409995E+02  0.12024709997E+02  0.37112349958E+02  0.00000000000E+00 0.  1.
         22    1    4    4    0    0 -0.18785521414E+01 -0.34692469401E+02  0.24856783820E+02  0.42719504833E+02  0.00000000000E+00 0.  1.
         22    1    4    4    0    0 -0.24017737480E+01 -0.15594059388E+00  0.55158282551E+01  0.60180724443E+01  0.00000000000E+00 0.  1.
<mgrwt>
<rscale>  0 0.74650366E+02</rscale>
<asrwt>0</asrwt>
<pdfrwt beam="1">  1        1 0.98651730E-02 0.74650366E+02</pdfrwt>
<pdfrwt beam="2">  1       -1 0.33425081E-02 0.74650366E+02</pdfrwt>
<totfact> 0.16791205E+05</totfact>
</mgrwt>
</event>
<event>
 7    1  0.3301067E-009  0.9322405E+02  0.7818608E-02  0.1295227E+00
          1   -1    0    0  501    0  0.00000000000E+00  0.00000000000E+00  0.31688458213E+01  0.31688498293E+01  0.50400000000E-02 0. -1.
         -1   -1    0    0    0  501 -0.00000000000E+00 -0.00000000000E+00 -0.68563746567E+03  0.68563746568E+03  0.50400000000E-02 0.  1.
         23    2    1    2    0    0  0.17763568394E-14  0.00000000000E+00 -0.68246861984E+03  0.68880631551E+03  0.93224048501E+02 0.  0.
    9000005    2    3    3    0    0 -0.15568288421E+02  0.20620006228E+02 -0.62588948576E+03  0.62660700141E+03  0.15202946098E+02 0.  0.
         22    1    3    3    0    0  0.15568288421E+02 -0.20620006228E+02 -0.56579134086E+02  0.62199314105E+02  0.00000000000E+00 0. -1.
         22    1    4    4    0    0 -0.60022873268E+01  0.17237589191E+02 -0.29650929425E+03  0.29707056991E+03  0.00000000000E+00 0.  1.
         22    1    4    4    0    0 -0.95660010944E+01  0.33824170370E+01 -0.32938019151E+03  0.32953643150E+03  0.00000000000E+00 0.  1.
<mgrwt>
<rscale>  0 0.93224049E+02</rscale>
<asrwt>0</asrwt>
<pdfrwt beam="1">  1        1 0.48751560E-03 0.93224049E+02</pdfrwt>
<pdfrwt beam="2">  1       -1 0.10548257E+00 0.93224049E+02</pdfrwt>
<totfact> 0.35367941E+04</totfact>
</mgrwt>
</event>
<event>
 7    1  0.3301067E-009  0.8230304E+02  0.7818608E-02  0.1322640E+00
          1   -1    0    0  501    0  0.00000000000E+00  0.00000000000E+00  0.14756981486E+02  0.14756982347E+02  0.50400000000E-02 0. -1.
         -1   -1    0    0    0  501 -0.00000000000E+00 -0.00000000000E+00 -0.11475568390E+03  0.11475568401E+03  0.50400000000E-02 0.  1.
         23    2    1    2    0    0 -0.35527136788E-14  0.00000000000E+00 -0.99998702415E+02  0.12951266636E+03  0.82303039208E+02 0.  0.
    9000005    2    3    3    0    0 -0.18617403274E+02 -0.22173130706E+02 -0.95588744104E+02  0.10022609670E+03  0.83550601830E+01 0.  0.
         22    1    3    3    0    0  0.18617403274E+02  0.22173130706E+02 -0.44099583109E+01  0.29286569657E+02  0.00000000000E+00 0. -1.
         22    1    4    4    0    0 -0.17827633957E+02 -0.21195869098E+02 -0.81420597773E+02  0.86002343812E+02  0.00000000000E+00 0. -1.
         22    1    4    4    0    0 -0.78976931715E+00 -0.97726160805E+00 -0.14168146331E+02  0.14223752890E+02  0.00000000000E+00 0. -1.
<mgrwt>
<rscale>  0 0.82303039E+02</rscale>
<asrwt>0</asrwt>
<pdfrwt beam="1">  1        1 0.22703050E-02 0.82303039E+02</pdfrwt>
<pdfrwt beam="2">  1       -1 0.17654720E-01 0.82303039E+02</pdfrwt>
<totfact> 0.10315551E+05</totfact>
</mgrwt>
</event>
<event>
 7    1  0.3301067E-009  0.9131243E+02  0.7818608E-02  0.1299704E+00
          1   -1    0    0  501    0  0.00000000000E+00  0.00000000000E+00  0.59989719810E+03  0.59989719813E+03  0.50400000000E-02 0. -1.
         -1   -1    0    0    0  501 -0.00000000000E+00 -0.00000000000E+00 -0.34747432252E+01  0.34747468803E+01  0.50400000000E-02 0.  1.
         23    2    1    2    0    0  0.00000000000E+00 -0.17763568394E-14  0.59642245488E+03  0.60337194501E+03  0.91312427062E+02 0.  0.
    9000005    2    3    3    0    0 -0.96089936455E+01  0.15576734511E+02  0.57446226375E+03  0.57478493027E+03  0.59880029237E+01 0.  0.
         22    1    3    3    0    0  0.96089936455E+01 -0.15576734511E+02  0.21960191128E+02  0.28587014732E+02  0.00000000000E+00 0.  1.
         22    1    4    4    0    0  0.45244352247E+00 -0.10414395699E+00  0.30835090754E+02  0.30838585780E+02  0.00000000000E+00 0.  1.
         22    1    4    4    0    0 -0.10061437168E+02  0.15680878468E+02  0.54362717300E+03  0.54394634449E+03  0.00000000000E+00 0.  1.
<mgrwt>
<rscale>  0 0.91312427E+02</rscale>
<asrwt>0</asrwt>
<pdfrwt beam="1">  1        1 0.92291813E-01 0.91312427E+02</pdfrwt>
<pdfrwt beam="2">  1       -1 0.53457653E-03 0.91312427E+02</pdfrwt>
<totfact> 0.14102987E+05</totfact>
</mgrwt>
</event>
<event>
 6    1  0.3301067E-009  0.1342215E+03  0.7818608E-02  0.1221323E+00
         -1   -1    0    0    0  501 -0.00000000000E+00  0.00000000000E+00  0.85401495195E+01  0.85401510067E+01  0.50400000000E-02 0.  1.
          1   -1    0    0  501    0  0.00000000000E+00 -0.00000000000E+00 -0.52737422632E+03  0.52737422635E+03  0.50400000000E-02 0. -1.
    9000005    2    1    2    0    0  0.13663547477E+01  0.12547055215E+02 -0.52249991806E+03  0.52277154996E+03  0.11163939689E+02 0.  0.
         22    1    1    2    0    0 -0.13663547477E+01 -0.12547055215E+02  0.36658412583E+01  0.13142827397E+02  0.00000000000E+00 0.  1.
         22    1    3    3    0    0 -0.46868130947E+01  0.31445967381E+01 -0.18860455659E+03  0.18868898609E+03  0.00000000000E+00 0.  1.
         22    1    3    3    0    0  0.60531678424E+01  0.94024584770E+01 -0.33389536147E+03  0.33408256387E+03  0.00000000000E+00 0.  1.
<mgrwt>
<rscale>  0 0.13422154E+03</rscale>
<asrwt>0</asrwt>
<pdfrwt beam="2">  1        1 0.81134471E-01 0.13422154E+03</pdfrwt>
<pdfrwt beam="1">  1       -1 0.13138697E-02 0.13422154E+03</pdfrwt>
<totfact> 0.49319092E+04</totfact>
</mgrwt>
</event>
<event>
 7    1  0.3301067E-009  0.8975588E+02  0.7818608E-02  0.1303444E+00
         -1   -1    0    0    0  501 -0.00000000000E+00  0.00000000000E+00  0.77099964483E+02  0.77099964648E+02  0.50400000000E-02 0.  1.
          1   -1    0    0  501    0  0.00000000000E+00 -0.00000000000E+00 -0.26122311713E+02  0.26122312199E+02  0.50400000000E-02 0. -1.
         23    2    1    2    0    0 -0.44408920985E-15  0.00000000000E+00  0.50977652770E+02  0.10322227685E+03  0.89755876440E+02 0.  0.
    9000005    2    3    3    0    0  0.17348275166E+01 -0.42963062146E+02  0.15187638935E+02  0.47278024007E+02  0.12478495187E+02 0.  0.
         22    1    3    3    0    0 -0.17348275166E+01  0.42963062146E+02  0.35790013835E+02  0.55944252840E+02  0.00000000000E+00 0.  1.
         22    1    4    4    0    0 -0.41465808836E+01 -0.66194627401E+01  0.41370933181E+01  0.88389457016E+01  0.00000000000E+00 0.  1.
         22    1    4    4    0    0  0.58814084002E+01 -0.36343599406E+02  0.11050545617E+02  0.38439078306E+02  0.00000000000E+00 0.  1.
<mgrwt>
<rscale>  0 0.89755876E+02</rscale>
<asrwt>0</asrwt>
<pdfrwt beam="2">  1        1 0.40188173E-02 0.89755876E+02</pdfrwt>
<pdfrwt beam="1">  1       -1 0.11861533E-01 0.89755876E+02</pdfrwt>
<totfact> 0.88664325E+04</totfact>
</mgrwt>
</event>
<event>
 7    1  0.3301067E-009  0.8979200E+02  0.7818608E-02  0.1303356E+00
          1   -1    0    0  501    0  0.00000000000E+00  0.00000000000E+00  0.98640232107E+02  0.98640232236E+02  0.50400000000E-02 0. -1.
         -1   -1    0    0    0  501 -0.00000000000E+00 -0.00000000000E+00 -0.20434366111E+02  0.20434366732E+02  0.50400000000E-02 0.  1.
         23    2    1    2    0    0  0.00000000000E+00  0.71054273576E-14  0.78205865996E+02  0.11907459897E+03  0.89791996543E+02 0.  0.
    9000005    2    3    3    0    0  0.17769469414E+02 -0.33247578748E+02  0.68264877969E+01  0.38351794458E+02  0.17617226370E+01 0.  0.
         22    1    3    3    0    0 -0.17769469414E+02  0.33247578748E+02  0.71379378199E+02  0.80722804510E+02  0.00000000000E+00 0. -1.
         22    1    4    4    0    0  0.13257887040E+02 -0.24304050168E+02  0.57631181954E+01  0.28278471576E+02  0.00000000000E+00 0.  1.
         22    1    4    4    0    0  0.45115823743E+01 -0.89435285797E+01  0.10633696015E+01  0.10073322882E+02  0.00000000000E+00 0.  1.
<mgrwt>
<rscale>  0 0.89791997E+02</rscale>
<asrwt>0</asrwt>
<pdfrwt beam="1">  1        1 0.15175421E-01 0.89791997E+02</pdfrwt>
<pdfrwt beam="2">  1       -1 0.31437487E-02 0.89791997E+02</pdfrwt>
<totfact> 0.10864859E+05</totfact>
</mgrwt>
</event>
<event>
 7    1  0.3301067E-009  0.8944926E+02  0.7818608E-02  0.1304191E+00
         -1   -1    0    0    0  501 -0.00000000000E+00  0.00000000000E+00  0.25067064139E+02  0.25067064646E+02  0.50400000000E-02 0.  1.
          1   -1    0    0  501    0  0.00000000000E+00 -0.00000000000E+00 -0.79797632377E+02  0.79797632537E+02  0.50400000000E-02 0. -1.
         23    2    1    2    0    0  0.00000000000E+00  0.00000000000E+00 -0.54730568238E+02  0.10486469718E+03  0.89449257211E+02 0.  0.
    9000005    2    3    3    0    0 -0.23469662887E+02 -0.18171104438E+02 -0.65324516810E+02  0.73348893863E+02  0.15223456308E+02 0.  0.
         22    1    3    3    0    0  0.23469662887E+02  0.18171104438E+02  0.10593948572E+02  0.31515803320E+02  0.00000000000E+00 0.  1.
         22    1    4    4    0    0 -0.69666240523E+01  0.14908446158E+01 -0.92289500929E+01  0.11658901671E+02  0.00000000000E+00 0.  1.
         22    1    4    4    0    0 -0.16503038835E+02 -0.19661949054E+02 -0.56095566717E+02  0.61689992192E+02  0.00000000000E+00 0.  1.
<mgrwt>
<rscale>  0 0.89449257E+02</rscale>
<asrwt>0</asrwt>
<pdfrwt beam="2">  1        1 0.12276559E-01 0.89449257E+02</pdfrwt>
<pdfrwt beam="1">  1       -1 0.38564715E-02 0.89449257E+02</pdfrwt>
<totfact> 0.10612140E+05</totfact>
</mgrwt>
</event>
<event>
 7    1  0.3301067E-009  0.8992162E+02  0.7818608E-02  0.1303042E+00
         -1   -1    0    0    0  501 -0.00000000000E+00  0.00000000000E+00  0.44815907306E+01  0.44815935646E+01  0.50400000000E-02 0.  1.
          1   -1    0    0  501    0  0.00000000000E+00 -0.00000000000E+00 -0.45106169957E+03  0.45106169960E+03  0.50400000000E-02 0. -1.
         23    2    1    2    0    0 -0.88817841970E-15  0.71054273576E-14 -0.44658010884E+03  0.45554329316E+03  0.89921623287E+02 0.  0.
    9000005    2    3    3    0    0 -0.50524882651E+01  0.44045170256E+02 -0.21043475083E+03  0.21527233202E+03  0.96895776258E+01 0.  0.
         22    1    3    3    0    0  0.50524882651E+01 -0.44045170256E+02 -0.23614535801E+03  0.24027096114E+03  0.00000000000E+00 0.  1.
         22    1    4    4    0    0 -0.42440336858E+01  0.43357994873E+02 -0.19528073395E+03  0.20008121500E+03  0.00000000000E+00 0. -1.
         22    1    4    4    0    0 -0.80845457933E+00  0.68717538316E+00 -0.15154016878E+02  0.15191117021E+02  0.00000000000E+00 0. -1.
<mgrwt>
<rscale>  0 0.89921623E+02</rscale>
<asrwt>0</asrwt>
<pdfrwt beam="2">  1        1 0.69394072E-01 0.89921623E+02</pdfrwt>
<pdfrwt beam="1">  1       -1 0.68947607E-03 0.89921623E+02</pdfrwt>
<totfact> 0.14254420E+05</totfact>
</mgrwt>
</event>
<event>
 7    1  0.3301067E-009  0.7763856E+02  0.7818608E-02  0.1335890E+00
          1   -1    0    0  501    0  0.00000000000E+00  0.00000000000E+00  0.26069456223E+03  0.26069456228E+03  0.50400000000E-02 0. -1.
         -1   -1    0    0    0  501 -0.00000000000E+00 -0.00000000000E+00 -0.57804660094E+01  0.57804682066E+01  0.50400000000E-02 0.  1.
         23    2    1    2    0    0  0.00000000000E+00  0.00000000000E+00  0.25491409622E+03  0.26647503049E+03  0.77638556273E+02 0.  0.
    9000005    2    3    3    0    0  0.17728754631E+02 -0.15804758885E+02  0.23239768344E+03  0.23374754985E+03  0.80706040570E+01 0.  0.
         22    1    3    3    0    0 -0.17728754631E+02  0.15804758885E+02  0.22516412787E+02  0.32727480639E+02  0.00000000000E+00 0.  1.
         22    1    4    4    0    0  0.16183358467E+02 -0.98896639742E+01  0.17372645664E+03  0.17475865724E+03  0.00000000000E+00 0. -1.
         22    1    4    4    0    0  0.15453961639E+01 -0.59150949105E+01  0.58671226795E+02  0.58988892605E+02  0.00000000000E+00 0. -1.
<mgrwt>
<rscale>  0 0.77638556E+02</rscale>
<asrwt>0</asrwt>
<pdfrwt beam="1">  1        1 0.40106862E-01 0.77638556E+02</pdfrwt>
<pdfrwt beam="2">  1       -1 0.88930249E-03 0.77638556E+02</pdfrwt>
<totfact> 0.19079201E+05</totfact>
</mgrwt>
</event>
<event>
 7    1  0.3301067E-009  0.8923236E+02  0.7818608E-02  0.1304721E+00
         -1   -1    0    0    0  501 -0.00000000000E+00  0.00000000000E+00  0.29326342451E+02  0.29326342884E+02  0.50400000000E-02 0.  1.
          1   -1    0    0  501    0  0.00000000000E+00 -0.00000000000E+00 -0.67877652704E+02  0.67877652891E+02  0.50400000000E-02 0. -1.
         23    2    1    2    0    0  0.00000000000E+00 -0.88817841970E-15 -0.38551310254E+02  0.97203995775E+02  0.89232355524E+02 0.  0.
    9000005    2    3    3    0    0  0.18424250417E+02 -0.43536825198E+01  0.22554340123E+02  0.33232845536E+02  0.15405070889E+02 0.  0.
         22    1    3    3    0    0 -0.18424250417E+02  0.43536825198E+01 -0.61105650377E+02  0.63971150239E+02  0.00000000000E+00 0. -1.
         22    1    4    4    0    0  0.10326803620E+02 -0.94274884032E+01  0.89286947017E+01  0.16590418912E+02  0.00000000000E+00 0.  1.
         22    1    4    4    0    0  0.80974467974E+01  0.50738058834E+01  0.13625645422E+02  0.16642426624E+02  0.00000000000E+00 0.  1.
<mgrwt>
<rscale>  0 0.89232356E+02</rscale>
<asrwt>0</asrwt>
<pdfrwt beam="2">  1        1 0.10442716E-01 0.89232356E+02</pdfrwt>
<pdfrwt beam="1">  1       -1 0.45117450E-02 0.89232356E+02</pdfrwt>
<totfact> 0.10420767E+05</totfact>
</mgrwt>
</event>
<event>
 7    1  0.3301067E-009  0.9267098E+02  0.7818608E-02  0.1296509E+00
          1   -1    0    0  501    0  0.00000000000E+00  0.00000000000E+00  0.21994257746E+02  0.21994258323E+02  0.50400000000E-02 0. -1.
         -1   -1    0    0    0  501 -0.00000000000E+00 -0.00000000000E+00 -0.97615376213E+02  0.97615376343E+02  0.50400000000E-02 0.  1.
         23    2    1    2    0    0  0.00000000000E+00  0.00000000000E+00 -0.75621118467E+02  0.11960963467E+03  0.92670983305E+02 0.  0.
    9000005    2    3    3    0    0  0.42036182290E+02  0.11216849071E+02 -0.19277715556E+02  0.48423699425E+02  0.89647099425E+01 0.  0.
         22    1    3    3    0    0 -0.42036182290E+02 -0.11216849071E+02 -0.56343402911E+02  0.71185935241E+02  0.00000000000E+00 0.  1.
         22    1    4    4    0    0  0.25510107512E+02  0.89434072252E+01 -0.16032846642E+02  0.31429322129E+02  0.00000000000E+00 0.  1.
         22    1    4    4    0    0  0.16526074778E+02  0.22734418456E+01 -0.32448689138E+01  0.16994377295E+02  0.00000000000E+00 0.  1.
<mgrwt>
<rscale>  0 0.92670983E+02</rscale>
<asrwt>0</asrwt>
<pdfrwt beam="1">  1        1 0.33837321E-02 0.92670983E+02</pdfrwt>
<pdfrwt beam="2">  1       -1 0.15017750E-01 0.92670983E+02</pdfrwt>
<totfact> 0.78381774E+04</totfact>
</mgrwt>
</event>
<event>
 7    1  0.3301067E-009  0.9213570E+02  0.7818608E-02  0.1297761E+00
         -1   -1    0    0    0  501 -0.00000000000E+00  0.00000000000E+00  0.10830422508E+03  0.10830422519E+03  0.50400000000E-02 0.  1.
          1   -1    0    0  501    0  0.00000000000E+00 -0.00000000000E+00 -0.19595237004E+02  0.19595237652E+02  0.50400000000E-02 0. -1.
         23    2    1    2    0    0  0.00000000000E+00 -0.44408920985E-15  0.88708988073E+02  0.12789946285E+03  0.92135704434E+02 0.  0.
    9000005    2    3    3    0    0  0.23452603426E+02  0.31491027656E+01  0.99103041004E+02  0.10205419651E+03  0.58055863831E+01 0.  0.
         22    1    3    3    0    0 -0.23452603426E+02 -0.31491027656E+01 -0.10394052931E+02  0.25845266337E+02  0.00000000000E+00 0. -1.
         22    1    4    4    0    0  0.54571487025E+01  0.26237015956E+01  0.32591329167E+02  0.33149042503E+02  0.00000000000E+00 0.  1.
         22    1    4    4    0    0  0.17995454723E+02  0.52540116998E+00  0.66511711837E+02  0.68905154006E+02  0.00000000000E+00 0.  1.
<mgrwt>
<rscale>  0 0.92135704E+02</rscale>
<asrwt>0</asrwt>
<pdfrwt beam="2">  1        1 0.30146519E-02 0.92135704E+02</pdfrwt>
<pdfrwt beam="1">  1       -1 0.16662188E-01 0.92135704E+02</pdfrwt>
<totfact> 0.78012114E+04</totfact>
</mgrwt>
</event>
<event>
 7    1  0.3301067E-009  0.1088512E+03  0.7818608E-02  0.1262712E+00
          1   -1    0    0  501    0  0.00000000000E+00  0.00000000000E+00  0.39710686226E+02  0.39710686546E+02  0.50400000000E-02 0. -1.
         -1   -1    0    0    0  501 -0.00000000000E+00 -0.00000000000E+00 -0.74593102718E+02  0.74593102888E+02  0.50400000000E-02 0.  1.
         23    2    1    2    0    0  0.00000000000E+00  0.00000000000E+00 -0.34882416492E+02  0.11430378943E+03  0.10885115203E+03 0.  0.
    9000005    2    3    3    0    0 -0.28300017826E+02  0.13075789137E+02  0.28640062381E+02  0.43543824817E+02  0.10195304603E+02 0.  0.
         22    1    3    3    0    0  0.28300017826E+02 -0.13075789137E+02 -0.63522478873E+02  0.70759964618E+02  0.00000000000E+00 0.  1.
         22    1    4    4    0    0 -0.18900460292E+02  0.63511908457E+01  0.23708394946E+02  0.30978266822E+02  0.00000000000E+00 0. -1.
         22    1    4    4    0    0 -0.93995575347E+01  0.67245982912E+01  0.49316674352E+01  0.12565557995E+02  0.00000000000E+00 0. -1.
<mgrwt>
<rscale>  0 0.10885115E+03</rscale>
<asrwt>0</asrwt>
<pdfrwt beam="1">  1        1 0.61093364E-02 0.10885115E+03</pdfrwt>
<pdfrwt beam="2">  1       -1 0.11475862E-01 0.10885115E+03</pdfrwt>
<totfact> 0.54438898E+04</totfact>
</mgrwt>
</event>
<event>
 7    1  0.3301067E-009  0.9321047E+02  0.7818608E-02  0.1295258E+00
          1   -1    0    0  501    0  0.00000000000E+00  0.00000000000E+00  0.92352911253E+01  0.92352925006E+01  0.50400000000E-02 0. -1.
         -1   -1    0    0    0  501 -0.00000000000E+00 -0.00000000000E+00 -0.23518996152E+03  0.23518996158E+03  0.50400000000E-02 0.  1.
         23    2    1    2    0    0  0.00000000000E+00  0.44408920985E-15 -0.22595467040E+03  0.24442525408E+03  0.93210470208E+02 0.  0.
    9000005    2    3    3    0    0 -0.16565713158E+02 -0.24817740195E+01 -0.22650830685E+03  0.22766552353E+03  0.15652331422E+02 0.  0.
         22    1    3    3    0    0  0.16565713158E+02  0.24817740195E+01  0.55363644899E+00  0.16759730548E+02  0.00000000000E+00 0. -1.
         22    1    4    4    0    0 -0.13114215704E+02  0.49247447669E+01 -0.11330250086E+03  0.11416519814E+03  0.00000000000E+00 0. -1.
         22    1    4    4    0    0 -0.34514974536E+01 -0.74065187864E+01 -0.11320580599E+03  0.11350032539E+03  0.00000000000E+00 0. -1.
<mgrwt>
<rscale>  0 0.93210470E+02</rscale>
<asrwt>0</asrwt>
<pdfrwt beam="1">  1        1 0.14208143E-02 0.93210470E+02</pdfrwt>
<pdfrwt beam="2">  1       -1 0.36183067E-01 0.93210470E+02</pdfrwt>
<totfact> 0.62384617E+04</totfact>
</mgrwt>
</event>
<event>
 7    1  0.3301067E-009  0.9148674E+02  0.7818608E-02  0.1299291E+00
         -1   -1    0    0    0  501 -0.00000000000E+00  0.00000000000E+00  0.67928502529E+01  0.67928521226E+01  0.50400000000E-02 0.  1.
          1   -1    0    0  501    0  0.00000000000E+00 -0.00000000000E+00 -0.30803794056E+03  0.30803794060E+03  0.50400000000E-02 0. -1.
         23    2    1    2    0    0 -0.35527136788E-14  0.35527136788E-14 -0.30124509030E+03  0.31483079272E+03  0.91486740093E+02 0.  0.
    9000005    2    3    3    0    0 -0.24351264654E+02  0.20034319130E+02 -0.26462059823E+03  0.26650159396E+03  0.21634559738E+01 0.  0.
         22    1    3    3    0    0  0.24351264654E+02 -0.20034319130E+02 -0.36624492073E+02  0.48329198761E+02  0.00000000000E+00 0.  1.
         22    1    4    4    0    0 -0.13932407462E+02  0.11268317065E+02 -0.14133411167E+03  0.14246549782E+03  0.00000000000E+00 0.  1.
         22    1    4    4    0    0 -0.10418857192E+02  0.87660020649E+01 -0.12328648656E+03  0.12403609614E+03  0.00000000000E+00 0.  1.
<mgrwt>
<rscale>  0 0.91486740E+02</rscale>
<asrwt>0</asrwt>
<pdfrwt beam="2">  1        1 0.47390442E-01 0.91486740E+02</pdfrwt>
<pdfrwt beam="1">  1       -1 0.10450543E-02 0.91486740E+02</pdfrwt>
<totfact> 0.12760723E+05</totfact>
</mgrwt>
</event>
<event>
 7    1  0.3301067E-009  0.8945679E+02  0.7818608E-02  0.1304173E+00
          1   -1    0    0  501    0  0.00000000000E+00  0.00000000000E+00  0.25090591117E+03  0.25090591122E+03  0.50400000000E-02 0. -1.
         -1   -1    0    0    0  501 -0.00000000000E+00 -0.00000000000E+00 -0.79736232098E+01  0.79736248027E+01  0.50400000000E-02 0.  1.
         23    2    1    2    0    0  0.88817841970E-15  0.00000000000E+00  0.24293228796E+03  0.25887953602E+03  0.89456792017E+02 0.  0.
    9000005    2    3    3    0    0  0.58221288865E+01  0.43211018870E+02  0.10282433194E+03  0.11214396203E+03  0.10116108097E+02 0.  0.
         22    1    3    3    0    0 -0.58221288865E+01 -0.43211018870E+02  0.14010795602E+03  0.14673557399E+03  0.00000000000E+00 0.  1.
         22    1    4    4    0    0  0.75214223097E+01  0.24800795457E+02  0.66825780726E+02  0.71675213418E+02  0.00000000000E+00 0.  1.
         22    1    4    4    0    0 -0.16992934231E+01  0.18410223414E+02  0.35998551215E+02  0.40468748608E+02  0.00000000000E+00 0.  1.
<mgrwt>
<rscale>  0 0.89456792E+02</rscale>
<asrwt>0</asrwt>
<pdfrwt beam="1">  1        1 0.38600902E-01 0.89456792E+02</pdfrwt>
<pdfrwt beam="2">  1       -1 0.12267116E-02 0.89456792E+02</pdfrwt>
<totfact> 0.13020584E+05</totfact>
</mgrwt>
</event>
<event>
 7    1  0.3301067E-009  0.9951206E+02  0.7818608E-02  0.1281325E+00
          1   -1    0    0  501    0  0.00000000000E+00  0.00000000000E+00  0.10520894946E+03  0.10520894958E+03  0.50400000000E-02 0. -1.
         -1   -1    0    0    0  501 -0.00000000000E+00 -0.00000000000E+00 -0.23530910550E+02  0.23530911090E+02  0.50400000000E-02 0.  1.
         23    2    1    2    0    0  0.00000000000E+00  0.00000000000E+00  0.81678038910E+02  0.12873986067E+03  0.99512057989E+02 0.  0.
    9000005    2    3    3    0    0 -0.16866148591E+02  0.34546198152E+02  0.34298588772E+01  0.41557956278E+02  0.15407563827E+02 0.  0.
         22    1    3    3    0    0  0.16866148591E+02 -0.34546198152E+02  0.78248180032E+02  0.87181904392E+02  0.00000000000E+00 0. -1.
         22    1    4    4    0    0 -0.10941388609E+02  0.75398197548E+01  0.40853594187E+01  0.13901547691E+02  0.00000000000E+00 0.  1.
         22    1    4    4    0    0 -0.59247599812E+01  0.27006378397E+02 -0.65550054151E+00  0.27656408587E+02  0.00000000000E+00 0.  1.
<mgrwt>
<rscale>  0 0.99512058E+02</rscale>
<asrwt>0</asrwt>
<pdfrwt beam="1">  1        1 0.16185992E-01 0.99512058E+02</pdfrwt>
<pdfrwt beam="2">  1       -1 0.36201402E-02 0.99512058E+02</pdfrwt>
<totfact> 0.82895687E+04</totfact>
</mgrwt>
</event>
<event>
 7    1  0.3301067E-009  0.9184831E+02  0.7818608E-02  0.1298436E+00
          1   -1    0    0  501    0  0.00000000000E+00  0.00000000000E+00  0.20249917382E+02  0.20249918009E+02  0.50400000000E-02 0. -1.
         -1   -1    0    0    0  501 -0.00000000000E+00 -0.00000000000E+00 -0.10414995611E+03  0.10414995623E+03  0.50400000000E-02 0.  1.
         23    2    1    2    0    0 -0.22204460493E-15  0.00000000000E+00 -0.83900038728E+02  0.12439987424E+03  0.91848310887E+02 0.  0.
    9000005    2    3    3    0    0  0.15321383903E+01  0.34166989214E+02 -0.13306954961E+01  0.35027467752E+02  0.74446052018E+01 0.  0.
         22    1    3    3    0    0 -0.15321383903E+01 -0.34166989214E+02 -0.82569343232E+02  0.89372406490E+02  0.00000000000E+00 0.  1.
         22    1    4    4    0    0 -0.25320071644E+01  0.11159467463E+02 -0.21773343221E+01  0.11648414445E+02  0.00000000000E+00 0. -1.
         22    1    4    4    0    0  0.40641455548E+01  0.23007521752E+02  0.84663882591E+00  0.23379053307E+02  0.00000000000E+00 0. -1.
<mgrwt>
<rscale>  0 0.91848311E+02</rscale>
<asrwt>0</asrwt>
<pdfrwt beam="1">  1        1 0.31153720E-02 0.91848311E+02</pdfrwt>
<pdfrwt beam="2">  1       -1 0.16023070E-01 0.91848311E+02</pdfrwt>
<totfact> 0.79236935E+04</totfact>
</mgrwt>
</event>
<event>
 7    1  0.3301067E-009  0.8993088E+02  0.7818608E-02  0.1303019E+00
          1   -1    0    0  501    0  0.00000000000E+00  0.00000000000E+00  0.25561073857E+03  0.25561073862E+03  0.50400000000E-02 0. -1.
         -1   -1    0    0    0  501 -0.00000000000E+00 -0.00000000000E+00 -0.79100383711E+01  0.79100399768E+01  0.50400000000E-02 0.  1.
         23    2    1    2    0    0  0.00000000000E+00  0.00000000000E+00  0.24770070020E+03  0.26352077859E+03  0.89930883867E+02 0.  0.
    9000005    2    3    3    0    0 -0.35006815048E+02 -0.16800235564E+02  0.63571123640E+02  0.75341539628E+02  0.11284273033E+02 0.  0.
         22    1    3    3    0    0  0.35006815048E+02  0.16800235564E+02  0.18412957656E+03  0.18817923897E+03  0.00000000000E+00 0. -1.
         22    1    4    4    0    0 -0.19363834608E+02 -0.54740345869E+01  0.24080764829E+02  0.31381624881E+02  0.00000000000E+00 0.  1.
         22    1    4    4    0    0 -0.15642980440E+02 -0.11326200977E+02  0.39490358810E+02  0.43959914748E+02  0.00000000000E+00 0.  1.
<mgrwt>
<rscale>  0 0.89930884E+02</rscale>
<asrwt>0</asrwt>
<pdfrwt beam="1">  1        1 0.39324732E-01 0.89930884E+02</pdfrwt>
<pdfrwt beam="2">  1       -1 0.12169290E-02 0.89930884E+02</pdfrwt>
<totfact> 0.12884817E+05</totfact>
</mgrwt>
</event>
<event>
 7    1  0.3301067E-009  0.9095044E+02  0.7818608E-02  0.1300566E+00
         -1   -1    0    0    0  501 -0.00000000000E+00  0.00000000000E+00  0.41480423322E+03  0.41480423325E+03  0.50400000000E-02 0.  1.
          1   -1    0    0  501    0  0.00000000000E+00 -0.00000000000E+00 -0.49854725242E+01  0.49854750718E+01  0.50400000000E-02 0. -1.
         23    2    1    2    0    0  0.00000000000E+00  0.00000000000E+00  0.40981876069E+03  0.41978970832E+03  0.90950440324E+02 0.  0.
    9000005    2    3    3    0    0 -0.27276330536E+02 -0.84979017055E+01  0.36817754544E+03  0.36929017021E+03  0.20766106280E+01 0.  0.
         22    1    3    3    0    0  0.27276330536E+02  0.84979017055E+01  0.41641215255E+02  0.50499538105E+02  0.00000000000E+00 0. -1.
         22    1    4    4    0    0 -0.25205991409E+02 -0.79067995286E+01  0.34669998179E+03  0.34770495662E+03  0.00000000000E+00 0.  1.
         22    1    4    4    0    0 -0.20703391269E+01 -0.59110217696E+00  0.21477563643E+02  0.21585213594E+02  0.00000000000E+00 0.  1.
<mgrwt>
<rscale>  0 0.90950440E+02</rscale>
<asrwt>0</asrwt>
<pdfrwt beam="2">  1        1 0.76699559E-03 0.90950440E+02</pdfrwt>
<pdfrwt beam="1">  1       -1 0.63816068E-01 0.90950440E+02</pdfrwt>
<totfact> 0.52646758E+04</totfact>
</mgrwt>
</event>
<event>
 7    1  0.3301067E-009  0.9330745E+02  0.7818608E-02  0.1295034E+00
          1   -1    0    0  501    0  0.00000000000E+00  0.00000000000E+00  0.11951982571E+03  0.11951982581E+03  0.50400000000E-02 0.  1.
         -1   -1    0    0    0  501 -0.00000000000E+00 -0.00000000000E+00 -0.18210953380E+02  0.18210954077E+02  0.50400000000E-02 0. -1.
         23    2    1    2    0    0  0.00000000000E+00  0.00000000000E+00  0.10130887233E+03  0.13773077989E+03  0.93307449419E+02 0.  0.
    9000005    2    3    3    0    0 -0.27459400729E+02 -0.16282914369E+02  0.11371305245E+01  0.32595011265E+02  0.64799463544E+01 0.  0.
         22    1    3    3    0    0  0.27459400729E+02  0.16282914369E+02  0.10017174180E+03  0.10513576863E+03  0.00000000000E+00 0.  1.
         22    1    4    4    0    0 -0.52270702711E+01 -0.11394611817E+01  0.19196371587E+01  0.56838052593E+01  0.00000000000E+00 0. -1.
         22    1    4    4    0    0 -0.22232330458E+02 -0.15143453187E+02 -0.78250663420E+00  0.26911206005E+02  0.00000000000E+00 0. -1.
<mgrwt>
<rscale>  0 0.93307449E+02</rscale>
<asrwt>0</asrwt>
<pdfrwt beam="1">  1        1 0.18387665E-01 0.93307449E+02</pdfrwt>
<pdfrwt beam="2">  1       -1 0.28016853E-02 0.93307449E+02</pdfrwt>
<totfact> 0.10111067E+05</totfact>
</mgrwt>
</event>
<event>
 7    1  0.3301067E-009  0.9175888E+02  0.7818608E-02  0.1298647E+00
          1   -1    0    0  501    0  0.00000000000E+00  0.00000000000E+00  0.10780860618E+02  0.10780861797E+02  0.50400000000E-02 0. -1.
         -1   -1    0    0    0  501 -0.00000000000E+00 -0.00000000000E+00 -0.19524627335E+03  0.19524627342E+03  0.50400000000E-02 0.  1.
         23    2    1    2    0    0 -0.17763568394E-14  0.00000000000E+00 -0.18446541273E+03  0.20602713521E+03  0.91758879404E+02 0.  0.
    9000005    2    3    3    0    0  0.13346271614E+02  0.43691264072E+02 -0.10034096614E+03  0.11029849772E+03  0.32248396418E+01 0.  0.
         22    1    3    3    0    0 -0.13346271614E+02 -0.43691264072E+02 -0.84124446593E+02  0.95728637495E+02  0.00000000000E+00 0.  1.
         22    1    4    4    0    0  0.23403498710E+01  0.68943715003E+01 -0.13356724423E+02  0.15212221509E+02  0.00000000000E+00 0. -1.
         22    1    4    4    0    0  0.11005921743E+02  0.36796892571E+02 -0.86984241719E+02  0.95086276211E+02  0.00000000000E+00 0. -1.
<mgrwt>
<rscale>  0 0.91758879E+02</rscale>
<asrwt>0</asrwt>
<pdfrwt beam="1">  1        1 0.16585942E-02 0.91758879E+02</pdfrwt>
<pdfrwt beam="2">  1       -1 0.30037886E-01 0.91758879E+02</pdfrwt>
<totfact> 0.68749606E+04</totfact>
</mgrwt>
</event>
<event>
 7    1  0.3301067E-009  0.9113305E+02  0.7818608E-02  0.1300131E+00
          1   -1    0    0  501    0  0.00000000000E+00  0.00000000000E+00  0.46947950276E+03  0.46947950279E+03  0.50400000000E-02 0. -1.
         -1   -1    0    0    0  501 -0.00000000000E+00 -0.00000000000E+00 -0.44225734338E+01  0.44225763056E+01  0.50400000000E-02 0.  1.
         23    2    1    2    0    0  0.00000000000E+00  0.00000000000E+00  0.46505692933E+03  0.47390207909E+03  0.91133051381E+02 0.  0.
    9000005    2    3    3    0    0  0.11238486020E+02 -0.16802969962E+02  0.44450567317E+03  0.44507505190E+03  0.98926725084E+01 0.  0.
         22    1    3    3    0    0 -0.11238486020E+02  0.16802969962E+02  0.20551256153E+02  0.28827027197E+02  0.00000000000E+00 0.  1.
         22    1    4    4    0    0  0.72036594587E+01 -0.16760461244E+02  0.33665235465E+03  0.33714627933E+03  0.00000000000E+00 0. -1.
         22    1    4    4    0    0  0.40348265612E+01 -0.42508717797E-01  0.10785331852E+03  0.10792877257E+03  0.00000000000E+00 0. -1.
<mgrwt>
<rscale>  0 0.91133051E+02</rscale>
<asrwt>0</asrwt>
<pdfrwt beam="1">  1        1 0.72227582E-01 0.91133051E+02</pdfrwt>
<pdfrwt beam="2">  1       -1 0.68039645E-03 0.91133051E+02</pdfrwt>
<totfact> 0.13834063E+05</totfact>
</mgrwt>
</event>
<event>
 7    1  0.3301067E-009  0.5590505E+02  0.7818608E-02  0.1415867E+00
         -1   -1    0    0    0  501 -0.00000000000E+00  0.00000000000E+00  0.16057968093E+02  0.16057968884E+02  0.50400000000E-02 0.  1.
          1   -1    0    0  501    0  0.00000000000E+00 -0.00000000000E+00 -0.48657686507E+02  0.48657686768E+02  0.50400000000E-02 0. -1.
         23    2    1    2    0    0 -0.44408920985E-15  0.00000000000E+00 -0.32599718413E+02  0.64715655652E+02  0.55905048483E+02 0.  0.
    9000005    2    3    3    0    0  0.35035175495E+01 -0.23131365561E+02 -0.28918503761E+00  0.24824487771E+02  0.82967980058E+01 0.  0.
         22    1    3    3    0    0 -0.35035175495E+01  0.23131365561E+02 -0.32310533376E+02  0.39891167882E+02  0.00000000000E+00 0. -1.
         22    1    4    4    0    0 -0.21962320022E+01 -0.21750400854E+01  0.24129852752E+00  0.31003966456E+01  0.00000000000E+00 0.  1.
         22    1    4    4    0    0  0.56997495518E+01 -0.20956325476E+02 -0.53048356512E+00  0.21724091125E+02  0.00000000000E+00 0.  1.
<mgrwt>
<rscale>  0 0.55905048E+02</rscale>
<asrwt>0</asrwt>
<pdfrwt beam="2">  1        1 0.74857980E-02 0.55905048E+02</pdfrwt>
<pdfrwt beam="1">  1       -1 0.24704567E-02 0.55905048E+02</pdfrwt>
<totfact> 0.34876349E+05</totfact>
</mgrwt>
</event>
<event>
 7    1  0.3301067E-009  0.9031277E+02  0.7818608E-02  0.1302096E+00
          1   -1    0    0  501    0  0.00000000000E+00  0.00000000000E+00  0.34363797290E+03  0.34363797294E+03  0.50400000000E-02 0.  1.
         -1   -1    0    0    0  501 -0.00000000000E+00 -0.00000000000E+00 -0.59338578953E+01  0.59338600357E+01  0.50400000000E-02 0. -1.
         23    2    1    2    0    0  0.00000000000E+00  0.00000000000E+00  0.33770411500E+03  0.34957183297E+03  0.90312773830E+02 0.  0.
    9000005    2    3    3    0    0  0.53907516223E+01 -0.14389312331E+02  0.33300485360E+03  0.33350336789E+03  0.98056798394E+01 0.  0.
         22    1    3    3    0    0 -0.53907516223E+01  0.14389312331E+02  0.46992613999E+01  0.16068465083E+02  0.00000000000E+00 0. -1.
         22    1    4    4    0    0  0.44688042951E+00  0.69570734023E+00  0.78267194598E+02  0.78271562275E+02  0.00000000000E+00 0.  1.
         22    1    4    4    0    0  0.49438711927E+01 -0.15085019671E+02  0.25473765901E+03  0.25523180561E+03  0.00000000000E+00 0.  1.
<mgrwt>
<rscale>  0 0.90312774E+02</rscale>
<asrwt>0</asrwt>
<pdfrwt beam="1">  1        1 0.52867370E-01 0.90312774E+02</pdfrwt>
<pdfrwt beam="2">  1       -1 0.91290157E-03 0.90312774E+02</pdfrwt>
<totfact> 0.13476650E+05</totfact>
</mgrwt>
</event>
<event>
 6    1  0.3301067E-009  0.3547541E+03  0.7818608E-02  0.1060681E+00
          1   -1    0    0  501    0  0.00000000000E+00  0.00000000000E+00  0.13256717589E+03  0.13256717599E+03  0.50400000000E-02 0. -1.
         -1   -1    0    0    0  501 -0.00000000000E+00 -0.00000000000E+00 -0.23733339212E+03  0.23733339217E+03  0.50400000000E-02 0.  1.
    9000005    2    1    2    0    0  0.40437539441E+02 -0.75602870300E+02  0.10929388755E+03  0.13930846807E+03  0.10521731124E+02 0.  0.
         22    1    1    2    0    0 -0.40437539441E+02  0.75602870300E+02 -0.21406010378E+03  0.23059210009E+03  0.00000000000E+00 0.  1.
         22    1    3    3    0    0  0.16047462882E+02 -0.21027876931E+02  0.37415484845E+02  0.45821514372E+02  0.00000000000E+00 0.  1.
         22    1    3    3    0    0  0.24390076559E+02 -0.54574993369E+02  0.71878402707E+02  0.93486953697E+02  0.00000000000E+00 0.  1.
<mgrwt>
<rscale>  0 0.35475410E+03</rscale>
<asrwt>0</asrwt>
<pdfrwt beam="1">  1        1 0.20394950E-01 0.35475410E+03</pdfrwt>
<pdfrwt beam="2">  1       -1 0.36512829E-01 0.35475410E+03</pdfrwt>
<totfact> 0.18142061E+03</totfact>
</mgrwt>
</event>
<event>
 7    1  0.3301067E-009  0.9349373E+02  0.7818608E-02  0.1294605E+00
          1   -1    0    0  501    0  0.00000000000E+00  0.00000000000E+00  0.43808071965E+01  0.43808100957E+01  0.50400000000E-02 0. -1.
         -1   -1    0    0    0  501 -0.00000000000E+00 -0.00000000000E+00 -0.49882782636E+03  0.49882782638E+03  0.50400000000E-02 0.  1.
         23    2    1    2    0    0  0.00000000000E+00  0.00000000000E+00 -0.49444701916E+03  0.50320863648E+03  0.93493727434E+02 0.  0.
    9000005    2    3    3    0    0  0.26481443952E+02 -0.29620235522E+02 -0.37335683431E+03  0.37576665716E+03  0.15054224611E+02 0.  0.
         22    1    3    3    0    0 -0.26481443952E+02  0.29620235522E+02 -0.12109018485E+03  0.12744197932E+03  0.00000000000E+00 0. -1.
         22    1    4    4    0    0  0.23411380873E+01 -0.12851269552E+02 -0.12176113663E+03  0.12245983199E+03  0.00000000000E+00 0. -1.
         22    1    4    4    0    0  0.24140305865E+02 -0.16768965970E+02 -0.25159569768E+03  0.25330682517E+03  0.00000000000E+00 0. -1.
<mgrwt>
<rscale>  0 0.93493727E+02</rscale>
<asrwt>0</asrwt>
<pdfrwt beam="1">  1        1 0.67397096E-03 0.93493727E+02</pdfrwt>
<pdfrwt beam="2">  1       -1 0.76742698E-01 0.93493727E+02</pdfrwt>
<totfact> 0.44105772E+04</totfact>
</mgrwt>
</event>
<event>
 7    1  0.3301067E-009  0.8957372E+02  0.7818608E-02  0.1303887E+00
         -1   -1    0    0    0  501 -0.00000000000E+00  0.00000000000E+00  0.22239874780E+02  0.22239875352E+02  0.50400000000E-02 0.  1.
          1   -1    0    0  501    0  0.00000000000E+00 -0.00000000000E+00 -0.90192170460E+02  0.90192170600E+02  0.50400000000E-02 0. -1.
         23    2    1    2    0    0  0.00000000000E+00  0.00000000000E+00 -0.67952295679E+02  0.11243204595E+03  0.89573715279E+02 0.  0.
    9000005    2    3    3    0    0 -0.16164950094E+02 -0.40125906010E+02 -0.47557871163E+02  0.64606043652E+02  0.63871607215E+01 0.  0.
         22    1    3    3    0    0  0.16164950094E+02  0.40125906010E+02 -0.20394424516E+02  0.47826002300E+02  0.00000000000E+00 0.  1.
         22    1    4    4    0    0 -0.80254785421E+01 -0.17945802185E+02 -0.17072706876E+02  0.26037231841E+02  0.00000000000E+00 0.  1.
         22    1    4    4    0    0 -0.81394715522E+01 -0.22180103825E+02 -0.30485164288E+02  0.38568811811E+02  0.00000000000E+00 0.  1.
<mgrwt>
<rscale>  0 0.89573715E+02</rscale>
<asrwt>0</asrwt>
<pdfrwt beam="2">  1        1 0.13875718E-01 0.89573715E+02</pdfrwt>
<pdfrwt beam="1">  1       -1 0.34215193E-02 0.89573715E+02</pdfrwt>
<totfact> 0.10778975E+05</totfact>
</mgrwt>
</event>
<event>
 7    1  0.3301067E-009  0.9205349E+02  0.7818608E-02  0.1297954E+00
         -1   -1    0    0    0  501 -0.00000000000E+00  0.00000000000E+00  0.15547528825E+02  0.15547529642E+02  0.50400000000E-02 0.  1.
          1   -1    0    0  501    0  0.00000000000E+00 -0.00000000000E+00 -0.13625711163E+03  0.13625711172E+03  0.50400000000E-02 0. -1.
         23    2    1    2    0    0  0.00000000000E+00 -0.35527136788E-14 -0.12070958280E+03  0.15180464136E+03  0.92053494008E+02 0.  0.
    9000005    2    3    3    0    0  0.32903657923E+02  0.30668143826E+02 -0.46094858596E+02  0.64680920030E+02  0.59749206280E+01 0.  0.
         22    1    3    3    0    0 -0.32903657923E+02 -0.30668143826E+02 -0.74614724207E+02  0.87123721333E+02  0.00000000000E+00 0.  1.
         22    1    4    4    0    0  0.62692286835E+01  0.93275731477E+01 -0.10933297797E+02  0.15679408466E+02  0.00000000000E+00 0.  1.
         22    1    4    4    0    0  0.26634429240E+02  0.21340570678E+02 -0.35161560799E+02  0.49001511565E+02  0.00000000000E+00 0.  1.
<mgrwt>
<rscale>  0 0.92053494E+02</rscale>
<asrwt>0</asrwt>
<pdfrwt beam="2">  1        1 0.20962632E-01 0.92053494E+02</pdfrwt>
<pdfrwt beam="1">  1       -1 0.23919277E-02 0.92053494E+02</pdfrwt>
<totfact> 0.10737158E+05</totfact>
</mgrwt>
</event>
<event>
 7    1  0.3301067E-009  0.9233925E+02  0.7818608E-02  0.1297284E+00
         -1   -1    0    0    0  501 -0.00000000000E+00  0.00000000000E+00  0.16210554336E+03  0.16210554344E+03  0.50400000000E-02 0.  1.
          1   -1    0    0  501    0  0.00000000000E+00 -0.00000000000E+00 -0.13149668493E+02  0.13149669458E+02  0.50400000000E-02 0. -1.
         23    2    1    2    0    0 -0.11102230246E-15 -0.35527136788E-14  0.14895587486E+03  0.17525521289E+03  0.92339249454E+02 0.  0.
    9000005    2    3    3    0    0  0.89758983545E+00  0.18054481724E+02  0.15497819761E+03  0.15620164764E+03  0.73445907167E+01 0.  0.
         22    1    3    3    0    0 -0.89758983545E+00 -0.18054481724E+02 -0.60223227423E+01  0.19053565258E+02  0.00000000000E+00 0. -1.
         22    1    4    4    0    0  0.63190905392E+00 -0.41589601941E+00  0.25984821480E+01  0.27063606606E+01  0.00000000000E+00 0. -1.
         22    1    4    4    0    0  0.26568078153E+00  0.18470377743E+02  0.15237971546E+03  0.15349528698E+03  0.00000000000E+00 0. -1.
<mgrwt>
<rscale>  0 0.92339249E+02</rscale>
<asrwt>0</asrwt>
<pdfrwt beam="2">  1        1 0.20230261E-02 0.92339249E+02</pdfrwt>
<pdfrwt beam="1">  1       -1 0.24939314E-01 0.92339249E+02</pdfrwt>
<totfact> 0.71027504E+04</totfact>
</mgrwt>
</event>
<event>
 7    1  0.3301067E-009  0.9050286E+02  0.7818608E-02  0.1301638E+00
         -1   -1    0    0    0  501 -0.00000000000E+00  0.00000000000E+00  0.91014124848E+01  0.91014138803E+01  0.50400000000E-02 0.  1.
          1   -1    0    0  501    0  0.00000000000E+00 -0.00000000000E+00 -0.22498615877E+03  0.22498615883E+03  0.50400000000E-02 0. -1.
         23    2    1    2    0    0  0.00000000000E+00  0.35527136788E-14 -0.21588474628E+03  0.23408757271E+03  0.90502861928E+02 0.  0.
    9000005    2    3    3    0    0 -0.19528039863E+02  0.25362190475E+02 -0.33472747941E+02  0.48888430737E+02  0.15654672101E+02 0.  0.
         22    1    3    3    0    0  0.19528039863E+02 -0.25362190475E+02 -0.18241199834E+03  0.18519914197E+03  0.00000000000E+00 0. -1.
         22    1    4    4    0    0  0.12116557726E+01  0.73335250181E+01 -0.11549120786E+02  0.13734296117E+02  0.00000000000E+00 0. -1.
         22    1    4    4    0    0 -0.20739695635E+02  0.18028665457E+02 -0.21923627155E+02  0.35154134620E+02  0.00000000000E+00 0. -1.
<mgrwt>
<rscale>  0 0.90502862E+02</rscale>
<asrwt>0</asrwt>
<pdfrwt beam="2">  1        1 0.34613251E-01 0.90502862E+02</pdfrwt>
<pdfrwt beam="1">  1       -1 0.14002176E-02 0.90502862E+02</pdfrwt>
<totfact> 0.12357996E+05</totfact>
</mgrwt>
</event>
<event>
 7    1  0.3301067E-009  0.9124937E+02  0.7818608E-02  0.1299854E+00
          1   -1    0    0  501    0  0.00000000000E+00  0.00000000000E+00  0.95205745262E+02  0.95205745395E+02  0.50400000000E-02 0. -1.
         -1   -1    0    0    0  501 -0.00000000000E+00 -0.00000000000E+00 -0.21864350495E+02  0.21864351076E+02  0.50400000000E-02 0.  1.
         23    2    1    2    0    0  0.00000000000E+00  0.00000000000E+00  0.73341394767E+02  0.11707009647E+03  0.91249368773E+02 0.  0.
    9000005    2    3    3    0    0 -0.94735917938E+01  0.13051131593E+02  0.91318567475E+02  0.92919325968E+02  0.59024905968E+01 0.  0.
         22    1    3    3    0    0  0.94735917938E+01 -0.13051131593E+02 -0.17977172708E+02  0.24150770504E+02  0.00000000000E+00 0.  1.
         22    1    4    4    0    0 -0.48899274338E+01  0.65208882383E+01  0.30136784817E+02  0.31219531912E+02  0.00000000000E+00 0. -1.
         22    1    4    4    0    0 -0.45836643601E+01  0.65302433551E+01  0.61181782658E+02  0.61699794056E+02  0.00000000000E+00 0. -1.
<mgrwt>
<rscale>  0 0.91249369E+02</rscale>
<asrwt>0</asrwt>
<pdfrwt beam="1">  1        1 0.14647038E-01 0.91249369E+02</pdfrwt>
<pdfrwt beam="2">  1       -1 0.33637463E-02 0.91249369E+02</pdfrwt>
<totfact> 0.10338210E+05</totfact>
</mgrwt>
</event>
<event>
 7    1  0.3301067E-009  0.9125543E+02  0.7818608E-02  0.1299840E+00
          1   -1    0    0  501    0  0.00000000000E+00  0.00000000000E+00  0.37853506934E+03  0.37853506937E+03  0.50400000000E-02 0. -1.
         -1   -1    0    0    0  501 -0.00000000000E+00 -0.00000000000E+00 -0.54998548973E+01  0.54998572066E+01  0.50400000000E-02 0.  1.
         23    2    1    2    0    0  0.88817841970E-15  0.00000000000E+00  0.37303521444E+03  0.38403492658E+03  0.91255430628E+02 0.  0.
    9000005    2    3    3    0    0  0.61276467138E+01 -0.42997518534E+02  0.13540263654E+03  0.14246593699E+03  0.87369653847E+01 0.  0.
         22    1    3    3    0    0 -0.61276467138E+01  0.42997518534E+02  0.23763257790E+03  0.24156898959E+03  0.00000000000E+00 0. -1.
         22    1    4    4    0    0  0.12361509896E+01 -0.98652204333E+01  0.20532869378E+02  0.22813359427E+02  0.00000000000E+00 0.  1.
         22    1    4    4    0    0  0.48914957241E+01 -0.33132298101E+02  0.11486976717E+03  0.11965257756E+03  0.00000000000E+00 0.  1.
<mgrwt>
<rscale>  0 0.91255431E+02</rscale>
<asrwt>0</asrwt>
<pdfrwt beam="1">  1        1 0.58236168E-01 0.91255431E+02</pdfrwt>
<pdfrwt beam="2">  1       -1 0.84613166E-03 0.91255431E+02</pdfrwt>
<totfact> 0.13334397E+05</totfact>
</mgrwt>
</event>
<event>
 7    1  0.3301067E-009  0.9175727E+02  0.7818608E-02  0.1298651E+00
         -1   -1    0    0    0  501 -0.00000000000E+00  0.00000000000E+00  0.11574250866E+02  0.11574251963E+02  0.50400000000E-02 0.  1.
          1   -1    0    0  501    0  0.00000000000E+00 -0.00000000000E+00 -0.18185617531E+03  0.18185617538E+03  0.50400000000E-02 0. -1.
         23    2    1    2    0    0 -0.88817841970E-15 -0.71054273576E-14 -0.17028192445E+03  0.19343042735E+03  0.91757269085E+02 0.  0.
    9000005    2    3    3    0    0  0.52528036723E+01  0.44494137225E+02 -0.97376950629E+02  0.10785908050E+03  0.11999605770E+02 0.  0.
         22    1    3    3    0    0 -0.52528036723E+01 -0.44494137225E+02 -0.72904973820E+02  0.85571346849E+02  0.00000000000E+00 0.  1.
         22    1    4    4    0    0  0.42055973826E+01  0.19116643369E+02 -0.55848070518E+02  0.59178882075E+02  0.00000000000E+00 0. -1.
         22    1    4    4    0    0  0.10472062897E+01  0.25377493855E+02 -0.41528880111E+02  0.48680198425E+02  0.00000000000E+00 0. -1.
<mgrwt>
<rscale>  0 0.91757269E+02</rscale>
<asrwt>0</asrwt>
<pdfrwt beam="2">  1        1 0.27977871E-01 0.91757269E+02</pdfrwt>
<pdfrwt beam="1">  1       -1 0.17806542E-02 0.91757269E+02</pdfrwt>
<totfact> 0.11428677E+05</totfact>
</mgrwt>
</event>
<event>
 7    1  0.3301067E-009  0.9075227E+02  0.7818608E-02  0.1301040E+00
          1   -1    0    0  501    0  0.00000000000E+00  0.00000000000E+00  0.10522996305E+02  0.10522997512E+02  0.50400000000E-02 0. -1.
         -1   -1    0    0    0  501 -0.00000000000E+00 -0.00000000000E+00 -0.19566609314E+03  0.19566609321E+03  0.50400000000E-02 0.  1.
         23    2    1    2    0    0  0.00000000000E+00  0.00000000000E+00 -0.18514309683E+03  0.20618909072E+03  0.90752271737E+02 0.  0.
    9000005    2    3    3    0    0  0.39367854751E+02 -0.10958567269E+02 -0.57076361929E+02  0.71760645909E+02  0.14898356483E+02 0.  0.
         22    1    3    3    0    0 -0.39367854751E+02  0.10958567269E+02 -0.12806673491E+03  0.13442844481E+03  0.00000000000E+00 0.  1.
         22    1    4    4    0    0  0.11072030224E+02 -0.38051972811E+01 -0.28949982229E+02  0.31227725673E+02  0.00000000000E+00 0.  1.
         22    1    4    4    0    0  0.28295824527E+02 -0.71533699879E+01 -0.28126379700E+02  0.40532920236E+02  0.00000000000E+00 0.  1.
<mgrwt>
<rscale>  0 0.90752272E+02</rscale>
<asrwt>0</asrwt>
<pdfrwt beam="1">  1        1 0.16189227E-02 0.90752272E+02</pdfrwt>
<pdfrwt beam="2">  1       -1 0.30102473E-01 0.90752272E+02</pdfrwt>
<totfact> 0.70711701E+04</totfact>
</mgrwt>
</event>
<event>
 7    1  0.3301067E-009  0.7699674E+02  0.7818608E-02  0.1337797E+00
         -1   -1    0    0    0  501 -0.00000000000E+00  0.00000000000E+00  0.34925032217E+02  0.34925032581E+02  0.50400000000E-02 0.  1.
          1   -1    0    0  501    0  0.00000000000E+00 -0.00000000000E+00 -0.42437312829E+02  0.42437313128E+02  0.50400000000E-02 0. -1.
         23    2    1    2    0    0  0.00000000000E+00  0.00000000000E+00 -0.75122806117E+01  0.77362345709E+02  0.76996741318E+02 0.  0.
    9000005    2    3    3    0    0 -0.33657354865E+01  0.35755876697E+02  0.69843016249E+01  0.38633005535E+02  0.12406359405E+02 0.  0.
         22    1    3    3    0    0  0.33657354865E+01 -0.35755876697E+02 -0.14496582237E+02  0.38729340174E+02  0.00000000000E+00 0.  1.
         22    1    4    4    0    0 -0.36219210954E+01  0.97034746356E+01  0.71381186264E+01  0.12578889854E+02  0.00000000000E+00 0. -1.
         22    1    4    4    0    0  0.25618560891E+00  0.26052402062E+02 -0.15381700153E+00  0.26054115681E+02  0.00000000000E+00 0. -1.
<mgrwt>
<rscale>  0 0.76996741E+02</rscale>
<asrwt>0</asrwt>
<pdfrwt beam="2">  1        1 0.65288175E-02 0.76996741E+02</pdfrwt>
<pdfrwt beam="1">  1       -1 0.53730819E-02 0.76996741E+02</pdfrwt>
<totfact> 0.14626697E+05</totfact>
</mgrwt>
</event>
<event>
 7    1  0.3301067E-009  0.9206407E+02  0.7818608E-02  0.1297929E+00
         -1   -1    0    0    0  501 -0.00000000000E+00  0.00000000000E+00  0.23729395767E+02  0.23729396302E+02  0.50400000000E-02 0.  1.
          1   -1    0    0  501    0  0.00000000000E+00 -0.00000000000E+00 -0.89296332224E+02  0.89296332366E+02  0.50400000000E-02 0. -1.
         23    2    1    2    0    0  0.00000000000E+00  0.00000000000E+00 -0.65566936457E+02  0.11302572867E+03  0.92064065653E+02 0.  0.
    9000005    2    3    3    0    0  0.29318021311E+02  0.34532201186E+02 -0.30397511923E+02  0.55676729423E+02  0.11129697917E+02 0.  0.
         22    1    3    3    0    0 -0.29318021311E+02 -0.34532201186E+02 -0.35169424533E+02  0.57348999245E+02  0.00000000000E+00 0.  1.
         22    1    4    4    0    0  0.52894995622E+01  0.39179377633E+01 -0.93420517495E+01  0.11428165768E+02  0.00000000000E+00 0. -1.
         22    1    4    4    0    0  0.24028521749E+02  0.30614263423E+02 -0.21055460174E+02  0.44248563655E+02  0.00000000000E+00 0. -1.
<mgrwt>
<rscale>  0 0.92064066E+02</rscale>
<asrwt>0</asrwt>
<pdfrwt beam="2">  1        1 0.13737897E-01 0.92064066E+02</pdfrwt>
<pdfrwt beam="1">  1       -1 0.36506764E-02 0.92064066E+02</pdfrwt>
<totfact> 0.99845587E+04</totfact>
</mgrwt>
</event>
<event>
 7    1  0.3301067E-009  0.9086741E+02  0.7818608E-02  0.1300765E+00
          1   -1    0    0  501    0  0.00000000000E+00  0.00000000000E+00  0.11091275150E+03  0.11091275161E+03  0.50400000000E-02 0. -1.
         -1   -1    0    0    0  501 -0.00000000000E+00 -0.00000000000E+00 -0.18611219662E+02  0.18611220344E+02  0.50400000000E-02 0.  1.
         23    2    1    2    0    0  0.71054273576E-14 -0.35527136788E-14  0.92301531838E+02  0.12952397196E+03  0.90867411827E+02 0.  0.
    9000005    2    3    3    0    0  0.32294825529E+02 -0.29810788036E+02  0.35025098696E+02  0.57328205928E+02  0.11319311684E+02 0.  0.
         22    1    3    3    0    0 -0.32294825529E+02  0.29810788036E+02  0.57276433142E+02  0.72195766030E+02  0.00000000000E+00 0.  1.
         22    1    4    4    0    0  0.21214414339E+02 -0.12103518575E+02  0.17265801995E+02  0.29910774918E+02  0.00000000000E+00 0. -1.
         22    1    4    4    0    0  0.11080411190E+02 -0.17707269461E+02  0.17759296701E+02  0.27417431010E+02  0.00000000000E+00 0. -1.
<mgrwt>
<rscale>  0 0.90867412E+02</rscale>
<asrwt>0</asrwt>
<pdfrwt beam="1">  1        1 0.17063501E-01 0.90867412E+02</pdfrwt>
<pdfrwt beam="2">  1       -1 0.28632646E-02 0.90867412E+02</pdfrwt>
<totfact> 0.10727539E+05</totfact>
</mgrwt>
</event>
<event>
 7    1  0.3301067E-009  0.9163628E+02  0.7818608E-02  0.1298937E+00
         -1   -1    0    0    0  501 -0.00000000000E+00  0.00000000000E+00  0.17540090281E+02  0.17540091005E+02  0.50400000000E-02 0.  1.
          1   -1    0    0  501    0  0.00000000000E+00 -0.00000000000E+00 -0.11968593048E+03  0.11968593058E+03  0.50400000000E-02 0. -1.
         23    2    1    2    0    0  0.71054273576E-14  0.00000000000E+00 -0.10214584019E+03  0.13722602159E+03  0.91636282834E+02 0.  0.
    9000005    2    3    3    0    0  0.33345466307E+02 -0.58192349168E+01 -0.96156853721E+02  0.10285086228E+03  0.13651949911E+02 0.  0.
         22    1    3    3    0    0 -0.33345466307E+02  0.58192349168E+01 -0.59889864731E+01  0.34375159305E+02  0.00000000000E+00 0.  1.
         22    1    4    4    0    0  0.17980103410E+02 -0.94472252421E+00 -0.68618618841E+02  0.70941465103E+02  0.00000000000E+00 0. -1.
         22    1    4    4    0    0  0.15365362897E+02 -0.48745123926E+01 -0.27538234880E+02  0.31909397179E+02  0.00000000000E+00 0. -1.
<mgrwt>
<rscale>  0 0.91636283E+02</rscale>
<asrwt>0</asrwt>
<pdfrwt beam="2">  1        1 0.18413220E-01 0.91636283E+02</pdfrwt>
<pdfrwt beam="1">  1       -1 0.26984756E-02 0.91636283E+02</pdfrwt>
<totfact> 0.10622977E+05</totfact>
</mgrwt>
</event>
<event>
 7    1  0.3301067E-009  0.9050974E+02  0.7818608E-02  0.1301622E+00
         -1   -1    0    0    0  501 -0.00000000000E+00  0.00000000000E+00  0.71646939537E+02  0.71646939714E+02  0.50400000000E-02 0. -1.
          1   -1    0    0  501    0  0.00000000000E+00 -0.00000000000E+00 -0.28584657082E+02  0.28584657526E+02  0.50400000000E-02 0.  1.
         23    2    1    2    0    0  0.00000000000E+00  0.35527136788E-14  0.43062282455E+02  0.10023159724E+03  0.90509739339E+02 0.  0.
    9000005    2    3    3    0    0 -0.26474133206E+02 -0.22321400741E+02  0.51993132230E+02  0.64470099261E+02  0.15936851623E+02 0.  0.
         22    1    3    3    0    0  0.26474133206E+02  0.22321400741E+02 -0.89308497747E+01  0.35761497980E+02  0.00000000000E+00 0.  1.
         22    1    4    4    0    0 -0.22892944067E+00  0.85647607355E+00 -0.75080074412E+00  0.11617494182E+01  0.00000000000E+00 0. -1.
         22    1    4    4    0    0 -0.26245203765E+02 -0.23177876814E+02  0.52743932974E+02  0.63308349843E+02  0.00000000000E+00 0. -1.
<mgrwt>
<rscale>  0 0.90509739E+02</rscale>
<asrwt>0</asrwt>
<pdfrwt beam="2">  1        1 0.43976397E-02 0.90509739E+02</pdfrwt>
<pdfrwt beam="1">  1       -1 0.11022606E-01 0.90509739E+02</pdfrwt>
<totfact> 0.87842580E+04</totfact>
</mgrwt>
</event>
<event>
 7    1  0.3301067E-009  0.8325882E+02  0.7818608E-02  0.1320050E+00
         -1   -1    0    0    0  501 -0.00000000000E+00  0.00000000000E+00  0.20414461003E+02  0.20414461625E+02  0.50400000000E-02 0.  1.
          1   -1    0    0  501    0  0.00000000000E+00 -0.00000000000E+00 -0.84891175641E+02  0.84891175790E+02  0.50400000000E-02 0. -1.
         23    2    1    2    0    0  0.00000000000E+00  0.00000000000E+00 -0.64476714638E+02  0.10530563742E+03  0.83258816595E+02 0.  0.
    9000005    2    3    3    0    0 -0.22050792209E+02 -0.28370108092E+02 -0.90096815957E+01  0.39217119315E+02  0.12872746976E+02 0.  0.
         22    1    3    3    0    0  0.22050792209E+02  0.28370108092E+02 -0.55467033042E+02  0.66088518100E+02  0.00000000000E+00 0. -1.
         22    1    4    4    0    0 -0.10318925131E+01  0.10159581753E+01 -0.19097505333E+01  0.23966894400E+01  0.00000000000E+00 0.  1.
         22    1    4    4    0    0 -0.21018899696E+02 -0.29386066267E+02 -0.70999310624E+01  0.36820429875E+02  0.00000000000E+00 0.  1.
<mgrwt>
<rscale>  0 0.83258817E+02</rscale>
<asrwt>0</asrwt>
<pdfrwt beam="2">  1        1 0.13060181E-01 0.83258817E+02</pdfrwt>
<pdfrwt beam="1">  1       -1 0.31406864E-02 0.83258817E+02</pdfrwt>
<totfact> 0.13021794E+05</totfact>
</mgrwt>
</event>
<event>
 7    1  0.3301067E-009  0.9304542E+02  0.7818608E-02  0.1295640E+00
          1   -1    0    0  501    0  0.00000000000E+00  0.00000000000E+00  0.27097181858E+03  0.27097181862E+03  0.50400000000E-02 0. -1.
         -1   -1    0    0    0  501 -0.00000000000E+00 -0.00000000000E+00 -0.79874080125E+01  0.79874096026E+01  0.50400000000E-02 0.  1.
         23    2    1    2    0    0  0.00000000000E+00  0.00000000000E+00  0.26298441056E+03  0.27895922823E+03  0.93045423384E+02 0.  0.
    9000005    2    3    3    0    0  0.18751685304E+02  0.28537461173E+02  0.22513697479E+03  0.22798432473E+03  0.11143720743E+02 0.  0.
         22    1    3    3    0    0 -0.18751685304E+02 -0.28537461173E+02  0.37847435774E+02  0.50974903498E+02  0.00000000000E+00 0.  1.
         22    1    4    4    0    0  0.91482297636E+01  0.15840173293E+02  0.85000191412E+02  0.86946154244E+02  0.00000000000E+00 0. -1.
         22    1    4    4    0    0  0.96034555406E+01  0.12697287880E+02  0.14013678338E+03  0.14103817048E+03  0.00000000000E+00 0. -1.
<mgrwt>
<rscale>  0 0.93045423E+02</rscale>
<asrwt>0</asrwt>
<pdfrwt beam="1">  1        1 0.41687976E-01 0.93045423E+02</pdfrwt>
<pdfrwt beam="2">  1       -1 0.12288320E-02 0.93045423E+02</pdfrwt>
<totfact> 0.11899954E+05</totfact>
</mgrwt>
</event>
<event>
 7    1  0.3301067E-009  0.9440394E+02  0.7818608E-02  0.1292524E+00
         -1   -1    0    0    0  501 -0.00000000000E+00  0.00000000000E+00  0.13257473185E+03  0.13257473194E+03  0.50400000000E-02 0.  1.
          1   -1    0    0  501    0  0.00000000000E+00 -0.00000000000E+00 -0.16805810614E+02  0.16805811370E+02  0.50400000000E-02 0. -1.
         23    2    1    2    0    0  0.00000000000E+00  0.71054273576E-14  0.11576892123E+03  0.14938054331E+03  0.94403938461E+02 0.  0.
    9000005    2    3    3    0    0 -0.14277003704E+02 -0.42866047452E+02  0.78682745428E+02  0.90927867627E+02  0.59642119575E+01 0.  0.
         22    1    3    3    0    0  0.14277003704E+02  0.42866047452E+02  0.37086175807E+02  0.58452675687E+02  0.00000000000E+00 0. -1.
         22    1    4    4    0    0 -0.12481936422E+02 -0.37685234966E+02  0.72552505643E+02  0.82703335763E+02  0.00000000000E+00 0. -1.
         22    1    4    4    0    0 -0.17950672824E+01 -0.51808124864E+01  0.61302397843E+01  0.82245318639E+01  0.00000000000E+00 0. -1.
<mgrwt>
<rscale>  0 0.94403938E+02</rscale>
<asrwt>0</asrwt>
<pdfrwt beam="2">  1        1 0.25855094E-02 0.94403938E+02</pdfrwt>
<pdfrwt beam="1">  1       -1 0.20396112E-01 0.94403938E+02</pdfrwt>
<totfact> 0.70263815E+04</totfact>
</mgrwt>
</event>
<event>
 7    1  0.3301067E-009  0.9057388E+02  0.7818608E-02  0.1301468E+00
         -1   -1    0    0    0  501 -0.00000000000E+00  0.00000000000E+00  0.98936480626E+01  0.98936493464E+01  0.50400000000E-02 0.  1.
          1   -1    0    0  501    0  0.00000000000E+00 -0.00000000000E+00 -0.20729530414E+03  0.20729530421E+03  0.50400000000E-02 0. -1.
         23    2    1    2    0    0  0.00000000000E+00 -0.71054273576E-14 -0.19740165608E+03  0.21718895355E+03  0.90573879906E+02 0.  0.
    9000005    2    3    3    0    0 -0.32309793491E+01  0.39330069648E+02 -0.47713676895E+02  0.62386548147E+02  0.76284219079E+01 0.  0.
         22    1    3    3    0    0  0.32309793491E+01 -0.39330069648E+02 -0.14968797919E+03  0.15480240540E+03  0.00000000000E+00 0. -1.
         22    1    4    4    0    0 -0.46823934084E+01  0.19528792721E+02 -0.20473407511E+02  0.28678545435E+02  0.00000000000E+00 0. -1.
         22    1    4    4    0    0  0.14514140593E+01  0.19801276927E+02 -0.27240269384E+02  0.33708002712E+02  0.00000000000E+00 0. -1.
<mgrwt>
<rscale>  0 0.90573880E+02</rscale>
<asrwt>0</asrwt>
<pdfrwt beam="2">  1        1 0.31891582E-01 0.90573880E+02</pdfrwt>
<pdfrwt beam="1">  1       -1 0.15221000E-02 0.90573880E+02</pdfrwt>
<totfact> 0.12137053E+05</totfact>
</mgrwt>
</event>
<event>
 7    1  0.3301067E-009  0.9159287E+02  0.7818608E-02  0.1299040E+00
         -1   -1    0    0    0  501 -0.00000000000E+00  0.00000000000E+00  0.89192622285E+01  0.89192636524E+01  0.50400000000E-02 0.  1.
          1   -1    0    0  501    0  0.00000000000E+00 -0.00000000000E+00 -0.23514427526E+03  0.23514427532E+03  0.50400000000E-02 0. -1.
         23    2    1    2    0    0 -0.71054273576E-14 -0.22204460493E-15 -0.22622501304E+03  0.24406353897E+03  0.91592873805E+02 0.  0.
    9000005    2    3    3    0    0 -0.39958665122E+02  0.17308612920E+01 -0.57634577326E+02  0.70793732565E+02  0.95035397503E+01 0.  0.
         22    1    3    3    0    0  0.39958665122E+02 -0.17308612920E+01 -0.16859043571E+03  0.17326980641E+03  0.00000000000E+00 0.  1.
         22    1    4    4    0    0 -0.24716501596E+02 -0.28499386305E+01 -0.39313621063E+02  0.46525137318E+02  0.00000000000E+00 0.  1.
         22    1    4    4    0    0 -0.15242163526E+02  0.45807999225E+01 -0.18320956263E+02  0.24268595247E+02  0.00000000000E+00 0.  1.
<mgrwt>
<rscale>  0 0.91592874E+02</rscale>
<asrwt>0</asrwt>
<pdfrwt beam="2">  1        1 0.36176038E-01 0.91592874E+02</pdfrwt>
<pdfrwt beam="1">  1       -1 0.13721945E-02 0.91592874E+02</pdfrwt>
<totfact> 0.12072138E+05</totfact>
</mgrwt>
</event>
<event>
 7    1  0.3301067E-009  0.1034375E+03  0.7818608E-02  0.1273229E+00
          1   -1    0    0  501    0  0.00000000000E+00  0.00000000000E+00  0.97740834645E+01  0.97740847640E+01  0.50400000000E-02 0. -1.
         -1   -1    0    0    0  501 -0.00000000000E+00 -0.00000000000E+00 -0.27366546813E+03  0.27366546818E+03  0.50400000000E-02 0.  1.
         23    2    1    2    0    0  0.00000000000E+00 -0.44408920985E-15 -0.26389138467E+03  0.28343955294E+03  0.10343750418E+03 0.  0.
    9000005    2    3    3    0    0  0.50963810498E+02 -0.33400203821E+01 -0.14632974401E+03  0.15526309227E+03  0.92611080558E+01 0.  0.
         22    1    3    3    0    0 -0.50963810498E+02  0.33400203821E+01 -0.11756164066E+03  0.12817646067E+03  0.00000000000E+00 0.  1.
         22    1    4    4    0    0  0.32732439127E+02  0.21744954896E+01 -0.89113525881E+02  0.94959788842E+02  0.00000000000E+00 0. -1.
         22    1    4    4    0    0  0.18231371370E+02 -0.55145158718E+01 -0.57216218128E+02  0.60303303427E+02  0.00000000000E+00 0. -1.
<mgrwt>
<rscale>  0 0.10343750E+03</rscale>
<asrwt>0</asrwt>
<pdfrwt beam="1">  1        1 0.15037055E-02 0.10343750E+03</pdfrwt>
<pdfrwt beam="2">  1       -1 0.42102374E-01 0.10343750E+03</pdfrwt>
<totfact> 0.45049176E+04</totfact>
</mgrwt>
</event>
<event>
 7    1  0.3301067E-009  0.8632184E+02  0.7818608E-02  0.1312012E+00
          1   -1    0    0  501    0  0.00000000000E+00  0.00000000000E+00  0.89187707234E+03  0.89187707236E+03  0.50400000000E-02 0. -1.
         -1   -1    0    0    0  501 -0.00000000000E+00 -0.00000000000E+00 -0.20886985959E+01  0.20887046767E+01  0.50400000000E-02 0.  1.
         23    2    1    2    0    0  0.00000000000E+00  0.00000000000E+00  0.88978837375E+03  0.89396577703E+03  0.86321842267E+02 0.  0.
    9000005    2    3    3    0    0 -0.27665086434E+02 -0.48689219549E+01  0.78270113386E+03  0.78325561329E+03  0.89009777187E+01 0.  0.
         22    1    3    3    0    0  0.27665086434E+02  0.48689219549E+01  0.10708723989E+03  0.11071016374E+03  0.00000000000E+00 0.  1.
         22    1    4    4    0    0 -0.67766403244E+01  0.25318699204E+01  0.21715916854E+03  0.21727963020E+03  0.00000000000E+00 0. -1.
         22    1    4    4    0    0 -0.20888446110E+02 -0.74007918753E+01  0.56554196532E+03  0.56597598309E+03  0.00000000000E+00 0. -1.
<mgrwt>
<rscale>  0 0.86321842E+02</rscale>
<asrwt>0</asrwt>
<pdfrwt beam="1">  1        1 0.13721217E+00 0.86321842E+02</pdfrwt>
<pdfrwt beam="2">  1       -1 0.32133799E-03 0.86321842E+02</pdfrwt>
<totfact> 0.16102259E+05</totfact>
</mgrwt>
</event>
<event>
 7    1  0.3301067E-009  0.9063723E+02  0.7818608E-02  0.1301316E+00
          1   -1    0    0  501    0  0.00000000000E+00  0.00000000000E+00  0.15649199297E+02  0.15649200108E+02  0.50400000000E-02 0. -1.
         -1   -1    0    0    0  501 -0.00000000000E+00 -0.00000000000E+00 -0.13123844769E+03  0.13123844779E+03  0.50400000000E-02 0.  1.
         23    2    1    2    0    0  0.88817841970E-15  0.00000000000E+00 -0.11558924840E+03  0.14688764790E+03  0.90637226128E+02 0.  0.
    9000005    2    3    3    0    0 -0.69771825071E+01 -0.12475166443E+02 -0.12693120214E+03  0.12864070930E+03  0.15250939657E+02 0.  0.
         22    1    3    3    0    0  0.69771825071E+01  0.12475166443E+02  0.11341953740E+02  0.18246938597E+02  0.00000000000E+00 0. -1.
         22    1    4    4    0    0  0.36008416568E+01 -0.41593004438E+01 -0.16504282486E+02  0.17397045186E+02  0.00000000000E+00 0.  1.
         22    1    4    4    0    0 -0.10578024164E+02 -0.83158659989E+01 -0.11042691965E+03  0.11124366412E+03  0.00000000000E+00 0.  1.
<mgrwt>
<rscale>  0 0.90637226E+02</rscale>
<asrwt>0</asrwt>
<pdfrwt beam="1">  1        1 0.24075693E-02 0.90637226E+02</pdfrwt>
<pdfrwt beam="2">  1       -1 0.20190530E-01 0.90637226E+02</pdfrwt>
<totfact> 0.78260587E+04</totfact>
</mgrwt>
</event>
<event>
 7    1  0.3301067E-009  0.9118086E+02  0.7818608E-02  0.1300017E+00
          1   -1    0    0  501    0  0.00000000000E+00  0.00000000000E+00  0.14985675478E+03  0.14985675486E+03  0.50400000000E-02 0. -1.
         -1   -1    0    0    0  501 -0.00000000000E+00 -0.00000000000E+00 -0.13869827896E+02  0.13869828812E+02  0.50400000000E-02 0.  1.
         23    2    1    2    0    0  0.00000000000E+00  0.00000000000E+00  0.13598692688E+03  0.16372658367E+03  0.91180863775E+02 0.  0.
    9000005    2    3    3    0    0  0.28625061809E+02 -0.40889603999E+01  0.60070073314E+01  0.30569183403E+02  0.78915826124E+01 0.  0.
         22    1    3    3    0    0 -0.28625061809E+02  0.40889603999E+01  0.12997991955E+03  0.13315740027E+03  0.00000000000E+00 0. -1.
         22    1    4    4    0    0  0.18897604321E+02 -0.59214213582E+01  0.59226201959E+01  0.20670271164E+02  0.00000000000E+00 0. -1.
         22    1    4    4    0    0  0.97274574873E+01  0.18324609583E+01  0.84387135455E-01  0.98989122392E+01  0.00000000000E+00 0. -1.
<mgrwt>
<rscale>  0 0.91180864E+02</rscale>
<asrwt>0</asrwt>
<pdfrwt beam="1">  1        1 0.23054887E-01 0.91180864E+02</pdfrwt>
<pdfrwt beam="2">  1       -1 0.21338196E-02 0.91180864E+02</pdfrwt>
<totfact> 0.11209965E+05</totfact>
</mgrwt>
</event>
<event>
 7    1  0.3301067E-009  0.9000425E+02  0.7818608E-02  0.1302841E+00
         -1   -1    0    0    0  501 -0.00000000000E+00  0.00000000000E+00  0.11976207568E+03  0.11976207578E+03  0.50400000000E-02 0.  1.
          1   -1    0    0  501    0  0.00000000000E+00 -0.00000000000E+00 -0.16910122437E+02  0.16910123188E+02  0.50400000000E-02 0. -1.
         23    2    1    2    0    0  0.00000000000E+00 -0.17763568394E-14  0.10285195324E+03  0.13667219897E+03  0.90004253713E+02 0.  0.
    9000005    2    3    3    0    0  0.32193637602E+02  0.10802337878E+02  0.11546860821E+02  0.39256898801E+02  0.15957860227E+02 0.  0.
         22    1    3    3    0    0 -0.32193637602E+02 -0.10802337878E+02  0.91305092417E+02  0.97415300169E+02  0.00000000000E+00 0.  1.
         22    1    4    4    0    0  0.17891069501E+01 -0.22485026287E+01 -0.20030946405E+01  0.35027212120E+01  0.00000000000E+00 0.  1.
         22    1    4    4    0    0  0.30404530652E+02  0.13050840507E+02  0.13549955461E+02  0.35754177589E+02  0.00000000000E+00 0.  1.
<mgrwt>
<rscale>  0 0.90004254E+02</rscale>
<asrwt>0</asrwt>
<pdfrwt beam="2">  1        1 0.26015574E-02 0.90004254E+02</pdfrwt>
<pdfrwt beam="1">  1       -1 0.18424935E-01 0.90004254E+02</pdfrwt>
<totfact> 0.81233038E+04</totfact>
</mgrwt>
</event>
<event>
 7    1  0.3301067E-009  0.9069765E+02  0.7818608E-02  0.1301171E+00
         -1   -1    0    0    0  501 -0.00000000000E+00  0.00000000000E+00  0.27809090630E+02  0.27809091087E+02  0.50400000000E-02 0.  1.
          1   -1    0    0  501    0  0.00000000000E+00 -0.00000000000E+00 -0.73951209653E+02  0.73951209825E+02  0.50400000000E-02 0. -1.
         23    2    1    2    0    0  0.00000000000E+00  0.00000000000E+00 -0.46142119023E+02  0.10176030091E+03  0.90697649880E+02 0.  0.
    9000005    2    3    3    0    0 -0.73716281063E+01  0.16551989370E+02 -0.68739675780E+02  0.72795514974E+02  0.15675928075E+02 0.  0.
         22    1    3    3    0    0  0.73716281063E+01 -0.16551989370E+02  0.22597556757E+02  0.28964785938E+02  0.00000000000E+00 0.  1.
         22    1    4    4    0    0  0.31575299653E+01  0.11996943236E+02 -0.38701351872E+02  0.40641004899E+02  0.00000000000E+00 0. -1.
         22    1    4    4    0    0 -0.10529158072E+02  0.45550461339E+01 -0.30038323908E+02  0.32154510076E+02  0.00000000000E+00 0. -1.
<mgrwt>
<rscale>  0 0.90697650E+02</rscale>
<asrwt>0</asrwt>
<pdfrwt beam="2">  1        1 0.11377109E-01 0.90697650E+02</pdfrwt>
<pdfrwt beam="1">  1       -1 0.42783217E-02 0.90697650E+02</pdfrwt>
<totfact> 0.10096324E+05</totfact>
</mgrwt>
</event>
<event>
 7    1  0.3301067E-009  0.9066530E+02  0.7818608E-02  0.1301249E+00
         -1   -1    0    0    0  501 -0.00000000000E+00  0.00000000000E+00  0.47262250508E+02  0.47262250776E+02  0.50400000000E-02 0.  1.
          1   -1    0    0  501    0  0.00000000000E+00 -0.00000000000E+00 -0.43481825996E+02  0.43481826288E+02  0.50400000000E-02 0. -1.
         23    2    1    2    0    0 -0.17763568394E-14 -0.17763568394E-14  0.37804245118E+01  0.90744077064E+02  0.90665296077E+02 0.  0.
    9000005    2    3    3    0    0  0.14040143630E+02  0.10575190809E+02  0.43653032050E+02  0.47169025421E+02  0.32201643249E+01 0.  0.
         22    1    3    3    0    0 -0.14040143630E+02 -0.10575190809E+02 -0.39872607538E+02  0.43575051643E+02  0.00000000000E+00 0. -1.
         22    1    4    4    0    0  0.12948275674E+01  0.19181897401E+01  0.39045992080E+01  0.45389343775E+01  0.00000000000E+00 0.  1.
         22    1    4    4    0    0  0.12745316062E+02  0.86570010692E+01  0.39748432842E+02  0.42630091044E+02  0.00000000000E+00 0.  1.
<mgrwt>
<rscale>  0 0.90665296E+02</rscale>
<asrwt>0</asrwt>
<pdfrwt beam="2">  1        1 0.66895118E-02 0.90665296E+02</pdfrwt>
<pdfrwt beam="1">  1       -1 0.72711155E-02 0.90665296E+02</pdfrwt>
<totfact> 0.93279432E+04</totfact>
</mgrwt>
</event>
<event>
 7    1  0.3301067E-009  0.9252145E+02  0.7818608E-02  0.1296858E+00
         -1   -1    0    0    0  501 -0.00000000000E+00  0.00000000000E+00  0.48241591618E+02  0.48241591882E+02  0.50400000000E-02 0.  1.
          1   -1    0    0  501    0  0.00000000000E+00 -0.00000000000E+00 -0.44361191527E+02  0.44361191813E+02  0.50400000000E-02 0. -1.
         23    2    1    2    0    0  0.00000000000E+00  0.00000000000E+00  0.38804000915E+01  0.92602783695E+02  0.92521446396E+02 0.  0.
    9000005    2    3    3    0    0  0.45626355222E+02  0.37646042747E+01  0.64272487144E+01  0.46750597551E+02  0.69550204297E+01 0.  0.
         22    1    3    3    0    0 -0.45626355222E+02 -0.37646042747E+01 -0.25468486229E+01  0.45852186143E+02  0.00000000000E+00 0. -1.
         22    1    4    4    0    0  0.41189791492E+02  0.51730341222E+01  0.46700859026E+01  0.41775218820E+02  0.00000000000E+00 0.  1.
         22    1    4    4    0    0  0.44365637305E+01 -0.14084298475E+01  0.17571628118E+01  0.49753787310E+01  0.00000000000E+00 0.  1.
<mgrwt>
<rscale>  0 0.92521446E+02</rscale>
<asrwt>0</asrwt>
<pdfrwt beam="2">  1        1 0.68247987E-02 0.92521446E+02</pdfrwt>
<pdfrwt beam="1">  1       -1 0.74217834E-02 0.92521446E+02</pdfrwt>
<totfact> 0.88373182E+04</totfact>
</mgrwt>
</event>
<event>
 7    1  0.3301067E-009  0.9120928E+02  0.7818608E-02  0.1299949E+00
          1   -1    0    0  501    0  0.00000000000E+00  0.00000000000E+00  0.50216583902E+01  0.50216609194E+01  0.50400000000E-02 0. -1.
         -1   -1    0    0    0  501 -0.00000000000E+00 -0.00000000000E+00 -0.41416247525E+03  0.41416247528E+03  0.50400000000E-02 0.  1.
         23    2    1    2    0    0  0.22204460493E-15  0.00000000000E+00 -0.40914081686E+03  0.41918413620E+03  0.91209275960E+02 0.  0.
    9000005    2    3    3    0    0  0.18799676045E+01 -0.39496754146E+02 -0.30411264594E+03  0.30695916325E+03  0.13262677633E+02 0.  0.
         22    1    3    3    0    0 -0.18799676045E+01  0.39496754146E+02 -0.10502817092E+03  0.11222497295E+03  0.00000000000E+00 0. -1.
         22    1    4    4    0    0  0.45928124604E+01 -0.38563925409E+02 -0.28258895037E+03  0.28524513167E+03  0.00000000000E+00 0. -1.
         22    1    4    4    0    0 -0.27128448558E+01 -0.93282873677E+00 -0.21523695572E+02  0.21714031586E+02  0.00000000000E+00 0. -1.
<mgrwt>
<rscale>  0 0.91209276E+02</rscale>
<asrwt>0</asrwt>
<pdfrwt beam="1">  1        1 0.77256335E-03 0.91209276E+02</pdfrwt>
<pdfrwt beam="2">  1       -1 0.63717277E-01 0.91209276E+02</pdfrwt>
<totfact> 0.52298309E+04</totfact>
</mgrwt>
</event>
<event>
 7    1  0.3301067E-009  0.8729719E+02  0.7818608E-02  0.1309532E+00
         -1   -1    0    0    0  501 -0.00000000000E+00  0.00000000000E+00  0.16275529086E+01  0.16275607122E+01  0.50400000000E-02 0.  1.
          1   -1    0    0  501    0  0.00000000000E+00 -0.00000000000E+00 -0.11705887070E+04  0.11705887070E+04  0.50400000000E-02 0. -1.
         23    2    1    2    0    0 -0.35527136788E-14  0.17763568394E-14 -0.11689611541E+04  0.11722162677E+04  0.87297185175E+02 0.  0.
    9000005    2    3    3    0    0  0.18096066909E+02 -0.96560447505E+01 -0.10994830431E+04  0.10997737750E+04  0.14788082575E+02 0.  0.
         22    1    3    3    0    0 -0.18096066909E+02  0.96560447505E+01 -0.69478111010E+02  0.72442492691E+02  0.00000000000E+00 0.  1.
         22    1    4    4    0    0  0.43308659957E+01  0.30905874693E+01 -0.41355622052E+03  0.41359044436E+03  0.00000000000E+00 0. -1.
         22    1    4    4    0    0  0.13765200913E+02 -0.12746632220E+02 -0.68592682253E+03  0.68618333064E+03  0.00000000000E+00 0. -1.
<mgrwt>
<rscale>  0 0.87297185E+02</rscale>
<asrwt>0</asrwt>
<pdfrwt beam="2">  1        1 0.18008990E+00 0.87297185E+02</pdfrwt>
<pdfrwt beam="1">  1       -1 0.25039429E-03 0.87297185E+02</pdfrwt>
<totfact> 0.14440397E+05</totfact>
</mgrwt>
</event>
<event>
 7    1  0.3301067E-009  0.9320093E+02  0.7818608E-02  0.1295280E+00
         -1   -1    0    0    0  501 -0.00000000000E+00  0.00000000000E+00  0.46342080314E+02  0.46342080588E+02  0.50400000000E-02 0.  1.
          1   -1    0    0  501    0  0.00000000000E+00 -0.00000000000E+00 -0.46860289249E+02  0.46860289520E+02  0.50400000000E-02 0. -1.
         23    2    1    2    0    0  0.00000000000E+00  0.00000000000E+00 -0.51820893546E+00  0.93202370108E+02  0.93200929466E+02 0.  0.
    9000005    2    3    3    0    0  0.15628459259E+02 -0.15221006734E+02 -0.40907663723E+02  0.47297731531E+02  0.93653975835E+01 0.  0.
         22    1    3    3    0    0 -0.15628459259E+02  0.15221006734E+02  0.40389454788E+02  0.45904638577E+02  0.00000000000E+00 0.  1.
         22    1    4    4    0    0  0.11488264885E+02 -0.94602126995E+01 -0.35116908099E+02  0.38140176832E+02  0.00000000000E+00 0.  1.
         22    1    4    4    0    0  0.41401943739E+01 -0.57607940341E+01 -0.57907556247E+01  0.91575546988E+01  0.00000000000E+00 0.  1.
<mgrwt>
<rscale>  0 0.93200929E+02</rscale>
<asrwt>0</asrwt>
<pdfrwt beam="2">  1        1 0.72092753E-02 0.93200929E+02</pdfrwt>
<pdfrwt beam="1">  1       -1 0.71295508E-02 0.93200929E+02</pdfrwt>
<totfact> 0.87297595E+04</totfact>
</mgrwt>
</event>
<event>
 7    1  0.3301067E-009  0.9178974E+02  0.7818608E-02  0.1298575E+00
          1   -1    0    0  501    0  0.00000000000E+00  0.00000000000E+00  0.39624843779E+03  0.39624843782E+03  0.50400000000E-02 0. -1.
         -1   -1    0    0    0  501 -0.00000000000E+00 -0.00000000000E+00 -0.53157015332E+01  0.53157039225E+01  0.50400000000E-02 0.  1.
         23    2    1    2    0    0 -0.17763568394E-14  0.00000000000E+00  0.39093273626E+03  0.40156414175E+03  0.91789736125E+02 0.  0.
    9000005    2    3    3    0    0 -0.14077757895E+02  0.43246675031E+02  0.22185483819E+03  0.22647618161E+03  0.18529546087E+01 0.  0.
         22    1    3    3    0    0  0.14077757895E+02 -0.43246675031E+02  0.16907789807E+03  0.17508796013E+03  0.00000000000E+00 0.  1.
         22    1    4    4    0    0 -0.15785216465E+01  0.45553431791E+01  0.20852647975E+02  0.21402705662E+02  0.00000000000E+00 0. -1.
         22    1    4    4    0    0 -0.12499236248E+02  0.38691331852E+02  0.20100219021E+03  0.20507347595E+03  0.00000000000E+00 0. -1.
<mgrwt>
<rscale>  0 0.91789736E+02</rscale>
<asrwt>0</asrwt>
<pdfrwt beam="1">  1        1 0.60961307E-01 0.91789736E+02</pdfrwt>
<pdfrwt beam="2">  1       -1 0.81780031E-03 0.91789736E+02</pdfrwt>
<totfact> 0.13230572E+05</totfact>
</mgrwt>
</event>
<event>
 7    1  0.3301067E-009  0.9619642E+02  0.7818608E-02  0.1288504E+00
         -1   -1    0    0    0  501 -0.00000000000E+00  0.00000000000E+00  0.54655303535E+02  0.54655303767E+02  0.50400000000E-02 0.  1.
          1   -1    0    0  501    0  0.00000000000E+00 -0.00000000000E+00 -0.42327781637E+02  0.42327781937E+02  0.50400000000E-02 0. -1.
         23    2    1    2    0    0  0.00000000000E+00  0.00000000000E+00  0.12327521898E+02  0.96983085704E+02  0.96196419458E+02 0.  0.
    9000005    2    3    3    0    0 -0.19154623789E+02  0.25835577135E+02 -0.29839766442E+02  0.43950483803E+02  0.26185314189E+01 0.  0.
         22    1    3    3    0    0  0.19154623789E+02 -0.25835577135E+02  0.42167288340E+02  0.53032601901E+02  0.00000000000E+00 0.  1.
         22    1    4    4    0    0 -0.13777307527E+02  0.20414102756E+02 -0.23068122769E+02  0.33744452612E+02  0.00000000000E+00 0.  1.
         22    1    4    4    0    0 -0.53773162626E+01  0.54214743787E+01 -0.67716436733E+01  0.10206031191E+02  0.00000000000E+00 0.  1.
<mgrwt>
<rscale>  0 0.96196419E+02</rscale>
<asrwt>0</asrwt>
<pdfrwt beam="2">  1        1 0.65119665E-02 0.96196419E+02</pdfrwt>
<pdfrwt beam="1">  1       -1 0.84085083E-02 0.96196419E+02</pdfrwt>
<totfact> 0.78567095E+04</totfact>
</mgrwt>
</event>
<event>
 7    1  0.3301067E-009  0.9251147E+02  0.7818608E-02  0.1296881E+00
         -1   -1    0    0    0  501 -0.00000000000E+00  0.00000000000E+00  0.19021009130E+03  0.19021009136E+03  0.50400000000E-02 0.  1.
          1   -1    0    0  501    0  0.00000000000E+00 -0.00000000000E+00 -0.11248576203E+02  0.11248577332E+02  0.50400000000E-02 0. -1.
         23    2    1    2    0    0  0.88817841970E-15  0.00000000000E+00  0.17896151510E+03  0.20145866870E+03  0.92511465817E+02 0.  0.
    9000005    2    3    3    0    0  0.58599617879E+01 -0.31766754252E+02  0.22064216604E+02  0.41270566449E+02  0.13151584421E+02 0.  0.
         22    1    3    3    0    0 -0.58599617879E+01  0.31766754252E+02  0.15689729849E+03  0.16018810225E+03  0.00000000000E+00 0.  1.
         22    1    4    4    0    0  0.42117389607E+01 -0.12440922016E+02  0.16505483267E+02  0.21093749395E+02  0.00000000000E+00 0. -1.
         22    1    4    4    0    0  0.16482228272E+01 -0.19325832236E+02  0.55587333376E+01  0.20176817054E+02  0.00000000000E+00 0. -1.
<mgrwt>
<rscale>  0 0.92511466E+02</rscale>
<asrwt>0</asrwt>
<pdfrwt beam="2">  1        1 0.17305504E-02 0.92511466E+02</pdfrwt>
<pdfrwt beam="1">  1       -1 0.29263088E-01 0.92511466E+02</pdfrwt>
<totfact> 0.67792731E+04</totfact>
</mgrwt>
</event>
<event>
 7    1  0.3301067E-009  0.9153898E+02  0.7818608E-02  0.1299167E+00
         -1   -1    0    0    0  501 -0.00000000000E+00  0.00000000000E+00  0.11664433585E+02  0.11664434674E+02  0.50400000000E-02 0.  1.
          1   -1    0    0  501    0  0.00000000000E+00 -0.00000000000E+00 -0.17959260792E+03  0.17959260799E+03  0.50400000000E-02 0. -1.
         23    2    1    2    0    0  0.00000000000E+00  0.35527136788E-14 -0.16792817433E+03  0.19125704266E+03  0.91538978765E+02 0.  0.
    9000005    2    3    3    0    0 -0.11031526431E+02  0.29704222973E+02 -0.18634417498E+02  0.38637708148E+02  0.11899392323E+02 0.  0.
         22    1    3    3    0    0  0.11031526431E+02 -0.29704222973E+02 -0.14929375683E+03  0.15261933451E+03  0.00000000000E+00 0. -1.
         22    1    4    4    0    0 -0.62155280766E+00  0.15178240033E+02 -0.12720751667E+02  0.19813702869E+02  0.00000000000E+00 0.  1.
         22    1    4    4    0    0 -0.10409973623E+02  0.14525982939E+02 -0.59136658301E+01  0.18824005279E+02  0.00000000000E+00 0.  1.
<mgrwt>
<rscale>  0 0.91538979E+02</rscale>
<asrwt>0</asrwt>
<pdfrwt beam="2">  1        1 0.27629630E-01 0.91538979E+02</pdfrwt>
<pdfrwt beam="1">  1       -1 0.17945285E-02 0.91538979E+02</pdfrwt>
<totfact> 0.11474575E+05</totfact>
</mgrwt>
</event>
<event>
 7    1  0.3301067E-009  0.7991024E+02  0.7818608E-02  0.1329306E+00
          1   -1    0    0  501    0  0.00000000000E+00  0.00000000000E+00  0.12690873392E+02  0.12690874392E+02  0.50400000000E-02 0. -1.
         -1   -1    0    0    0  501 -0.00000000000E+00 -0.00000000000E+00 -0.12579208282E+03  0.12579208292E+03  0.50400000000E-02 0.  1.
         23    2    1    2    0    0  0.00000000000E+00  0.71054273576E-14 -0.11310120943E+03  0.13848295731E+03  0.79910236465E+02 0.  0.
    9000005    2    3    3    0    0 -0.97586734985E+01  0.34073483579E+02 -0.32935926680E+02  0.50831907406E+02  0.15584400937E+02 0.  0.
         22    1    3    3    0    0  0.97586734985E+01 -0.34073483579E+02 -0.80165282746E+02  0.87651049905E+02  0.00000000000E+00 0.  1.
         22    1    4    4    0    0 -0.22170461986E+01  0.25109014832E+02 -0.29113083905E+02  0.38509084306E+02  0.00000000000E+00 0.  1.
         22    1    4    4    0    0 -0.75416272998E+01  0.89644687477E+01 -0.38228427749E+01  0.12322823099E+02  0.00000000000E+00 0.  1.
<mgrwt>
<rscale>  0 0.79910236E+02</rscale>
<asrwt>0</asrwt>
<pdfrwt beam="1">  1        1 0.19524422E-02 0.79910236E+02</pdfrwt>
<pdfrwt beam="2">  1       -1 0.19352627E-01 0.79910236E+02</pdfrwt>
<totfact> 0.10926399E+05</totfact>
</mgrwt>
</event>
<event>
 7    1  0.3301067E-009  0.8133560E+02  0.7818608E-02  0.1325303E+00
         -1   -1    0    0    0  501 -0.00000000000E+00  0.00000000000E+00  0.41244074820E+02  0.41244075128E+02  0.50400000000E-02 0.  1.
          1   -1    0    0  501    0  0.00000000000E+00 -0.00000000000E+00 -0.40099577276E+02  0.40099577593E+02  0.50400000000E-02 0. -1.
         23    2    1    2    0    0  0.00000000000E+00  0.00000000000E+00  0.11444975440E+01  0.81343652722E+02  0.81335600837E+02 0.  0.
    9000005    2    3    3    0    0 -0.34488611875E+02  0.18426750452E+02  0.10309530679E+02  0.41181390415E+02  0.77853074709E+01 0.  0.
         22    1    3    3    0    0  0.34488611875E+02 -0.18426750452E+02 -0.91650331349E+01  0.40162262307E+02  0.00000000000E+00 0. -1.
         22    1    4    4    0    0 -0.19302361429E+02  0.14484492306E+02  0.72307465909E+01  0.25192565776E+02  0.00000000000E+00 0.  1.
         22    1    4    4    0    0 -0.15186250445E+02  0.39422581464E+01  0.30787840880E+01  0.15988824639E+02  0.00000000000E+00 0.  1.
<mgrwt>
<rscale>  0 0.81335601E+02</rscale>
<asrwt>0</asrwt>
<pdfrwt beam="2">  1        1 0.61691658E-02 0.81335601E+02</pdfrwt>
<pdfrwt beam="1">  1       -1 0.63452423E-02 0.81335601E+02</pdfrwt>
<totfact> 0.12481564E+05</totfact>
</mgrwt>
</event>
<event>
 7    1  0.3301067E-009  0.9320327E+02  0.7818608E-02  0.1295275E+00
          1   -1    0    0  501    0  0.00000000000E+00  0.00000000000E+00  0.39736743779E+02  0.39736744098E+02  0.50400000000E-02 0. -1.
         -1   -1    0    0    0  501 -0.00000000000E+00 -0.00000000000E+00 -0.54652497036E+02  0.54652497268E+02  0.50400000000E-02 0.  1.
         23    2    1    2    0    0  0.00000000000E+00 -0.71054273576E-14 -0.14915753257E+02  0.94389241367E+02  0.93203268132E+02 0.  0.
    9000005    2    3    3    0    0  0.15336260903E+02 -0.32640524299E+02 -0.35951393725E+02  0.52638757599E+02  0.13331592770E+02 0.  0.
         22    1    3    3    0    0 -0.15336260903E+02  0.32640524299E+02  0.21035640468E+02  0.41750483768E+02  0.00000000000E+00 0. -1.
         22    1    4    4    0    0  0.92551621453E+01 -0.16430610671E+02 -0.27572952823E+02  0.33404950542E+02  0.00000000000E+00 0.  1.
         22    1    4    4    0    0  0.60810987575E+01 -0.16209913628E+02 -0.83784409015E+01  0.19233807056E+02  0.00000000000E+00 0.  1.
<mgrwt>
<rscale>  0 0.93203268E+02</rscale>
<asrwt>0</asrwt>
<pdfrwt beam="1">  1        1 0.61133453E-02 0.93203268E+02</pdfrwt>
<pdfrwt beam="2">  1       -1 0.84080765E-02 0.93203268E+02</pdfrwt>
<totfact> 0.85103003E+04</totfact>
</mgrwt>
</event>
<event>
 7    1  0.3301067E-009  0.9160209E+02  0.7818608E-02  0.1299018E+00
          1   -1    0    0  501    0  0.00000000000E+00  0.00000000000E+00  0.12594433085E+02  0.12594434093E+02  0.50400000000E-02 0. -1.
         -1   -1    0    0    0  501 -0.00000000000E+00 -0.00000000000E+00 -0.16656052670E+03  0.16656052678E+03  0.50400000000E-02 0.  1.
         23    2    1    2    0    0  0.00000000000E+00  0.17763568394E-14 -0.15396609362E+03  0.17915496087E+03  0.91602085245E+02 0.  0.
    9000005    2    3    3    0    0  0.30404572219E+02 -0.13212160815E+02 -0.13717567202E+03  0.14199426305E+03  0.15690970006E+02 0.  0.
         22    1    3    3    0    0 -0.30404572219E+02  0.13212160815E+02 -0.16790421598E+02  0.37160697822E+02  0.00000000000E+00 0. -1.
         22    1    4    4    0    0  0.20137616615E+02 -0.20652833155E+01 -0.96178746031E+02  0.98286012159E+02  0.00000000000E+00 0.  1.
         22    1    4    4    0    0  0.10266955604E+02 -0.11146877499E+02 -0.40996925988E+02  0.43708250890E+02  0.00000000000E+00 0.  1.
<mgrwt>
<rscale>  0 0.91602085E+02</rscale>
<asrwt>0</asrwt>
<pdfrwt beam="1">  1        1 0.19376053E-02 0.91602085E+02</pdfrwt>
<pdfrwt beam="2">  1       -1 0.25624695E-01 0.91602085E+02</pdfrwt>
<totfact> 0.72036572E+04</totfact>
</mgrwt>
</event>
<event>
 7    1  0.3301067E-009  0.8190696E+02  0.7818608E-02  0.1323725E+00
          1   -1    0    0  501    0  0.00000000000E+00  0.00000000000E+00  0.32826979056E+02  0.32826979443E+02  0.50400000000E-02 0. -1.
         -1   -1    0    0    0  501 -0.00000000000E+00 -0.00000000000E+00 -0.51091740139E+02  0.51091740387E+02  0.50400000000E-02 0.  1.
         23    2    1    2    0    0  0.00000000000E+00  0.00000000000E+00 -0.18264761082E+02  0.83918719830E+02  0.81906959659E+02 0.  0.
    9000005    2    3    3    0    0 -0.20687890504E+02 -0.18887775483E+02  0.19384337592E+02  0.36991206502E+02  0.14417348521E+02 0.  0.
         22    1    3    3    0    0  0.20687890504E+02  0.18887775483E+02 -0.37649098674E+02  0.46927513329E+02  0.00000000000E+00 0.  1.
         22    1    4    4    0    0 -0.21245546897E+02 -0.12028946324E+02  0.16819362131E+02  0.29647255440E+02  0.00000000000E+00 0.  1.
         22    1    4    4    0    0  0.55765639303E+00 -0.68588291585E+01  0.25649754605E+01  0.73439510613E+01  0.00000000000E+00 0.  1.
<mgrwt>
<rscale>  0 0.81906960E+02</rscale>
<asrwt>0</asrwt>
<pdfrwt beam="1">  1        1 0.50503045E-02 0.81906960E+02</pdfrwt>
<pdfrwt beam="2">  1       -1 0.78602678E-02 0.81906960E+02</pdfrwt>
<totfact> 0.11905599E+05</totfact>
</mgrwt>
</event>
<event>
 7    1  0.3301067E-009  0.9054048E+02  0.7818608E-02  0.1301548E+00
         -1   -1    0    0    0  501 -0.00000000000E+00  0.00000000000E+00  0.62283535802E+02  0.62283536006E+02  0.50400000000E-02 0. -1.
          1   -1    0    0  501    0  0.00000000000E+00 -0.00000000000E+00 -0.32904275041E+02  0.32904275427E+02  0.50400000000E-02 0.  1.
         23    2    1    2    0    0 -0.35527136788E-14  0.17763568394E-14  0.29379260761E+02  0.95187811433E+02  0.90540479801E+02 0.  0.
    9000005    2    3    3    0    0 -0.16014253087E+02  0.99381011620E+01 -0.28562778868E+02  0.34257506059E+02  0.15881524039E+01 0.  0.
         22    1    3    3    0    0  0.16014253087E+02 -0.99381011620E+01  0.57942039629E+02  0.60930305374E+02  0.00000000000E+00 0. -1.
         22    1    4    4    0    0 -0.33401541627E+01  0.17926298071E+01 -0.47229250137E+01  0.60560855460E+01  0.00000000000E+00 0.  1.
         22    1    4    4    0    0 -0.12674098924E+02  0.81454713549E+01 -0.23839853854E+02  0.28201420513E+02  0.00000000000E+00 0.  1.
<mgrwt>
<rscale>  0 0.90540480E+02</rscale>
<asrwt>0</asrwt>
<pdfrwt beam="2">  1        1 0.50621962E-02 0.90540480E+02</pdfrwt>
<pdfrwt beam="1">  1       -1 0.95820825E-02 0.90540480E+02</pdfrwt>
<totfact> 0.89744865E+04</totfact>
</mgrwt>
</event>
<event>
 7    1  0.3301067E-009  0.9041875E+02  0.7818608E-02  0.1301841E+00
         -1   -1    0    0    0  501 -0.00000000000E+00  0.00000000000E+00  0.50217451217E+01  0.50217476508E+01  0.50400000000E-02 0.  1.
          1   -1    0    0  501    0  0.00000000000E+00 -0.00000000000E+00 -0.40700730708E+03  0.40700730711E+03  0.50400000000E-02 0. -1.
         23    2    1    2    0    0  0.17763568394E-14 -0.35527136788E-14 -0.40198556196E+03  0.41202905476E+03  0.90418747752E+02 0.  0.
    9000005    2    3    3    0    0  0.11561427703E+02 -0.31417282186E+02 -0.33795338324E+03  0.33977372872E+03  0.10629452109E+02 0.  0.
         22    1    3    3    0    0 -0.11561427703E+02  0.31417282186E+02 -0.64032178716E+02  0.72255326043E+02  0.00000000000E+00 0.  1.
         22    1    4    4    0    0  0.71891752907E+01 -0.29469249612E+02 -0.29011750236E+03  0.29169896484E+03  0.00000000000E+00 0.  1.
         22    1    4    4    0    0  0.43722524126E+01 -0.19480325732E+01 -0.47835880883E+02  0.48074763878E+02  0.00000000000E+00 0.  1.
<mgrwt>
<rscale>  0 0.90418748E+02</rscale>
<asrwt>0</asrwt>
<pdfrwt beam="2">  1        1 0.62616483E-01 0.90418748E+02</pdfrwt>
<pdfrwt beam="1">  1       -1 0.77257669E-03 0.90418748E+02</pdfrwt>
<totfact> 0.13830224E+05</totfact>
</mgrwt>
</event>
<event>
 7    1  0.3301067E-009  0.9146370E+02  0.7818608E-02  0.1299345E+00
         -1   -1    0    0    0  501 -0.00000000000E+00  0.00000000000E+00  0.45607608295E+01  0.45607636143E+01  0.50400000000E-02 0.  1.
          1   -1    0    0  501    0  0.00000000000E+00 -0.00000000000E+00 -0.45856419405E+03  0.45856419408E+03  0.50400000000E-02 0. -1.
         23    2    1    2    0    0  0.00000000000E+00  0.00000000000E+00 -0.45400343322E+03  0.46312495769E+03  0.91463703519E+02 0.  0.
    9000005    2    3    3    0    0 -0.37423417649E+01 -0.12364722219E+02 -0.44882900648E+03  0.44920855839E+03  0.13189404685E+02 0.  0.
         22    1    3    3    0    0  0.37423417649E+01  0.12364722219E+02 -0.51744267411E+01  0.13916399302E+02  0.00000000000E+00 0.  1.
         22    1    4    4    0    0 -0.22597992809E+01  0.96940762317E+00 -0.20216861349E+03  0.20218356690E+03  0.00000000000E+00 0. -1.
         22    1    4    4    0    0 -0.14825424840E+01 -0.13334129842E+02 -0.24666039299E+03  0.24702499149E+03  0.00000000000E+00 0. -1.
<mgrwt>
<rscale>  0 0.91463704E+02</rscale>
<asrwt>0</asrwt>
<pdfrwt beam="2">  1        1 0.70548301E-01 0.91463704E+02</pdfrwt>
<pdfrwt beam="1">  1       -1 0.70165609E-03 0.91463704E+02</pdfrwt>
<totfact> 0.13657929E+05</totfact>
</mgrwt>
</event>
<event>
 7    1  0.3301067E-009  0.9290590E+02  0.7818608E-02  0.1295963E+00
         -1   -1    0    0    0  501 -0.00000000000E+00  0.00000000000E+00  0.33139957566E+01  0.33139995891E+01  0.50400000000E-02 0.  1.
          1   -1    0    0  501    0  0.00000000000E+00 -0.00000000000E+00 -0.65114001300E+03  0.65114001302E+03  0.50400000000E-02 0. -1.
         23    2    1    2    0    0  0.00000000000E+00  0.00000000000E+00 -0.64782601724E+03  0.65445401261E+03  0.92905898640E+02 0.  0.
    9000005    2    3    3    0    0  0.26369706562E+02 -0.36954247121E+02 -0.38509984674E+03  0.38783439879E+03  0.72561093285E+01 0.  0.
         22    1    3    3    0    0 -0.26369706562E+02  0.36954247121E+02 -0.26272617050E+03  0.26661961382E+03  0.00000000000E+00 0.  1.
         22    1    4    4    0    0  0.94183829175E+01 -0.17609731263E+02 -0.18993805798E+03  0.19098501104E+03  0.00000000000E+00 0.  1.
         22    1    4    4    0    0  0.16951323644E+02 -0.19344515858E+02 -0.19516178876E+03  0.19684938775E+03  0.00000000000E+00 0.  1.
<mgrwt>
<rscale>  0 0.92905899E+02</rscale>
<asrwt>0</asrwt>
<pdfrwt beam="2">  1        1 0.10017529E+00 0.92905899E+02</pdfrwt>
<pdfrwt beam="1">  1       -1 0.50984631E-03 0.92905899E+02</pdfrwt>
<totfact> 0.13519163E+05</totfact>
</mgrwt>
</event>
<event>
 7    1  0.3301067E-009  0.9254208E+02  0.7818608E-02  0.1296810E+00
          1   -1    0    0  501    0  0.00000000000E+00  0.00000000000E+00  0.65512492235E+02  0.65512492429E+02  0.50400000000E-02 0. -1.
         -1   -1    0    0    0  501 -0.00000000000E+00 -0.00000000000E+00 -0.32680932035E+02  0.32680932424E+02  0.50400000000E-02 0.  1.
         23    2    1    2    0    0  0.22204460493E-15  0.00000000000E+00  0.32831560200E+02  0.98193424853E+02  0.92542084152E+02 0.  0.
    9000005    2    3    3    0    0  0.14198619428E+01  0.19629415894E+02  0.59870179689E+02  0.64750683935E+02  0.14862122250E+02 0.  0.
         22    1    3    3    0    0 -0.14198619428E+01 -0.19629415894E+02 -0.27038619489E+02  0.33442740918E+02  0.00000000000E+00 0.  1.
         22    1    4    4    0    0 -0.37085889408E+01 -0.26902609324E+00  0.56151968606E+01  0.67347192038E+01  0.00000000000E+00 0. -1.
         22    1    4    4    0    0  0.51284508836E+01  0.19898441987E+02  0.54254982828E+02  0.58015964731E+02  0.00000000000E+00 0. -1.
<mgrwt>
<rscale>  0 0.92542084E+02</rscale>
<asrwt>0</asrwt>
<pdfrwt beam="1">  1        1 0.10078845E-01 0.92542084E+02</pdfrwt>
<pdfrwt beam="2">  1       -1 0.50278358E-02 0.92542084E+02</pdfrwt>
<totfact> 0.93728464E+04</totfact>
</mgrwt>
</event>
<event>
 7    1  0.3301067E-009  0.9049888E+02  0.7818608E-02  0.1301648E+00
          1   -1    0    0  501    0  0.00000000000E+00  0.00000000000E+00  0.63777162878E+03  0.63777162880E+03  0.50400000000E-02 0. -1.
         -1   -1    0    0    0  501 -0.00000000000E+00 -0.00000000000E+00 -0.32104130304E+01  0.32104169865E+01  0.50400000000E-02 0.  1.
         23    2    1    2    0    0  0.00000000000E+00  0.00000000000E+00  0.63456121575E+03  0.64098204578E+03  0.90498875611E+02 0.  0.
    9000005    2    3    3    0    0 -0.38479865164E+02  0.16752512959E+02  0.43371516071E+03  0.43579801975E+03  0.70517146336E+01 0.  0.
         22    1    3    3    0    0  0.38479865164E+02 -0.16752512959E+02  0.20084605504E+03  0.20518402603E+03  0.00000000000E+00 0.  1.
         22    1    4    4    0    0 -0.70058364042E+01  0.23363652559E+00  0.70138358550E+02  0.70487769647E+02  0.00000000000E+00 0. -1.
         22    1    4    4    0    0 -0.31474028760E+02  0.16518876433E+02  0.36357680216E+03  0.36531025010E+03  0.00000000000E+00 0. -1.
<mgrwt>
<rscale>  0 0.90498876E+02</rscale>
<asrwt>0</asrwt>
<pdfrwt beam="1">  1        1 0.98118718E-01 0.90498876E+02</pdfrwt>
<pdfrwt beam="2">  1       -1 0.49390997E-03 0.90498876E+02</pdfrwt>
<totfact> 0.14482984E+05</totfact>
</mgrwt>
</event>
<event>
 7    1  0.3301067E-009  0.9163209E+02  0.7818608E-02  0.1298947E+00
         -1   -1    0    0    0  501 -0.00000000000E+00  0.00000000000E+00  0.24163183503E+01  0.24163236066E+01  0.50400000000E-02 0.  1.
          1   -1    0    0  501    0  0.00000000000E+00 -0.00000000000E+00 -0.86872144735E+03  0.86872144737E+03  0.50400000000E-02 0. -1.
         23    2    1    2    0    0  0.00000000000E+00 -0.35527136788E-14 -0.86630512900E+03  0.87113777097E+03  0.91632087620E+02 0.  0.
    9000005    2    3    3    0    0 -0.70218310198E+01  0.21159253590E+02 -0.81256031693E+03  0.81295250697E+03  0.11852839479E+02 0.  0.
         22    1    3    3    0    0  0.70218310198E+01 -0.21159253590E+02 -0.53744812066E+02  0.58185264005E+02  0.00000000000E+00 0.  1.
         22    1    4    4    0    0 -0.82145353237E+01  0.76693011061E+01 -0.29229800214E+03  0.29251396347E+03  0.00000000000E+00 0.  1.
         22    1    4    4    0    0  0.11927043039E+01  0.13489952484E+02 -0.52026231480E+03  0.52043854350E+03  0.00000000000E+00 0.  1.
<mgrwt>
<rscale>  0 0.91632088E+02</rscale>
<asrwt>0</asrwt>
<pdfrwt beam="2">  1        1 0.13364920E+00 0.91632088E+02</pdfrwt>
<pdfrwt beam="1">  1       -1 0.37174238E-03 0.91632088E+02</pdfrwt>
<totfact> 0.13812938E+05</totfact>
</mgrwt>
</event>
<event>
 7    1  0.3301067E-009  0.9192986E+02  0.7818608E-02  0.1298244E+00
         -1   -1    0    0    0  501 -0.00000000000E+00  0.00000000000E+00  0.17620433193E+03  0.17620433200E+03  0.50400000000E-02 0.  1.
          1   -1    0    0  501    0  0.00000000000E+00 -0.00000000000E+00 -0.11990480857E+02  0.11990481916E+02  0.50400000000E-02 0. -1.
         23    2    1    2    0    0  0.00000000000E+00  0.00000000000E+00  0.16421385107E+03  0.18819481391E+03  0.91929859682E+02 0.  0.
    9000005    2    3    3    0    0 -0.23856059630E+02 -0.28916466353E+02  0.13470538542E+03  0.14048712950E+03  0.13631547469E+02 0.  0.
         22    1    3    3    0    0  0.23856059630E+02  0.28916466353E+02  0.29508465652E+02  0.47707684418E+02  0.00000000000E+00 0. -1.
         22    1    4    4    0    0 -0.14460745931E+02 -0.26496068270E+02  0.10149304871E+03  0.10588670239E+03  0.00000000000E+00 0.  1.
         22    1    4    4    0    0 -0.93953136988E+01 -0.24203980822E+01  0.33212336706E+02  0.34600427105E+02  0.00000000000E+00 0.  1.
<mgrwt>
<rscale>  0 0.91929860E+02</rscale>
<asrwt>0</asrwt>
<pdfrwt beam="2">  1        1 0.18446896E-02 0.91929860E+02</pdfrwt>
<pdfrwt beam="1">  1       -1 0.27108357E-01 0.91929860E+02</pdfrwt>
<totfact> 0.70348448E+04</totfact>
</mgrwt>
</event>
<event>
 6    1  0.3301067E-009  0.2014797E+03  0.7818608E-02  0.1148497E+00
          1   -1    0    0  501    0  0.00000000000E+00  0.00000000000E+00  0.72379475193E+03  0.72379475195E+03  0.50400000000E-02 0. -1.
         -1   -1    0    0    0  501 -0.00000000000E+00 -0.00000000000E+00 -0.14021265897E+02  0.14021266803E+02  0.50400000000E-02 0.  1.
    9000005    2    1    2    0    0 -0.48952141923E+02  0.38877875035E+02  0.64398334262E+03  0.64706281310E+03  0.82423997503E+01 0.  0.
         22    1    1    2    0    0  0.48952141923E+02 -0.38877875035E+02  0.65790143411E+02  0.90753205652E+02  0.00000000000E+00 0.  1.
         22    1    3    3    0    0 -0.21310894520E+02  0.20235140444E+02  0.33468089264E+03  0.33596862209E+03  0.00000000000E+00 0.  1.
         22    1    3    3    0    0 -0.27641247404E+02  0.18642734591E+02  0.30930244998E+03  0.31109419100E+03  0.00000000000E+00 0.  1.
<mgrwt>
<rscale>  0 0.20147972E+03</rscale>
<asrwt>0</asrwt>
<pdfrwt beam="1">  1        1 0.11135303E+00 0.20147972E+03</pdfrwt>
<pdfrwt beam="2">  1       -1 0.21571182E-02 0.20147972E+03</pdfrwt>
<totfact> 0.16103909E+04</totfact>
</mgrwt>
</event>
<event>
 7    1  0.3301067E-009  0.9110556E+02  0.7818608E-02  0.1300196E+00
          1   -1    0    0  501    0  0.00000000000E+00  0.00000000000E+00  0.71100515417E+02  0.71100515596E+02  0.50400000000E-02 0. -1.
         -1   -1    0    0    0  501 -0.00000000000E+00 -0.00000000000E+00 -0.29184818267E+02  0.29184818702E+02  0.50400000000E-02 0.  1.
         23    2    1    2    0    0  0.00000000000E+00 -0.17763568394E-14  0.41915697150E+02  0.10028533430E+03  0.91105557502E+02 0.  0.
    9000005    2    3    3    0    0  0.11577454861E+02  0.11931208353E+02  0.67108767559E+02  0.70101199550E+02  0.11584485367E+02 0.  0.
         22    1    3    3    0    0 -0.11577454861E+02 -0.11931208353E+02 -0.25193070409E+02  0.30184134748E+02  0.00000000000E+00 0.  1.
         22    1    4    4    0    0 -0.62536841530E+00  0.20919422867E+01  0.26218522018E+02  0.26309279827E+02  0.00000000000E+00 0. -1.
         22    1    4    4    0    0  0.12202823277E+02  0.98392660665E+01  0.40890245541E+02  0.43791919723E+02  0.00000000000E+00 0. -1.
<mgrwt>
<rscale>  0 0.91105558E+02</rscale>
<asrwt>0</asrwt>
<pdfrwt beam="1">  1        1 0.10938541E-01 0.91105558E+02</pdfrwt>
<pdfrwt beam="2">  1       -1 0.44899721E-02 0.91105558E+02</pdfrwt>
<totfact> 0.99118754E+04</totfact>
</mgrwt>
</event>
<event>
 7    1  0.3301067E-009  0.8720224E+02  0.7818608E-02  0.1309772E+00
          1   -1    0    0  501    0  0.00000000000E+00  0.00000000000E+00  0.17858675965E+03  0.17858675973E+03  0.50400000000E-02 0. -1.
         -1   -1    0    0    0  501 -0.00000000000E+00 -0.00000000000E+00 -0.10645009531E+02  0.10645010724E+02  0.50400000000E-02 0.  1.
         23    2    1    2    0    0  0.00000000000E+00 -0.44408920985E-15  0.16794175012E+03  0.18923177045E+03  0.87202244885E+02 0.  0.
    9000005    2    3    3    0    0 -0.31039593457E+02 -0.34677475033E+01  0.14953113564E+03  0.15297666929E+03  0.81743002848E+01 0.  0.
         22    1    3    3    0    0  0.31039593457E+02  0.34677475033E+01  0.18410614481E+02  0.36255101162E+02  0.00000000000E+00 0.  1.
         22    1    4    4    0    0 -0.14133688854E+02  0.11847268569E+01  0.52945834231E+02  0.54812645445E+02  0.00000000000E+00 0.  1.
         22    1    4    4    0    0 -0.16905904603E+02 -0.46524743602E+01  0.96585301412E+02  0.98164023843E+02  0.00000000000E+00 0.  1.
<mgrwt>
<rscale>  0 0.87202245E+02</rscale>
<asrwt>0</asrwt>
<pdfrwt beam="1">  1        1 0.27474887E-01 0.87202245E+02</pdfrwt>
<pdfrwt beam="2">  1       -1 0.16376938E-02 0.87202245E+02</pdfrwt>
<totfact> 0.13054482E+05</totfact>
</mgrwt>
</event>
<event>
 7    1  0.3301067E-009  0.9066006E+02  0.7818608E-02  0.1301261E+00
         -1   -1    0    0    0  501 -0.00000000000E+00  0.00000000000E+00  0.21294625403E+02  0.21294625999E+02  0.50400000000E-02 0.  1.
          1   -1    0    0  501    0  0.00000000000E+00 -0.00000000000E+00 -0.96494367466E+02  0.96494367598E+02  0.50400000000E-02 0. -1.
         23    2    1    2    0    0  0.00000000000E+00  0.00000000000E+00 -0.75199742063E+02  0.11778899360E+03  0.90660056289E+02 0.  0.
    9000005    2    3    3    0    0  0.97703487605E+01 -0.40218711118E+02 -0.15783009473E+02  0.45377996155E+02  0.98516347943E+01 0.  0.
         22    1    3    3    0    0 -0.97703487605E+01  0.40218711118E+02 -0.59416732591E+02  0.72410997443E+02  0.00000000000E+00 0. -1.
         22    1    4    4    0    0  0.96636157236E+01 -0.31069432893E+02 -0.15927859215E+02  0.36226948923E+02  0.00000000000E+00 0. -1.
         22    1    4    4    0    0  0.10673303692E+00 -0.91492782252E+01  0.14484974221E+00  0.91510472314E+01  0.00000000000E+00 0. -1.
<mgrwt>
<rscale>  0 0.90660056E+02</rscale>
<asrwt>0</asrwt>
<pdfrwt beam="2">  1        1 0.14845287E-01 0.90660056E+02</pdfrwt>
<pdfrwt beam="1">  1       -1 0.32760963E-02 0.90660056E+02</pdfrwt>
<totfact> 0.10545835E+05</totfact>
</mgrwt>
</event>
<event>
 7    1  0.3301067E-009  0.9736341E+02  0.7818608E-02  0.1285940E+00
         -1   -1    0    0    0  501 -0.00000000000E+00  0.00000000000E+00  0.64729644585E+01  0.64729664206E+01  0.50400000000E-02 0.  1.
          1   -1    0    0  501    0  0.00000000000E+00 -0.00000000000E+00 -0.36612402666E+03  0.36612402669E+03  0.50400000000E-02 0. -1.
         23    2    1    2    0    0  0.88817841970E-15  0.17763568394E-14 -0.35965106220E+03  0.37259699311E+03  0.97363405527E+02 0.  0.
    9000005    2    3    3    0    0  0.62053936341E+01  0.13106600603E+02 -0.35735413088E+03  0.35791483445E+03  0.13811733193E+02 0.  0.
         22    1    3    3    0    0 -0.62053936341E+01 -0.13106600603E+02 -0.22969313208E+01  0.14682158663E+02  0.00000000000E+00 0.  1.
         22    1    4    4    0    0  0.11732317765E+01 -0.18893313062E+01 -0.12644873685E+03  0.12646829285E+03  0.00000000000E+00 0. -1.
         22    1    4    4    0    0  0.50321618577E+01  0.14995931909E+02 -0.23090539403E+03  0.23144654160E+03  0.00000000000E+00 0. -1.
<mgrwt>
<rscale>  0 0.97363406E+02</rscale>
<asrwt>0</asrwt>
<pdfrwt beam="2">  1        1 0.56326757E-01 0.97363406E+02</pdfrwt>
<pdfrwt beam="1">  1       -1 0.99584113E-03 0.97363406E+02</pdfrwt>
<totfact> 0.11153374E+05</totfact>
</mgrwt>
</event>
<event>
 7    1  0.3301067E-009  0.8955540E+02  0.7818608E-02  0.1303932E+00
          1   -1    0    0  501    0  0.00000000000E+00  0.00000000000E+00  0.10223715445E+04  0.10223715445E+04  0.50400000000E-02 0. -1.
         -1   -1    0    0    0  501 -0.00000000000E+00 -0.00000000000E+00 -0.19611646084E+01  0.19611710845E+01  0.50400000000E-02 0.  1.
         23    2    1    2    0    0  0.00000000000E+00  0.00000000000E+00  0.10204103799E+04  0.10243327156E+04  0.89555395437E+02 0.  0.
    9000005    2    3    3    0    0 -0.16188171356E+02 -0.20699786728E+02  0.92258234697E+03  0.92303680212E+03  0.12174278657E+02 0.  0.
         22    1    3    3    0    0  0.16188171356E+02  0.20699786728E+02  0.97828032948E+02  0.10129591351E+03  0.00000000000E+00 0.  1.
         22    1    4    4    0    0 -0.34045297299E+01 -0.67498205521E+01  0.46769689032E+03  0.46775798456E+03  0.00000000000E+00 0.  1.
         22    1    4    4    0    0 -0.12783641626E+02 -0.13949966176E+02  0.45488545664E+03  0.45527881756E+03  0.00000000000E+00 0.  1.
<mgrwt>
<rscale>  0 0.89555395E+02</rscale>
<asrwt>0</asrwt>
<pdfrwt beam="1">  1        1 0.15728818E+00 0.89555395E+02</pdfrwt>
<pdfrwt beam="2">  1       -1 0.30171765E-03 0.89555395E+02</pdfrwt>
<totfact> 0.14174691E+05</totfact>
</mgrwt>
</event>
<event>
 7    1  0.3301067E-009  0.8974859E+02  0.7818608E-02  0.1303462E+00
          1   -1    0    0  501    0  0.00000000000E+00  0.00000000000E+00  0.30300087357E+02  0.30300087776E+02  0.50400000000E-02 0. -1.
         -1   -1    0    0    0  501 -0.00000000000E+00 -0.00000000000E+00 -0.66458624092E+02  0.66458624283E+02  0.50400000000E-02 0.  1.
         23    2    1    2    0    0  0.00000000000E+00  0.00000000000E+00 -0.36158536735E+02  0.96758712060E+02  0.89748585396E+02 0.  0.
    9000005    2    3    3    0    0 -0.92077731093E+01  0.14300241543E+02 -0.62782118947E+02  0.65166068555E+02  0.39676236831E+01 0.  0.
         22    1    3    3    0    0  0.92077731093E+01 -0.14300241543E+02  0.26623582212E+02  0.31592643505E+02  0.00000000000E+00 0. -1.
         22    1    4    4    0    0 -0.62483178354E+01  0.77568046717E+01 -0.30136137887E+02  0.31739506946E+02  0.00000000000E+00 0.  1.
         22    1    4    4    0    0 -0.29594552739E+01  0.65434368712E+01 -0.32645981060E+02  0.33426561609E+02  0.00000000000E+00 0.  1.
<mgrwt>
<rscale>  0 0.89748585E+02</rscale>
<asrwt>0</asrwt>
<pdfrwt beam="1">  1        1 0.46615520E-02 0.89748585E+02</pdfrwt>
<pdfrwt beam="2">  1       -1 0.10224404E-01 0.89748585E+02</pdfrwt>
<totfact> 0.90837895E+04</totfact>
</mgrwt>
</event>
<event>
 6    1  0.3388750E-009  0.2123422E+03  0.7818608E-02  0.1139725E+00
          1   -1    0    0  501    0  0.00000000000E+00  0.00000000000E+00  0.12357602988E+03  0.12357602999E+03  0.50400000000E-02 0. -1.
         -1   -1    0    0    0  501 -0.00000000000E+00 -0.00000000000E+00 -0.91217569191E+02  0.91217569331E+02  0.50400000000E-02 0.  1.
    9000005    2    1    2    0    0  0.62124108407E+02  0.36646410410E+02 -0.61834737022E+02  0.96156662670E+02  0.14839300247E+02 0.  0.
         22    1    1    2    0    0 -0.62124108407E+02 -0.36646410410E+02  0.94193197714E+02  0.11863693665E+03  0.00000000000E+00 0.  1.
         22    1    3    3    0    0  0.53737958735E+02  0.31399271357E+02 -0.45640092216E+02  0.77179663567E+02  0.00000000000E+00 0. -1.
         22    1    3    3    0    0  0.83861496725E+01  0.52471390528E+01 -0.16194644806E+02  0.18976999103E+02  0.00000000000E+00 0. -1.
<mgrwt>
<rscale>  0 0.21234222E+03</rscale>
<asrwt>0</asrwt>
<pdfrwt beam="1">  1        1 0.19011697E-01 0.21234222E+03</pdfrwt>
<pdfrwt beam="2">  1       -1 0.14033472E-01 0.21234222E+03</pdfrwt>
<totfact> 0.94915852E+03</totfact>
</mgrwt>
</event>
<event>
 7    1  0.3301067E-009  0.9354849E+02  0.7818608E-02  0.1294479E+00
         -1   -1    0    0    0  501 -0.00000000000E+00  0.00000000000E+00  0.36453721922E+02  0.36453722270E+02  0.50400000000E-02 0.  1.
          1   -1    0    0  501    0  0.00000000000E+00 -0.00000000000E+00 -0.60016636874E+02  0.60016637085E+02  0.50400000000E-02 0. -1.
         23    2    1    2    0    0  0.35527136788E-14  0.00000000000E+00 -0.23562914952E+02  0.96470359355E+02  0.93548486215E+02 0.  0.
    9000005    2    3    3    0    0  0.22742743035E+02 -0.39336139927E+02 -0.54879423470E+01  0.47569757112E+02  0.12969194864E+02 0.  0.
         22    1    3    3    0    0 -0.22742743035E+02  0.39336139927E+02 -0.18074972605E+02  0.48900602243E+02  0.00000000000E+00 0. -1.
         22    1    4    4    0    0 -0.23428375502E+00  0.75089447482E+00  0.56690397179E+00  0.96959347328E+00  0.00000000000E+00 0.  1.
         22    1    4    4    0    0  0.22977026790E+02 -0.40087034402E+02 -0.60548463188E+01  0.46600163639E+02  0.00000000000E+00 0.  1.
<mgrwt>
<rscale>  0 0.93548486E+02</rscale>
<asrwt>0</asrwt>
<pdfrwt beam="2">  1        1 0.92333288E-02 0.93548486E+02</pdfrwt>
<pdfrwt beam="1">  1       -1 0.56082649E-02 0.93548486E+02</pdfrwt>
<totfact> 0.89731239E+04</totfact>
</mgrwt>
</event>
<event>
 7    1  0.3301067E-009  0.9222693E+02  0.7818608E-02  0.1297547E+00
         -1   -1    0    0    0  501 -0.00000000000E+00  0.00000000000E+00  0.83331834712E+02  0.83331834865E+02  0.50400000000E-02 0.  1.
          1   -1    0    0  501    0  0.00000000000E+00 -0.00000000000E+00 -0.25517877593E+02  0.25517878091E+02  0.50400000000E-02 0. -1.
         23    2    1    2    0    0  0.71054273576E-14  0.00000000000E+00  0.57813957119E+02  0.10884971296E+03  0.92226928675E+02 0.  0.
    9000005    2    3    3    0    0 -0.35318256785E+02  0.22525523987E+02  0.97769572704E+01  0.45113288145E+02  0.13595638293E+02 0.  0.
         22    1    3    3    0    0  0.35318256785E+02 -0.22525523987E+02  0.48036999849E+02  0.63736424811E+02  0.00000000000E+00 0.  1.
         22    1    4    4    0    0 -0.28436649184E+02  0.16091383811E+02  0.12987394148E+02  0.35160319346E+02  0.00000000000E+00 0.  1.
         22    1    4    4    0    0 -0.68816076011E+01  0.64341401758E+01 -0.32104368772E+01  0.99529687993E+01  0.00000000000E+00 0.  1.
<mgrwt>
<rscale>  0 0.92226929E+02</rscale>
<asrwt>0</asrwt>
<pdfrwt beam="2">  1        1 0.39258273E-02 0.92226929E+02</pdfrwt>
<pdfrwt beam="1">  1       -1 0.12820283E-01 0.92226929E+02</pdfrwt>
<totfact> 0.81630132E+04</totfact>
</mgrwt>
</event>
<event>
 7    1  0.3301067E-009  0.9309537E+02  0.7818608E-02  0.1295524E+00
         -1   -1    0    0    0  501 -0.00000000000E+00  0.00000000000E+00  0.51585725236E+01  0.51585749857E+01  0.50400000000E-02 0.  1.
          1   -1    0    0  501    0  0.00000000000E+00 -0.00000000000E+00 -0.42001666773E+03  0.42001666776E+03  0.50400000000E-02 0. -1.
         23    2    1    2    0    0  0.00000000000E+00  0.00000000000E+00 -0.41485809520E+03  0.42517524274E+03  0.93095369841E+02 0.  0.
    9000005    2    3    3    0    0  0.16642240999E+02 -0.40321090375E+02 -0.26870722308E+03  0.27265366415E+03  0.15287063933E+02 0.  0.
         22    1    3    3    0    0 -0.16642240999E+02  0.40321090375E+02 -0.14615087213E+03  0.15252157860E+03  0.00000000000E+00 0.  1.
         22    1    4    4    0    0  0.21011254400E+01 -0.22575735442E+02 -0.11157446001E+03  0.11385490189E+03  0.00000000000E+00 0.  1.
         22    1    4    4    0    0  0.14541115559E+02 -0.17745354934E+02 -0.15713276307E+03  0.15879876226E+03  0.00000000000E+00 0.  1.
<mgrwt>
<rscale>  0 0.93095370E+02</rscale>
<asrwt>0</asrwt>
<pdfrwt beam="2">  1        1 0.64617922E-01 0.93095370E+02</pdfrwt>
<pdfrwt beam="1">  1       -1 0.79362706E-03 0.93095370E+02</pdfrwt>
<totfact> 0.12862857E+05</totfact>
</mgrwt>
</event>
<event>
 7    1  0.3301067E-009  0.9113839E+02  0.7818608E-02  0.1300118E+00
          1   -1    0    0  501    0  0.00000000000E+00  0.00000000000E+00  0.72040843795E+03  0.72040843797E+03  0.50400000000E-02 0. -1.
         -1   -1    0    0    0  501 -0.00000000000E+00 -0.00000000000E+00 -0.28824618450E+01  0.28824662512E+01  0.50400000000E-02 0.  1.
         23    2    1    2    0    0  0.88817841970E-15  0.00000000000E+00  0.71752597611E+03  0.72329090422E+03  0.91138387852E+02 0.  0.
    9000005    2    3    3    0    0 -0.58547681372E+01  0.14120185634E+02  0.69941960266E+03  0.69959494018E+03  0.34120074776E+01 0.  0.
         22    1    3    3    0    0  0.58547681372E+01 -0.14120185634E+02  0.18106373454E+02  0.23695964043E+02  0.00000000000E+00 0.  1.
         22    1    4    4    0    0 -0.91490792530E+00  0.90591450168E+00  0.10529557955E+03  0.10530345108E+03  0.00000000000E+00 0. -1.
         22    1    4    4    0    0 -0.49398602119E+01  0.13214271132E+02  0.59412402311E+03  0.59429148910E+03  0.00000000000E+00 0. -1.
<mgrwt>
<rscale>  0 0.91138388E+02</rscale>
<asrwt>0</asrwt>
<pdfrwt beam="1">  1        1 0.11083217E+00 0.91138388E+02</pdfrwt>
<pdfrwt beam="2">  1       -1 0.44345561E-03 0.91138388E+02</pdfrwt>
<totfact> 0.14226626E+05</totfact>
</mgrwt>
</event>
<event>
 7    1  0.3301067E-009  0.8953176E+02  0.7818608E-02  0.1303990E+00
          1   -1    0    0  501    0  0.00000000000E+00  0.00000000000E+00  0.73758381306E+02  0.73758381479E+02  0.50400000000E-02 0. -1.
         -1   -1    0    0    0  501 -0.00000000000E+00 -0.00000000000E+00 -0.27169576867E+02  0.27169577335E+02  0.50400000000E-02 0.  1.
         23    2    1    2    0    0  0.00000000000E+00  0.00000000000E+00  0.46588804439E+02  0.10092795881E+03  0.89531760684E+02 0.  0.
    9000005    2    3    3    0    0 -0.15300416365E+01 -0.25202068073E+02  0.64849532550E+02  0.69768057438E+02  0.49633359907E+01 0.  0.
         22    1    3    3    0    0  0.15300416365E+01  0.25202068073E+02 -0.18260728111E+02  0.31159901375E+02  0.00000000000E+00 0.  1.
         22    1    4    4    0    0 -0.28851863250E+01 -0.22654111431E+02  0.58129120689E+02  0.62454205118E+02  0.00000000000E+00 0. -1.
         22    1    4    4    0    0  0.13551446885E+01 -0.25479566422E+01  0.67204118610E+01  0.73138523200E+01  0.00000000000E+00 0. -1.
<mgrwt>
<rscale>  0 0.89531761E+02</rscale>
<asrwt>0</asrwt>
<pdfrwt beam="1">  1        1 0.11347443E-01 0.89531761E+02</pdfrwt>
<pdfrwt beam="2">  1       -1 0.41799349E-02 0.89531761E+02</pdfrwt>
<totfact> 0.10457147E+05</totfact>
</mgrwt>
</event>
<event>
 7    1  0.3301067E-009  0.9118895E+02  0.7818608E-02  0.1299998E+00
         -1   -1    0    0    0  501 -0.00000000000E+00  0.00000000000E+00  0.31239332757E+03  0.31239332761E+03  0.50400000000E-02 0.  1.
          1   -1    0    0  501    0  0.00000000000E+00 -0.00000000000E+00 -0.66546108475E+01  0.66546127561E+01  0.50400000000E-02 0. -1.
         23    2    1    2    0    0 -0.44408920985E-15  0.00000000000E+00  0.30573871672E+03  0.31904794037E+03  0.91188954096E+02 0.  0.
    9000005    2    3    3    0    0  0.29119319059E+01  0.40367024054E+02  0.22405845623E+03  0.22789070844E+03  0.96957313768E+01 0.  0.
         22    1    3    3    0    0 -0.29119319059E+01 -0.40367024054E+02  0.81680260494E+02  0.91157231927E+02  0.00000000000E+00 0. -1.
         22    1    4    4    0    0  0.59225815514E+01  0.16517054084E+02  0.90217281474E+02  0.91907822978E+02  0.00000000000E+00 0.  1.
         22    1    4    4    0    0 -0.30106496455E+01  0.23849969970E+02  0.13384117475E+03  0.13598288546E+03  0.00000000000E+00 0.  1.
<mgrwt>
<rscale>  0 0.91188954E+02</rscale>
<asrwt>0</asrwt>
<pdfrwt beam="2">  1        1 0.10237865E-02 0.91188954E+02</pdfrwt>
<pdfrwt beam="1">  1       -1 0.48060507E-01 0.91188954E+02</pdfrwt>
<totfact> 0.59591667E+04</totfact>
</mgrwt>
</event>
<event>
 7    1  0.3301067E-009  0.9063275E+02  0.7818608E-02  0.1301327E+00
          1   -1    0    0  501    0  0.00000000000E+00  0.00000000000E+00  0.94751718800E+01  0.94751732205E+01  0.50400000000E-02 0. -1.
         -1   -1    0    0    0  501 -0.00000000000E+00 -0.00000000000E+00 -0.21673206608E+03  0.21673206614E+03  0.50400000000E-02 0.  1.
         23    2    1    2    0    0  0.00000000000E+00  0.17763568394E-14 -0.20725689420E+03  0.22620723936E+03  0.90632747641E+02 0.  0.
    9000005    2    3    3    0    0 -0.37024647112E+02 -0.11663204591E+02 -0.47653109253E+02  0.61950662613E+02  0.77595709662E+01 0.  0.
         22    1    3    3    0    0  0.37024647112E+02  0.11663204591E+02 -0.15960378494E+03  0.16425657674E+03  0.00000000000E+00 0.  1.
         22    1    4    4    0    0 -0.18162000240E+02 -0.23065644891E+01 -0.18910178465E+02  0.26320587798E+02  0.00000000000E+00 0. -1.
         22    1    4    4    0    0 -0.18862646872E+02 -0.93566401020E+01 -0.28742930788E+02  0.35630074815E+02  0.00000000000E+00 0. -1.
<mgrwt>
<rscale>  0 0.90632748E+02</rscale>
<asrwt>0</asrwt>
<pdfrwt beam="1">  1        1 0.14577190E-02 0.90632748E+02</pdfrwt>
<pdfrwt beam="2">  1       -1 0.33343391E-01 0.90632748E+02</pdfrwt>
<totfact> 0.68866173E+04</totfact>
</mgrwt>
</event>
<event>
 7    1  0.3301067E-009  0.1191865E+03  0.7818608E-02  0.1244445E+00
          1   -1    0    0  501    0  0.00000000000E+00  0.00000000000E+00  0.87597319374E+03  0.87597319375E+03  0.50400000000E-02 0. -1.
         -1   -1    0    0    0  501 -0.00000000000E+00 -0.00000000000E+00 -0.40541842861E+01  0.40541874188E+01  0.50400000000E-02 0.  1.
         23    2    1    2    0    0  0.88817841970E-15 -0.17763568394E-14  0.87191900945E+03  0.88002738117E+03  0.11918654525E+03 0.  0.
    9000005    2    3    3    0    0 -0.63118276034E+01  0.99486525365E+01  0.86710076964E+03  0.86729826927E+03  0.14273342672E+02 0.  0.
         22    1    3    3    0    0  0.63118276034E+01 -0.99486525365E+01  0.48182398145E+01  0.12729111905E+02  0.00000000000E+00 0.  1.
         22    1    4    4    0    0 -0.20257094346E+01 -0.25870067346E-01  0.56320432707E+03  0.56320797065E+03  0.00000000000E+00 0. -1.
         22    1    4    4    0    0 -0.42861181688E+01  0.99745226039E+01  0.30389644256E+03  0.30409029862E+03  0.00000000000E+00 0. -1.
<mgrwt>
<rscale>  0 0.11918655E+03</rscale>
<asrwt>0</asrwt>
<pdfrwt beam="1">  1        1 0.13476521E+00 0.11918655E+03</pdfrwt>
<pdfrwt beam="2">  1       -1 0.62372042E-03 0.11918655E+03</pdfrwt>
<totfact> 0.68234915E+04</totfact>
</mgrwt>
</event>
<event>
 7    1  0.3301067E-009  0.9409271E+02  0.7818608E-02  0.1293233E+00
         -1   -1    0    0    0  501 -0.00000000000E+00  0.00000000000E+00  0.42977154803E+01  0.42977184355E+01  0.50400000000E-02 0.  1.
          1   -1    0    0  501    0  0.00000000000E+00 -0.00000000000E+00 -0.51500817350E+03  0.51500817352E+03  0.50400000000E-02 0. -1.
         23    2    1    2    0    0  0.00000000000E+00  0.27755575616E-16 -0.51071045802E+03  0.51930589196E+03  0.94092706911E+02 0.  0.
    9000005    2    3    3    0    0 -0.45496911301E+02  0.13538834509E+00 -0.29944380779E+03  0.30319577011E+03  0.13823665186E+02 0.  0.
         22    1    3    3    0    0  0.45496911301E+02 -0.13538834509E+00 -0.21126665022E+03  0.21611012185E+03  0.00000000000E+00 0.  1.
         22    1    4    4    0    0 -0.25584294279E+02  0.18409198296E+01 -0.20912465191E+03  0.21069187250E+03  0.00000000000E+00 0. -1.
         22    1    4    4    0    0 -0.19912617022E+02 -0.17055314846E+01 -0.90319155884E+02  0.92503897615E+02  0.00000000000E+00 0. -1.
<mgrwt>
<rscale>  0 0.94092707E+02</rscale>
<asrwt>0</asrwt>
<pdfrwt beam="2">  1        1 0.79231978E-01 0.94092707E+02</pdfrwt>
<pdfrwt beam="1">  1       -1 0.66118764E-03 0.94092707E+02</pdfrwt>
<totfact> 0.12853435E+05</totfact>
</mgrwt>
</event>
<event>
 7    1  0.3301067E-009  0.9317767E+02  0.7818608E-02  0.1295334E+00
         -1   -1    0    0    0  501 -0.00000000000E+00  0.00000000000E+00  0.84260891520E+01  0.84260906593E+01  0.50400000000E-02 0.  1.
          1   -1    0    0  501    0  0.00000000000E+00 -0.00000000000E+00 -0.25759509938E+03  0.25759509943E+03  0.50400000000E-02 0. -1.
         23    2    1    2    0    0  0.35527136788E-14  0.00000000000E+00 -0.24916901023E+03  0.26602119009E+03  0.93177668560E+02 0.  0.
    9000005    2    3    3    0    0 -0.19301780290E+02  0.11324414850E+02 -0.24050617346E+03  0.24202440208E+03  0.15224671884E+02 0.  0.
         22    1    3    3    0    0  0.19301780290E+02 -0.11324414850E+02 -0.86628367690E+01  0.23996788013E+02  0.00000000000E+00 0.  1.
         22    1    4    4    0    0 -0.19168304455E+02  0.61834126969E+01 -0.21845372795E+03  0.21938024009E+03  0.00000000000E+00 0.  1.
         22    1    4    4    0    0 -0.13347583521E+00  0.51410021532E+01 -0.22052445517E+02  0.22644161990E+02  0.00000000000E+00 0.  1.
<mgrwt>
<rscale>  0 0.93177669E+02</rscale>
<asrwt>0</asrwt>
<pdfrwt beam="2">  1        1 0.39630009E-01 0.93177669E+02</pdfrwt>
<pdfrwt beam="1">  1       -1 0.12963217E-02 0.93177669E+02</pdfrwt>
<totfact> 0.11737544E+05</totfact>
</mgrwt>
</event>
<event>
 7    1  0.3301067E-009  0.9691303E+02  0.7818608E-02  0.1286925E+00
         -1   -1    0    0    0  501 -0.00000000000E+00  0.00000000000E+00  0.76325650277E+01  0.76325666918E+01  0.50400000000E-02 0.  1.
          1   -1    0    0  501    0  0.00000000000E+00 -0.00000000000E+00 -0.30763363634E+03  0.30763363638E+03  0.50400000000E-02 0. -1.
         23    2    1    2    0    0  0.00000000000E+00  0.71054273576E-14 -0.30000107131E+03  0.31526620307E+03  0.96913033239E+02 0.  0.
    9000005    2    3    3    0    0 -0.11465260740E+02 -0.41654675415E+02 -0.22101315709E+03  0.22523479310E+03  0.41631994918E+01 0.  0.
         22    1    3    3    0    0  0.11465260740E+02  0.41654675415E+02 -0.78987914220E+02  0.90031409967E+02  0.00000000000E+00 0.  1.
         22    1    4    4    0    0 -0.17193895148E+01 -0.59702680644E+01 -0.40111690542E+02  0.40590000237E+02  0.00000000000E+00 0. -1.
         22    1    4    4    0    0 -0.97458712254E+01 -0.35684407350E+02 -0.18090146655E+03  0.18464479287E+03  0.00000000000E+00 0. -1.
<mgrwt>
<rscale>  0 0.96913033E+02</rscale>
<asrwt>0</asrwt>
<pdfrwt beam="2">  1        1 0.47328242E-01 0.96913033E+02</pdfrwt>
<pdfrwt beam="1">  1       -1 0.11742411E-02 0.96913033E+02</pdfrwt>
<totfact> 0.10935983E+05</totfact>
</mgrwt>
</event>
<event>
 7    1  0.3301067E-009  0.9059632E+02  0.7818608E-02  0.1301414E+00
          1   -1    0    0  501    0  0.00000000000E+00  0.00000000000E+00  0.44421172152E+01  0.44421200744E+01  0.50400000000E-02 0. -1.
         -1   -1    0    0    0  501 -0.00000000000E+00 -0.00000000000E+00 -0.46192444224E+03  0.46192444227E+03  0.50400000000E-02 0.  1.
         23    2    1    2    0    0  0.00000000000E+00  0.00000000000E+00 -0.45748232503E+03  0.46636656235E+03  0.90596317588E+02 0.  0.
    9000005    2    3    3    0    0  0.26205559564E+02 -0.35540799684E+02 -0.22389579469E+03  0.22864288463E+03  0.14084105040E+02 0.  0.
         22    1    3    3    0    0 -0.26205559564E+02  0.35540799684E+02 -0.23358653033E+03  0.23772367772E+03  0.00000000000E+00 0. -1.
         22    1    4    4    0    0  0.13619004447E+02 -0.15291897759E+02 -0.13755048889E+03  0.13906637413E+03  0.00000000000E+00 0.  1.
         22    1    4    4    0    0  0.12586555117E+02 -0.20248901924E+02 -0.86345305805E+02  0.89576510501E+02  0.00000000000E+00 0.  1.
<mgrwt>
<rscale>  0 0.90596318E+02</rscale>
<asrwt>0</asrwt>
<pdfrwt beam="1">  1        1 0.68340324E-03 0.90596318E+02</pdfrwt>
<pdfrwt beam="2">  1       -1 0.71065261E-01 0.90596318E+02</pdfrwt>
<totfact> 0.50145871E+04</totfact>
</mgrwt>
</event>
<event>
 7    1  0.3301067E-009  0.8447680E+02  0.7818608E-02  0.1316806E+00
          1   -1    0    0  501    0  0.00000000000E+00  0.00000000000E+00  0.89982008268E+02  0.89982008409E+02  0.50400000000E-02 0. -1.
         -1   -1    0    0    0  501 -0.00000000000E+00 -0.00000000000E+00 -0.19827101503E+02  0.19827102144E+02  0.50400000000E-02 0.  1.
         23    2    1    2    0    0 -0.71054273576E-14  0.00000000000E+00  0.70154906765E+02  0.10980911055E+03  0.84476800468E+02 0.  0.
    9000005    2    3    3    0    0 -0.39646266223E+02 -0.55290111102E+01  0.47783568345E+02  0.63952015443E+02  0.14289663613E+02 0.  0.
         22    1    3    3    0    0  0.39646266223E+02  0.55290111102E+01  0.22371338420E+02  0.45857095111E+02  0.00000000000E+00 0. -1.
         22    1    4    4    0    0 -0.40480310123E+02 -0.66955213315E+01  0.46630621684E+02  0.62111998778E+02  0.00000000000E+00 0. -1.
         22    1    4    4    0    0  0.83404390038E+00  0.11665102212E+01  0.11529466601E+01  0.18400166643E+01  0.00000000000E+00 0. -1.
<mgrwt>
<rscale>  0 0.84476800E+02</rscale>
<asrwt>0</asrwt>
<pdfrwt beam="1">  1        1 0.13843386E-01 0.84476800E+02</pdfrwt>
<pdfrwt beam="2">  1       -1 0.30503233E-02 0.84476800E+02</pdfrwt>
<totfact> 0.12633129E+05</totfact>
</mgrwt>
</event>
<event>
 7    1  0.3301067E-009  0.9074204E+02  0.7818608E-02  0.1301065E+00
         -1   -1    0    0    0  501 -0.00000000000E+00  0.00000000000E+00  0.19491993253E+02  0.19491993905E+02  0.50400000000E-02 0.  1.
          1   -1    0    0  501    0  0.00000000000E+00 -0.00000000000E+00 -0.10560897973E+03  0.10560897985E+03  0.50400000000E-02 0. -1.
         23    2    1    2    0    0  0.00000000000E+00 -0.71054273576E-14 -0.86116986477E+02  0.12510097376E+03  0.90742042487E+02 0.  0.
    9000005    2    3    3    0    0  0.21338457128E+02  0.38416403698E+02 -0.34270337068E+02  0.57136093997E+02  0.12606641453E+02 0.  0.
         22    1    3    3    0    0 -0.21338457128E+02 -0.38416403698E+02 -0.51846649408E+02  0.67964879758E+02  0.00000000000E+00 0. -1.
         22    1    4    4    0    0  0.10764184634E+02  0.30956152061E+02 -0.24323134497E+02  0.40813795376E+02  0.00000000000E+00 0.  1.
         22    1    4    4    0    0  0.10574272494E+02  0.74602516373E+01 -0.99472025715E+01  0.16322298621E+02  0.00000000000E+00 0.  1.
<mgrwt>
<rscale>  0 0.90742042E+02</rscale>
<asrwt>0</asrwt>
<pdfrwt beam="2">  1        1 0.16247535E-01 0.90742042E+02</pdfrwt>
<pdfrwt beam="1">  1       -1 0.29987683E-02 0.90742042E+02</pdfrwt>
<totfact> 0.10678972E+05</totfact>
</mgrwt>
</event>
<event>
 7    1  0.3301067E-009  0.9046573E+02  0.7818608E-02  0.1301728E+00
          1   -1    0    0  501    0  0.00000000000E+00  0.00000000000E+00  0.16591195271E+03  0.16591195279E+03  0.50400000000E-02 0. -1.
         -1   -1    0    0    0  501 -0.00000000000E+00 -0.00000000000E+00 -0.12331914150E+02  0.12331915180E+02  0.50400000000E-02 0.  1.
         23    2    1    2    0    0 -0.71054273576E-14  0.35527136788E-14  0.15358003856E+03  0.17824386797E+03  0.90465729552E+02 0.  0.
    9000005    2    3    3    0    0 -0.36717544592E+02  0.22248879674E+02  0.59334413910E+02  0.74680223315E+02  0.14607270544E+02 0.  0.
         22    1    3    3    0    0  0.36717544592E+02 -0.22248879674E+02  0.94245624651E+02  0.10356364465E+03  0.00000000000E+00 0. -1.
         22    1    4    4    0    0 -0.11861606657E+01  0.36775509712E+01  0.11707707819E+01  0.40375812678E+01  0.00000000000E+00 0. -1.
         22    1    4    4    0    0 -0.35531383926E+02  0.18571328703E+02  0.58163643128E+02  0.70642642047E+02  0.00000000000E+00 0. -1.
<mgrwt>
<rscale>  0 0.90465730E+02</rscale>
<asrwt>0</asrwt>
<pdfrwt beam="1">  1        1 0.25524913E-01 0.90465730E+02</pdfrwt>
<pdfrwt beam="2">  1       -1 0.18972178E-02 0.90465730E+02</pdfrwt>
<totfact> 0.11668284E+05</totfact>
</mgrwt>
</event>
<event>
 7    1  0.3301067E-009  0.1213340E+03  0.7818608E-02  0.1240913E+00
         -1   -1    0    0    0  501 -0.00000000000E+00  0.00000000000E+00  0.83527236389E+01  0.83527251594E+01  0.50400000000E-02 0.  1.
          1   -1    0    0  501    0  0.00000000000E+00 -0.00000000000E+00 -0.44063259595E+03  0.44063259598E+03  0.50400000000E-02 0. -1.
         23    2    1    2    0    0  0.88817841970E-15  0.00000000000E+00 -0.43227987231E+03  0.44898532114E+03  0.12133396306E+03 0.  0.
    9000005    2    3    3    0    0  0.79134318380E+01  0.35624145773E+02 -0.39518336181E+03  0.39694828378E+03  0.81454515152E+01 0.  0.
         22    1    3    3    0    0 -0.79134318380E+01 -0.35624145773E+02 -0.37096510503E+02  0.52037037358E+02  0.00000000000E+00 0.  1.
         22    1    4    4    0    0 -0.26349463193E+00 -0.28220149610E+00 -0.16018958404E+01  0.16477673952E+01  0.00000000000E+00 0. -1.
         22    1    4    4    0    0  0.81769264699E+01  0.35906347269E+02 -0.39358146597E+03  0.39530051638E+03  0.00000000000E+00 0. -1.
<mgrwt>
<rscale>  0 0.12133396E+03</rscale>
<asrwt>0</asrwt>
<pdfrwt beam="2">  1        1 0.67789612E-01 0.12133396E+03</pdfrwt>
<pdfrwt beam="1">  1       -1 0.12850349E-02 0.12133396E+03</pdfrwt>
<totfact> 0.63464270E+04</totfact>
</mgrwt>
</event>
<event>
 7    1  0.3301067E-009  0.6391000E+02  0.7818608E-02  0.1382119E+00
          1   -1    0    0  501    0  0.00000000000E+00  0.00000000000E+00  0.47532121010E+03  0.47532121013E+03  0.50400000000E-02 0. -1.
         -1   -1    0    0    0  501 -0.00000000000E+00 -0.00000000000E+00 -0.21482748702E+01  0.21482807823E+01  0.50400000000E-02 0.  1.
         23    2    1    2    0    0  0.00000000000E+00  0.00000000000E+00  0.47317293523E+03  0.47746949091E+03  0.63910000117E+02 0.  0.
    9000005    2    3    3    0    0 -0.85119917945E+00  0.26559111913E+02  0.36128638749E+03  0.36247074947E+03  0.12291439133E+02 0.  0.
         22    1    3    3    0    0  0.85119917945E+00 -0.26559111913E+02  0.11188654775E+03  0.11499874144E+03  0.00000000000E+00 0.  1.
         22    1    4    4    0    0 -0.21738630178E+01  0.43121997222E+01  0.26011442196E+02  0.26455923192E+02  0.00000000000E+00 0. -1.
         22    1    4    4    0    0  0.13226638383E+01  0.22246912191E+02  0.33527494529E+03  0.33601482628E+03  0.00000000000E+00 0. -1.
<mgrwt>
<rscale>  0 0.63910000E+02</rscale>
<asrwt>0</asrwt>
<pdfrwt beam="1">  1        1 0.73126328E-01 0.63910000E+02</pdfrwt>
<pdfrwt beam="2">  1       -1 0.33050434E-03 0.63910000E+02</pdfrwt>
<totfact> 0.34902248E+05</totfact>
</mgrwt>
</event>
<event>
 7    1  0.3301067E-009  0.9061779E+02  0.7818608E-02  0.1301363E+00
          1   -1    0    0  501    0  0.00000000000E+00  0.00000000000E+00  0.11347030953E+04  0.11347030953E+04  0.50400000000E-02 0. -1.
         -1   -1    0    0    0  501 -0.00000000000E+00 -0.00000000000E+00 -0.18091884700E+01  0.18091954902E+01  0.50400000000E-02 0.  1.
         23    2    1    2    0    0  0.00000000000E+00  0.00000000000E+00  0.11328939069E+04  0.11365122908E+04  0.90617785287E+02 0.  0.
    9000005    2    3    3    0    0  0.22170731491E+02 -0.23849797045E+02  0.95544884528E+03  0.95610413128E+03  0.13865776139E+02 0.  0.
         22    1    3    3    0    0 -0.22170731491E+02  0.23849797045E+02  0.17744506157E+03  0.18040815955E+03  0.00000000000E+00 0.  1.
         22    1    4    4    0    0  0.91345914656E+01 -0.15091302569E+02  0.66230439402E+03  0.66253928073E+03  0.00000000000E+00 0. -1.
         22    1    4    4    0    0  0.13036140025E+02 -0.87584944763E+01  0.29314445127E+03  0.29356485055E+03  0.00000000000E+00 0. -1.
<mgrwt>
<rscale>  0 0.90617785E+02</rscale>
<asrwt>0</asrwt>
<pdfrwt beam="1">  1        1 0.17457012E+00 0.90617785E+02</pdfrwt>
<pdfrwt beam="2">  1       -1 0.27833657E-03 0.90617785E+02</pdfrwt>
<totfact> 0.13257777E+05</totfact>
</mgrwt>
</event>
<event>
 7    1  0.3301067E-009  0.8685866E+02  0.7818608E-02  0.1310642E+00
         -1   -1    0    0    0  501 -0.00000000000E+00  0.00000000000E+00  0.25010903744E+01  0.25010954525E+01  0.50400000000E-02 0.  1.
          1   -1    0    0  501    0  0.00000000000E+00 -0.00000000000E+00 -0.75411292115E+03  0.75411292117E+03  0.50400000000E-02 0. -1.
         23    2    1    2    0    0  0.00000000000E+00  0.00000000000E+00 -0.75161183078E+03  0.75661401662E+03  0.86858655200E+02 0.  0.
    9000005    2    3    3    0    0 -0.18923790243E+02  0.35530892991E+02 -0.51060890314E+03  0.51227211411E+03  0.89840265618E+01 0.  0.
         22    1    3    3    0    0  0.18923790243E+02 -0.35530892991E+02 -0.24100292764E+03  0.24434190252E+03  0.00000000000E+00 0.  1.
         22    1    4    4    0    0 -0.54184043597E+01  0.17659205671E+02 -0.26545960358E+03  0.26610149902E+03  0.00000000000E+00 0.  1.
         22    1    4    4    0    0 -0.13505385883E+02  0.17871687320E+02 -0.24514929956E+03  0.24617061508E+03  0.00000000000E+00 0.  1.
<mgrwt>
<rscale>  0 0.86858655E+02</rscale>
<asrwt>0</asrwt>
<pdfrwt beam="2">  1        1 0.11601719E+00 0.86858655E+02</pdfrwt>
<pdfrwt beam="1">  1       -1 0.38478413E-03 0.86858655E+02</pdfrwt>
<totfact> 0.16123928E+05</totfact>
</mgrwt>
</event>
<event>
 7    1  0.3301067E-009  0.9198031E+02  0.7818608E-02  0.1298126E+00
          1   -1    0    0  501    0  0.00000000000E+00  0.00000000000E+00  0.18210131470E+03  0.18210131477E+03  0.50400000000E-02 0. -1.
         -1   -1    0    0    0  501 -0.00000000000E+00 -0.00000000000E+00 -0.11614931838E+02  0.11614932931E+02  0.50400000000E-02 0.  1.
         23    2    1    2    0    0  0.00000000000E+00  0.00000000000E+00  0.17048638286E+03  0.19371624770E+03  0.91980312469E+02 0.  0.
    9000005    2    3    3    0    0 -0.35075270281E+02  0.57083668432E+01  0.26032026227E+02  0.44954958421E+02  0.89678235870E+01 0.  0.
         22    1    3    3    0    0  0.35075270281E+02 -0.57083668432E+01  0.14445435663E+03  0.14876128928E+03  0.00000000000E+00 0. -1.
         22    1    4    4    0    0 -0.24091768406E+00  0.11539861282E+01  0.22230272493E+01  0.25162622013E+01  0.00000000000E+00 0.  1.
         22    1    4    4    0    0 -0.34834352597E+02  0.45543807151E+01  0.23808998977E+02  0.42438696220E+02  0.00000000000E+00 0.  1.
<mgrwt>
<rscale>  0 0.91980312E+02</rscale>
<asrwt>0</asrwt>
<pdfrwt beam="1">  1        1 0.28015582E-01 0.91980312E+02</pdfrwt>
<pdfrwt beam="2">  1       -1 0.17869130E-02 0.91980312E+02</pdfrwt>
<totfact> 0.11357190E+05</totfact>
</mgrwt>
</event>
<event>
 7    1  0.3301067E-009  0.9260867E+02  0.7818608E-02  0.1296655E+00
         -1   -1    0    0    0  501 -0.00000000000E+00  0.00000000000E+00  0.30286090834E+02  0.30286091253E+02  0.50400000000E-02 0. -1.
          1   -1    0    0  501    0  0.00000000000E+00 -0.00000000000E+00 -0.70794595846E+02  0.70794596025E+02  0.50400000000E-02 0.  1.
         23    2    1    2    0    0 -0.35527136788E-14  0.00000000000E+00 -0.40508505012E+02  0.10108068728E+03  0.92608673256E+02 0.  0.
    9000005    2    3    3    0    0 -0.27599171819E+02 -0.28344932595E+02  0.42289848817E+01  0.41359732070E+02  0.11295735252E+02 0.  0.
         22    1    3    3    0    0  0.27599171819E+02  0.28344932595E+02 -0.44737489894E+02  0.59720955208E+02  0.00000000000E+00 0. -1.
         22    1    4    4    0    0 -0.16605894336E+02 -0.21618610807E+02  0.70708174911E+01  0.28162324477E+02  0.00000000000E+00 0.  1.
         22    1    4    4    0    0 -0.10993277483E+02 -0.67263217875E+01 -0.28418326094E+01  0.13197407594E+02  0.00000000000E+00 0.  1.
<mgrwt>
<rscale>  0 0.92608673E+02</rscale>
<asrwt>0</asrwt>
<pdfrwt beam="2">  1        1 0.10891476E-01 0.92608673E+02</pdfrwt>
<pdfrwt beam="1">  1       -1 0.46593986E-02 0.92608673E+02</pdfrwt>
<totfact> 0.94674935E+04</totfact>
</mgrwt>
</event>
<event>
 7    1  0.3301067E-009  0.9078032E+02  0.7818608E-02  0.1300973E+00
          1   -1    0    0  501    0  0.00000000000E+00  0.00000000000E+00  0.30675416720E+02  0.30675417134E+02  0.50400000000E-02 0. -1.
         -1   -1    0    0    0  501 -0.00000000000E+00 -0.00000000000E+00 -0.67163441954E+02  0.67163442143E+02  0.50400000000E-02 0.  1.
         23    2    1    2    0    0  0.00000000000E+00  0.00000000000E+00 -0.36488025234E+02  0.97838859277E+02  0.90780319448E+02 0.  0.
    9000005    2    3    3    0    0 -0.36280729181E+02  0.23783803701E+02 -0.72160145031E+01  0.45505206236E+02  0.11691548265E+02 0.  0.
         22    1    3    3    0    0  0.36280729181E+02 -0.23783803701E+02 -0.29272010731E+02  0.52333653041E+02  0.00000000000E+00 0.  1.
         22    1    4    4    0    0 -0.21282443443E+02  0.72273667093E+01 -0.52353673896E+01  0.23077831357E+02  0.00000000000E+00 0.  1.
         22    1    4    4    0    0 -0.14998285739E+02  0.16556436992E+02 -0.19806471135E+01  0.22427374879E+02  0.00000000000E+00 0.  1.
<mgrwt>
<rscale>  0 0.90780319E+02</rscale>
<asrwt>0</asrwt>
<pdfrwt beam="1">  1        1 0.47192949E-02 0.90780319E+02</pdfrwt>
<pdfrwt beam="2">  1       -1 0.10332837E-01 0.90780319E+02</pdfrwt>
<totfact> 0.88088575E+04</totfact>
</mgrwt>
</event>
<event>
 7    1  0.3301067E-009  0.9077486E+02  0.7818608E-02  0.1300986E+00
          1   -1    0    0  501    0  0.00000000000E+00  0.00000000000E+00  0.28256175833E+02  0.28256176282E+02  0.50400000000E-02 0. -1.
         -1   -1    0    0    0  501 -0.00000000000E+00 -0.00000000000E+00 -0.72905080021E+02  0.72905080196E+02  0.50400000000E-02 0.  1.
         23    2    1    2    0    0  0.00000000000E+00  0.00000000000E+00 -0.44648904188E+02  0.10116125648E+03  0.90774859774E+02 0.  0.
    9000005    2    3    3    0    0  0.41053566796E+02  0.53918423704E+01 -0.42333168743E+02  0.59690424059E+02  0.75088106714E+01 0.  0.
         22    1    3    3    0    0 -0.41053566796E+02 -0.53918423704E+01 -0.23157354452E+01  0.41470832419E+02  0.00000000000E+00 0. -1.
         22    1    4    4    0    0  0.16519787042E+02  0.18192957178E+01 -0.22321801747E+02  0.27829409517E+02  0.00000000000E+00 0. -1.
         22    1    4    4    0    0  0.24533779755E+02  0.35725466526E+01 -0.20011366996E+02  0.31861014543E+02  0.00000000000E+00 0. -1.
<mgrwt>
<rscale>  0 0.90774860E+02</rscale>
<asrwt>0</asrwt>
<pdfrwt beam="1">  1        1 0.43471041E-02 0.90774860E+02</pdfrwt>
<pdfrwt beam="2">  1       -1 0.11216166E-01 0.90774860E+02</pdfrwt>
<totfact> 0.86943329E+04</totfact>
</mgrwt>
</event>
<event>
 7    1  0.3301067E-009  0.8159559E+02  0.7818608E-02  0.1324583E+00
         -1   -1    0    0    0  501 -0.00000000000E+00  0.00000000000E+00  0.23422763703E+02  0.23422764245E+02  0.50400000000E-02 0.  1.
          1   -1    0    0  501    0  0.00000000000E+00 -0.00000000000E+00 -0.71061633255E+02  0.71061633433E+02  0.50400000000E-02 0. -1.
         23    2    1    2    0    0  0.00000000000E+00  0.00000000000E+00 -0.47638869552E+02  0.94484397678E+02  0.81595585129E+02 0.  0.
    9000005    2    3    3    0    0 -0.32472838973E+02 -0.59379813898E+01  0.73089529372E+00  0.35923497368E+02  0.14149860823E+02 0.  0.
         22    1    3    3    0    0  0.32472838973E+02  0.59379813898E+01 -0.48369764845E+02  0.58560900310E+02  0.00000000000E+00 0. -1.
         22    1    4    4    0    0 -0.53385238676E+01 -0.58807924399E+01 -0.30880158675E+01  0.85217016378E+01  0.00000000000E+00 0.  1.
         22    1    4    4    0    0 -0.27134315105E+02 -0.57188949923E-01  0.38189111612E+01  0.27401795730E+02  0.00000000000E+00 0.  1.
<mgrwt>
<rscale>  0 0.81595585E+02</rscale>
<asrwt>0</asrwt>
<pdfrwt beam="2">  1        1 0.10932559E-01 0.81595585E+02</pdfrwt>
<pdfrwt beam="1">  1       -1 0.36035022E-02 0.81595585E+02</pdfrwt>
<totfact> 0.13395366E+05</totfact>
</mgrwt>
</event>
<event>
 7    1  0.3301067E-009  0.1054150E+03  0.7818608E-02  0.1269304E+00
          1   -1    0    0  501    0  0.00000000000E+00  0.00000000000E+00  0.23026562089E+03  0.23026562095E+03  0.50400000000E-02 0. -1.
         -1   -1    0    0    0  501 -0.00000000000E+00 -0.00000000000E+00 -0.12064676250E+02  0.12064677302E+02  0.50400000000E-02 0.  1.
         23    2    1    2    0    0  0.00000000000E+00  0.00000000000E+00  0.21820094464E+03  0.24233029825E+03  0.10541499517E+03 0.  0.
    9000005    2    3    3    0    0  0.40819898982E+02  0.30950178296E+02  0.92031180339E+02  0.10615766108E+03  0.13248892852E+02 0.  0.
         22    1    3    3    0    0 -0.40819898982E+02 -0.30950178296E+02  0.12616976430E+03  0.13617263717E+03  0.00000000000E+00 0. -1.
         22    1    4    4    0    0  0.20636619609E+02  0.22566652191E+02  0.60550777518E+02  0.67834508312E+02  0.00000000000E+00 0.  1.
         22    1    4    4    0    0  0.20183279373E+02  0.83835261051E+01  0.31480402821E+02  0.38323152767E+02  0.00000000000E+00 0.  1.
<mgrwt>
<rscale>  0 0.10541500E+03</rscale>
<asrwt>0</asrwt>
<pdfrwt beam="1">  1        1 0.35425478E-01 0.10541500E+03</pdfrwt>
<pdfrwt beam="2">  1       -1 0.18561042E-02 0.10541500E+03</pdfrwt>
<totfact> 0.82283970E+04</totfact>
</mgrwt>
</event>
<event>
 7    1  0.3301067E-009  0.8940060E+02  0.7818608E-02  0.1304310E+00
         -1   -1    0    0    0  501 -0.00000000000E+00  0.00000000000E+00  0.68118991340E+02  0.68118991526E+02  0.50400000000E-02 0.  1.
          1   -1    0    0  501    0  0.00000000000E+00 -0.00000000000E+00 -0.29332742395E+02  0.29332742828E+02  0.50400000000E-02 0. -1.
         23    2    1    2    0    0  0.00000000000E+00  0.88817841970E-15  0.38786248944E+02  0.97451734355E+02  0.89400600790E+02 0.  0.
    9000005    2    3    3    0    0  0.33176242218E+02  0.64801028786E+01 -0.12109397325E+02  0.36353276189E+02  0.56805285917E+01 0.  0.
         22    1    3    3    0    0 -0.33176242218E+02 -0.64801028786E+01  0.50895646269E+02  0.61098458165E+02  0.00000000000E+00 0.  1.
         22    1    4    4    0    0  0.10098800360E+02  0.38884389456E+00 -0.14364964987E+01  0.10207864149E+02  0.00000000000E+00 0. -1.
         22    1    4    4    0    0  0.23077441858E+02  0.60912589840E+01 -0.10672900826E+02  0.26145412040E+02  0.00000000000E+00 0. -1.
<mgrwt>
<rscale>  0 0.89400601E+02</rscale>
<asrwt>0</asrwt>
<pdfrwt beam="2">  1        1 0.45127296E-02 0.89400601E+02</pdfrwt>
<pdfrwt beam="1">  1       -1 0.10479845E-01 0.89400601E+02</pdfrwt>
<totfact> 0.91381644E+04</totfact>
</mgrwt>
</event>
<event>
 7    1  0.3301067E-009  0.9045742E+02  0.7818608E-02  0.1301748E+00
          1   -1    0    0  501    0  0.00000000000E+00  0.00000000000E+00  0.76191497892E+02  0.76191498059E+02  0.50400000000E-02 0. -1.
         -1   -1    0    0    0  501 -0.00000000000E+00 -0.00000000000E+00 -0.26848613218E+02  0.26848613691E+02  0.50400000000E-02 0.  1.
         23    2    1    2    0    0  0.35527136788E-14  0.00000000000E+00  0.49342884675E+02  0.10304011175E+03  0.90457417393E+02 0.  0.
    9000005    2    3    3    0    0  0.29371585468E+02  0.73468152513E+01  0.62760345086E+02  0.69923741612E+02  0.58140346099E+01 0.  0.
         22    1    3    3    0    0 -0.29371585468E+02 -0.73468152513E+01 -0.13417460412E+02  0.33116370138E+02  0.00000000000E+00 0.  1.
         22    1    4    4    0    0  0.82333969534E+01  0.33063700600E+01  0.13342959530E+02  0.16023591276E+02  0.00000000000E+00 0.  1.
         22    1    4    4    0    0  0.21138188514E+02  0.40404451913E+01  0.49417385556E+02  0.53900150335E+02  0.00000000000E+00 0.  1.
<mgrwt>
<rscale>  0 0.90457417E+02</rscale>
<asrwt>0</asrwt>
<pdfrwt beam="1">  1        1 0.11721769E-01 0.90457417E+02</pdfrwt>
<pdfrwt beam="2">  1       -1 0.41305559E-02 0.90457417E+02</pdfrwt>
<totfact> 0.10217385E+05</totfact>
</mgrwt>
</event>
<event>
 7    1  0.3301067E-009  0.9023084E+02  0.7818608E-02  0.1302294E+00
         -1   -1    0    0    0  501 -0.00000000000E+00  0.00000000000E+00  0.32409983859E+02  0.32409984251E+02  0.50400000000E-02 0.  1.
          1   -1    0    0  501    0  0.00000000000E+00 -0.00000000000E+00 -0.62801669072E+02  0.62801669274E+02  0.50400000000E-02 0. -1.
         23    2    1    2    0    0  0.00000000000E+00  0.00000000000E+00 -0.30391685213E+02  0.95211653526E+02  0.90230839722E+02 0.  0.
    9000005    2    3    3    0    0  0.15255074751E+02  0.68806673886E+01 -0.59138745848E+02  0.61948244432E+02  0.77545366347E+01 0.  0.
         22    1    3    3    0    0 -0.15255074751E+02 -0.68806673886E+01  0.28747060635E+02  0.33263409093E+02  0.00000000000E+00 0.  1.
         22    1    4    4    0    0  0.99719933497E+01  0.81418647711E+01 -0.37935392854E+02  0.40060262659E+02  0.00000000000E+00 0. -1.
         22    1    4    4    0    0  0.52830814013E+01 -0.12611973824E+01 -0.21203352993E+02  0.21887981773E+02  0.00000000000E+00 0. -1.
<mgrwt>
<rscale>  0 0.90230840E+02</rscale>
<asrwt>0</asrwt>
<pdfrwt beam="2">  1        1 0.96617953E-02 0.90230840E+02</pdfrwt>
<pdfrwt beam="1">  1       -1 0.49861514E-02 0.90230840E+02</pdfrwt>
<totfact> 0.99879802E+04</totfact>
</mgrwt>
</event>
<event>
 7    1  0.3301067E-009  0.9072502E+02  0.7818608E-02  0.1301105E+00
         -1   -1    0    0    0  501 -0.00000000000E+00  0.00000000000E+00  0.87087817564E+02  0.87087817710E+02  0.50400000000E-02 0.  1.
          1   -1    0    0  501    0  0.00000000000E+00 -0.00000000000E+00 -0.23628532628E+02  0.23628533166E+02  0.50400000000E-02 0. -1.
         23    2    1    2    0    0  0.71054273576E-14  0.35527136788E-14  0.63459284936E+02  0.11071635088E+03  0.90725021393E+02 0.  0.
    9000005    2    3    3    0    0 -0.38266942058E+02 -0.18668493610E+02  0.16094204779E+02  0.47027087052E+02  0.11817443928E+02 0.  0.
         22    1    3    3    0    0  0.38266942058E+02  0.18668493610E+02  0.47365080157E+02  0.63689263824E+02  0.00000000000E+00 0.  1.
         22    1    4    4    0    0 -0.37964927032E+02 -0.18827952999E+02  0.17301048194E+02  0.45772849674E+02  0.00000000000E+00 0.  1.
         22    1    4    4    0    0 -0.30201502557E+00  0.15945938836E+00 -0.12068434148E+01  0.12542373779E+01  0.00000000000E+00 0.  1.
<mgrwt>
<rscale>  0 0.90725021E+02</rscale>
<asrwt>0</asrwt>
<pdfrwt beam="2">  1        1 0.36351589E-02 0.90725021E+02</pdfrwt>
<pdfrwt beam="1">  1       -1 0.13398126E-01 0.90725021E+02</pdfrwt>
<totfact> 0.84493816E+04</totfact>
</mgrwt>
</event>
<event>
 7    1  0.3301067E-009  0.8910506E+02  0.7818608E-02  0.1305033E+00
         -1   -1    0    0    0  501 -0.00000000000E+00  0.00000000000E+00  0.37638919858E+02  0.37638920195E+02  0.50400000000E-02 0.  1.
          1   -1    0    0  501    0  0.00000000000E+00 -0.00000000000E+00 -0.52736052641E+02  0.52736052882E+02  0.50400000000E-02 0. -1.
         23    2    1    2    0    0  0.00000000000E+00  0.00000000000E+00 -0.15097132783E+02  0.90374973077E+02  0.89105063495E+02 0.  0.
    9000005    2    3    3    0    0 -0.42054778667E+02 -0.36076598914E+01 -0.18626730848E+02  0.48018418908E+02  0.13311417419E+02 0.  0.
         22    1    3    3    0    0  0.42054778667E+02  0.36076598914E+01  0.35295980651E+01  0.42356554169E+02  0.00000000000E+00 0. -1.
         22    1    4    4    0    0 -0.63234961281E+01 -0.56262410056E+01 -0.32502950753E+01  0.90667308999E+01  0.00000000000E+00 0. -1.
         22    1    4    4    0    0 -0.35731282539E+02  0.20185811142E+01 -0.15376435773E+02  0.38951688008E+02  0.00000000000E+00 0. -1.
<mgrwt>
<rscale>  0 0.89105063E+02</rscale>
<asrwt>0</asrwt>
<pdfrwt beam="2">  1        1 0.81132390E-02 0.89105063E+02</pdfrwt>
<pdfrwt beam="1">  1       -1 0.57906031E-02 0.89105063E+02</pdfrwt>
<totfact> 0.10075568E+05</totfact>
</mgrwt>
</event>
<event>
 7    1  0.3301067E-009  0.8782597E+02  0.7818608E-02  0.1308203E+00
         -1   -1    0    0    0  501 -0.00000000000E+00  0.00000000000E+00  0.20192083932E+01  0.20192146832E+01  0.50400000000E-02 0.  1.
          1   -1    0    0  501    0  0.00000000000E+00 -0.00000000000E+00 -0.95500149933E+03  0.95500149934E+03  0.50400000000E-02 0. -1.
         23    2    1    2    0    0  0.00000000000E+00  0.88817841970E-15 -0.95298229094E+03  0.95702071403E+03  0.87825965617E+02 0.  0.
    9000005    2    3    3    0    0  0.31670370889E+02 -0.71557675423E+01 -0.79083082885E+03  0.79165048074E+03  0.15584171145E+02 0.  0.
         22    1    3    3    0    0 -0.31670370889E+02  0.71557675423E+01 -0.16215146209E+03  0.16537023329E+03  0.00000000000E+00 0.  1.
         22    1    4    4    0    0  0.29198313943E+02 -0.98640503351E+01 -0.75583321110E+03  0.75646129050E+03  0.00000000000E+00 0.  1.
         22    1    4    4    0    0  0.24720569454E+01  0.27082827928E+01 -0.34997617752E+02  0.35189190237E+02  0.00000000000E+00 0.  1.
<mgrwt>
<rscale>  0 0.87825966E+02</rscale>
<asrwt>0</asrwt>
<pdfrwt beam="2">  1        1 0.14692295E+00 0.87825966E+02</pdfrwt>
<pdfrwt beam="1">  1       -1 0.31064869E-03 0.87825966E+02</pdfrwt>
<totfact> 0.15183893E+05</totfact>
</mgrwt>
</event>
<event>
 7    1  0.3301067E-009  0.9230530E+02  0.7818608E-02  0.1297363E+00
         -1   -1    0    0    0  501 -0.00000000000E+00  0.00000000000E+00  0.14466583468E+02  0.14466584346E+02  0.50400000000E-02 0.  1.
          1   -1    0    0  501    0  0.00000000000E+00 -0.00000000000E+00 -0.14724050601E+03  0.14724050609E+03  0.50400000000E-02 0. -1.
         23    2    1    2    0    0  0.17763568394E-14 -0.11102230246E-15 -0.13277392254E+03  0.16170709044E+03  0.92305300996E+02 0.  0.
    9000005    2    3    3    0    0  0.14011238154E+02 -0.50522167700E+00 -0.14307722299E+03  0.14430800875E+03  0.12535533712E+02 0.  0.
         22    1    3    3    0    0 -0.14011238154E+02  0.50522167700E+00  0.10303300453E+02  0.17399081694E+02  0.00000000000E+00 0.  1.
         22    1    4    4    0    0  0.12280308559E+02 -0.14305827904E+01 -0.14062309955E+03  0.14116553642E+03  0.00000000000E+00 0.  1.
         22    1    4    4    0    0  0.17309295954E+01  0.92536111342E+00 -0.24541234420E+01  0.31424723266E+01  0.00000000000E+00 0.  1.
<mgrwt>
<rscale>  0 0.92305301E+02</rscale>
<asrwt>0</asrwt>
<pdfrwt beam="2">  1        1 0.22652385E-01 0.92305301E+02</pdfrwt>
<pdfrwt beam="1">  1       -1 0.22256284E-02 0.92305301E+02</pdfrwt>
<totfact> 0.10809664E+05</totfact>
</mgrwt>
</event>
<event>
 7    1  0.3301067E-009  0.9207010E+02  0.7818608E-02  0.1297915E+00
         -1   -1    0    0    0  501 -0.00000000000E+00  0.00000000000E+00  0.13143390299E+02  0.13143391265E+02  0.50400000000E-02 0.  1.
          1   -1    0    0  501    0  0.00000000000E+00 -0.00000000000E+00 -0.16123888560E+03  0.16123888567E+03  0.50400000000E-02 0. -1.
         23    2    1    2    0    0  0.00000000000E+00  0.00000000000E+00 -0.14809549530E+03  0.17438227694E+03  0.92070097118E+02 0.  0.
    9000005    2    3    3    0    0  0.32933578985E+02  0.19268501683E+02 -0.12247807293E+03  0.12842416438E+03  0.59993219880E+01 0.  0.
         22    1    3    3    0    0 -0.32933578985E+02 -0.19268501683E+02 -0.25617422364E+02  0.45958112564E+02  0.00000000000E+00 0.  1.
         22    1    4    4    0    0  0.18990389094E+02  0.13730573821E+02 -0.80717372729E+02  0.84050328944E+02  0.00000000000E+00 0.  1.
         22    1    4    4    0    0  0.13943189891E+02  0.55379278619E+01 -0.41760700204E+02  0.44373835431E+02  0.00000000000E+00 0.  1.
<mgrwt>
<rscale>  0 0.92070097E+02</rscale>
<asrwt>0</asrwt>
<pdfrwt beam="2">  1        1 0.24805981E-01 0.92070097E+02</pdfrwt>
<pdfrwt beam="1">  1       -1 0.20220602E-02 0.92070097E+02</pdfrwt>
<totfact> 0.11069403E+05</totfact>
</mgrwt>
</event>
<event>
 6    1  0.3724808E-009  0.3283276E+03  0.7818608E-02  0.1071879E+00
         -1   -1    0    0    0  501 -0.00000000000E+00  0.00000000000E+00  0.10968237307E+03  0.10968237319E+03  0.50400000000E-02 0.  1.
          1   -1    0    0  501    0  0.00000000000E+00 -0.00000000000E+00 -0.24570727751E+03  0.24570727756E+03  0.50400000000E-02 0. -1.
    9000005    2    1    2    0    0  0.78372470448E+00  0.15319981974E+03 -0.50811772127E+01  0.15385290797E+03  0.13194693525E+02 0.  0.
         22    1    1    2    0    0 -0.78372470448E+00 -0.15319981974E+03 -0.13094372723E+03  0.20153674278E+03  0.00000000000E+00 0. -1.
         22    1    3    3    0    0 -0.14825725911E+01  0.89993214968E+02  0.32214637068E+01  0.90063058965E+02  0.00000000000E+00 0. -1.
         22    1    3    3    0    0  0.22662972955E+01  0.63206604769E+02 -0.83026409195E+01  0.63789849005E+02  0.00000000000E+00 0. -1.
<mgrwt>
<rscale>  0 0.32832762E+03</rscale>
<asrwt>0</asrwt>
<pdfrwt beam="2">  1        1 0.37801119E-01 0.32832762E+03</pdfrwt>
<pdfrwt beam="1">  1       -1 0.16874211E-01 0.32832762E+03</pdfrwt>
<totfact> 0.30061051E+03</totfact>
</mgrwt>
</event>
<event>
 7    1  0.3301067E-009  0.9396876E+02  0.7818608E-02  0.1293516E+00
         -1   -1    0    0    0  501 -0.00000000000E+00  0.00000000000E+00  0.19918668416E+03  0.19918668423E+03  0.50400000000E-02 0.  1.
          1   -1    0    0  501    0  0.00000000000E+00 -0.00000000000E+00 -0.11082726836E+02  0.11082727982E+02  0.50400000000E-02 0. -1.
         23    2    1    2    0    0  0.00000000000E+00 -0.35527136788E-14  0.18810395733E+03  0.21026941221E+03  0.93968755173E+02 0.  0.
    9000005    2    3    3    0    0 -0.40817043385E+02 -0.16656519053E+02  0.12541888121E+03  0.13363463274E+03  0.13595905407E+02 0.  0.
         22    1    3    3    0    0  0.40817043385E+02  0.16656519053E+02  0.62685076114E+02  0.76634779474E+02  0.00000000000E+00 0. -1.
         22    1    4    4    0    0 -0.30525291189E+02 -0.57457413304E+01  0.80973369110E+02  0.86726544095E+02  0.00000000000E+00 0. -1.
         22    1    4    4    0    0 -0.10291752196E+02 -0.10910777723E+02  0.44445512103E+02  0.46908088640E+02  0.00000000000E+00 0. -1.
<mgrwt>
<rscale>  0 0.93968755E+02</rscale>
<asrwt>0</asrwt>
<pdfrwt beam="2">  1        1 0.17050351E-02 0.93968755E+02</pdfrwt>
<pdfrwt beam="1">  1       -1 0.30644104E-01 0.93968755E+02</pdfrwt>
<totfact> 0.64244506E+04</totfact>
</mgrwt>
</event>
<event>
 7    1  0.3301067E-009  0.9549622E+02  0.7818608E-02  0.1290062E+00
          1   -1    0    0  501    0  0.00000000000E+00  0.00000000000E+00  0.15400473575E+04  0.15400473575E+04  0.50400000000E-02 0. -1.
         -1   -1    0    0    0  501 -0.00000000000E+00 -0.00000000000E+00 -0.14803930788E+01  0.14804016582E+01  0.50400000000E-02 0.  1.
         23    2    1    2    0    0  0.88817841970E-15  0.00000000000E+00  0.15385669644E+04  0.15415277592E+04  0.95496221247E+02 0.  0.
    9000005    2    3    3    0    0 -0.64566253555E+01  0.18105493651E+02  0.14735188758E+04  0.14736989250E+04  0.12694380408E+02 0.  0.
         22    1    3    3    0    0  0.64566253555E+01 -0.18105493651E+02  0.65048088646E+02  0.67828834191E+02  0.00000000000E+00 0.  1.
         22    1    4    4    0    0 -0.64436329778E+01  0.11817611663E+02  0.57290443888E+03  0.57306253798E+03  0.00000000000E+00 0. -1.
         22    1    4    4    0    0 -0.12992377706E-01  0.62878819884E+01  0.90061443691E+03  0.90063638701E+03  0.00000000000E+00 0. -1.
<mgrwt>
<rscale>  0 0.95496221E+02</rscale>
<asrwt>0</asrwt>
<pdfrwt beam="1">  1        1 0.23692985E+00 0.95496221E+02</pdfrwt>
<pdfrwt beam="2">  1       -1 0.22775393E-03 0.95496221E+02</pdfrwt>
<totfact> 0.95590534E+04</totfact>
</mgrwt>
</event>
<event>
 7    1  0.3301067E-009  0.9885746E+02  0.7818608E-02  0.1282717E+00
         -1   -1    0    0    0  501 -0.00000000000E+00  0.00000000000E+00  0.54147176504E+02  0.54147176739E+02  0.50400000000E-02 0.  1.
          1   -1    0    0  501    0  0.00000000000E+00 -0.00000000000E+00 -0.45121451689E+02  0.45121451971E+02  0.50400000000E-02 0. -1.
         23    2    1    2    0    0 -0.17763568394E-14  0.00000000000E+00  0.90257248149E+01  0.99268628709E+02  0.98857457672E+02 0.  0.
    9000005    2    3    3    0    0  0.15348701402E+02  0.22024587815E+02  0.45209386204E+02  0.54213967966E+02  0.13213652731E+02 0.  0.
         22    1    3    3    0    0 -0.15348701402E+02 -0.22024587815E+02 -0.36183661389E+02  0.45054660743E+02  0.00000000000E+00 0. -1.
         22    1    4    4    0    0  0.65773218292E+01  0.11190637127E+02  0.10126555469E+02  0.16463251423E+02  0.00000000000E+00 0. -1.
         22    1    4    4    0    0  0.87713795731E+01  0.10833950688E+02  0.35082830735E+02  0.37750716543E+02  0.00000000000E+00 0. -1.
<mgrwt>
<rscale>  0 0.98857458E+02</rscale>
<asrwt>0</asrwt>
<pdfrwt beam="2">  1        1 0.69417618E-02 0.98857458E+02</pdfrwt>
<pdfrwt beam="1">  1       -1 0.83303349E-02 0.98857458E+02</pdfrwt>
<totfact> 0.73444114E+04</totfact>
</mgrwt>
</event>
<event>
 7    1  0.3301067E-009  0.9157181E+02  0.7818608E-02  0.1299089E+00
         -1   -1    0    0    0  501 -0.00000000000E+00  0.00000000000E+00  0.57275874074E+02  0.57275874296E+02  0.50400000000E-02 0.  1.
          1   -1    0    0  501    0  0.00000000000E+00 -0.00000000000E+00 -0.36600911298E+02  0.36600911645E+02  0.50400000000E-02 0. -1.
         23    2    1    2    0    0  0.35527136788E-14  0.00000000000E+00  0.20674962776E+02  0.93876785940E+02  0.91571812545E+02 0.  0.
    9000005    2    3    3    0    0 -0.27785690694E+02 -0.77613775187E+01  0.46149506874E+02  0.55389957215E+02  0.10294988450E+02 0.  0.
         22    1    3    3    0    0  0.27785690694E+02  0.77613775187E+01 -0.25474544098E+02  0.38486828726E+02  0.00000000000E+00 0. -1.
         22    1    4    4    0    0 -0.19112427498E+02 -0.17031141756E+01  0.35642999184E+02  0.40479734110E+02  0.00000000000E+00 0.  1.
         22    1    4    4    0    0 -0.86732631957E+01 -0.60582633431E+01  0.10506507691E+02  0.14910223105E+02  0.00000000000E+00 0.  1.
<mgrwt>
<rscale>  0 0.91571813E+02</rscale>
<asrwt>0</asrwt>
<pdfrwt beam="2">  1        1 0.56309094E-02 0.91571813E+02</pdfrwt>
<pdfrwt beam="1">  1       -1 0.88116730E-02 0.91571813E+02</pdfrwt>
<totfact> 0.88348712E+04</totfact>
</mgrwt>
</event>
<event>
 7    1  0.3301067E-009  0.9222106E+02  0.7818608E-02  0.1297560E+00
          1   -1    0    0  501    0  0.00000000000E+00  0.00000000000E+00  0.49297106210E+03  0.49297106212E+03  0.50400000000E-02 0. -1.
         -1   -1    0    0    0  501 -0.00000000000E+00 -0.00000000000E+00 -0.43129922979E+01  0.43129952427E+01  0.50400000000E-02 0.  1.
         23    2    1    2    0    0 -0.17763568394E-14 -0.35527136788E-14  0.48865806980E+03  0.49728405737E+03  0.92221063375E+02 0.  0.
    9000005    2    3    3    0    0 -0.11941214184E+02 -0.17529306345E+02  0.46470375561E+03  0.46528908361E+03  0.97201684970E+01 0.  0.
         22    1    3    3    0    0  0.11941214184E+02  0.17529306345E+02  0.23954314193E+02  0.31994973755E+02  0.00000000000E+00 0.  1.
         22    1    4    4    0    0 -0.10142222300E+02 -0.12671669952E+02  0.25193676627E+03  0.25245904637E+03  0.00000000000E+00 0.  1.
         22    1    4    4    0    0 -0.17989918843E+01 -0.48576363928E+01  0.21276698933E+03  0.21283003724E+03  0.00000000000E+00 0.  1.
<mgrwt>
<rscale>  0 0.92221063E+02</rscale>
<asrwt>0</asrwt>
<pdfrwt beam="1">  1        1 0.75841716E-01 0.92221063E+02</pdfrwt>
<pdfrwt beam="2">  1       -1 0.66353739E-03 0.92221063E+02</pdfrwt>
<totfact> 0.13489190E+05</totfact>
</mgrwt>
</event>
<event>
 7    1  0.3301067E-009  0.9793540E+02  0.7818608E-02  0.1284698E+00
         -1   -1    0    0    0  501 -0.00000000000E+00  0.00000000000E+00  0.22353321949E+03  0.22353321954E+03  0.50400000000E-02 0.  1.
          1   -1    0    0  501    0  0.00000000000E+00 -0.00000000000E+00 -0.10726976055E+02  0.10726977239E+02  0.50400000000E-02 0. -1.
         23    2    1    2    0    0 -0.22204460493E-15  0.00000000000E+00  0.21280624343E+03  0.23426019678E+03  0.97935399896E+02 0.  0.
    9000005    2    3    3    0    0  0.10471120809E+01 -0.45006824557E+02  0.64139545061E+02  0.78926691365E+02  0.94250023259E+01 0.  0.
         22    1    3    3    0    0 -0.10471120809E+01  0.45006824557E+02  0.14866669837E+03  0.15533350542E+03  0.00000000000E+00 0. -1.
         22    1    4    4    0    0 -0.17382172681E+01 -0.26996661566E+02  0.44946520958E+02  0.52459802527E+02  0.00000000000E+00 0.  1.
         22    1    4    4    0    0  0.27853293491E+01 -0.18010162991E+02  0.19193024103E+02  0.26466888838E+02  0.00000000000E+00 0.  1.
<mgrwt>
<rscale>  0 0.97935400E+02</rscale>
<asrwt>0</asrwt>
<pdfrwt beam="2">  1        1 0.16503041E-02 0.97935400E+02</pdfrwt>
<pdfrwt beam="1">  1       -1 0.34389727E-01 0.97935400E+02</pdfrwt>
<totfact> 0.55702816E+04</totfact>
</mgrwt>
</event>
<event>
 7    1  0.3301067E-009  0.9151874E+02  0.7818608E-02  0.1299215E+00
         -1   -1    0    0    0  501 -0.00000000000E+00  0.00000000000E+00  0.22509653171E+02  0.22509653736E+02  0.50400000000E-02 0. -1.
          1   -1    0    0  501    0  0.00000000000E+00 -0.00000000000E+00 -0.93023196362E+02  0.93023196498E+02  0.50400000000E-02 0.  1.
         23    2    1    2    0    0  0.00000000000E+00  0.17763568394E-14 -0.70513543191E+02  0.11553285023E+03  0.91518739665E+02 0.  0.
    9000005    2    3    3    0    0  0.30970144769E+02 -0.12694204334E+02 -0.73860033333E+02  0.81895197418E+02  0.11455398088E+02 0.  0.
         22    1    3    3    0    0 -0.30970144769E+02  0.12694204334E+02  0.33464901429E+01  0.33637652816E+02  0.00000000000E+00 0. -1.
         22    1    4    4    0    0  0.19745521349E+02 -0.38482155632E+01 -0.33459580018E+02  0.39041489102E+02  0.00000000000E+00 0. -1.
         22    1    4    4    0    0  0.11224623420E+02 -0.88459887709E+01 -0.40400453316E+02  0.42853708315E+02  0.00000000000E+00 0. -1.
<mgrwt>
<rscale>  0 0.91518740E+02</rscale>
<asrwt>0</asrwt>
<pdfrwt beam="2">  1        1 0.14311261E-01 0.91518740E+02</pdfrwt>
<pdfrwt beam="1">  1       -1 0.34630237E-02 0.91518740E+02</pdfrwt>
<totfact> 0.10216278E+05</totfact>
</mgrwt>
</event>
<event>
 7    1  0.3301067E-009  0.9130078E+02  0.7818608E-02  0.1299732E+00
         -1   -1    0    0    0  501 -0.00000000000E+00  0.00000000000E+00  0.18737661365E+02  0.18737662043E+02  0.50400000000E-02 0.  1.
          1   -1    0    0  501    0  0.00000000000E+00 -0.00000000000E+00 -0.11121761763E+03  0.11121761774E+03  0.50400000000E-02 0. -1.
         23    2    1    2    0    0  0.00000000000E+00  0.00000000000E+00 -0.92479956262E+02  0.12995527978E+03  0.91300780027E+02 0.  0.
    9000005    2    3    3    0    0 -0.43797931053E+02 -0.13711887253E+01 -0.33382403428E+02  0.56384499756E+02  0.12028633794E+02 0.  0.
         22    1    3    3    0    0  0.43797931053E+02  0.13711887253E+01 -0.59097552833E+02  0.73570780028E+02  0.00000000000E+00 0.  1.
         22    1    4    4    0    0 -0.41095474179E+02  0.16339005953E+01 -0.28456416821E+02  0.50012751248E+02  0.00000000000E+00 0. -1.
         22    1    4    4    0    0 -0.27024568745E+01 -0.30050893206E+01 -0.49259866073E+01  0.63717485072E+01  0.00000000000E+00 0. -1.
<mgrwt>
<rscale>  0 0.91300780E+02</rscale>
<asrwt>0</asrwt>
<pdfrwt beam="2">  1        1 0.17110402E-01 0.91300780E+02</pdfrwt>
<pdfrwt beam="1">  1       -1 0.28827173E-02 0.91300780E+02</pdfrwt>
<totfact> 0.10594661E+05</totfact>
</mgrwt>
</event>
<event>
 7    1  0.3301067E-009  0.9268966E+02  0.7818608E-02  0.1296466E+00
         -1   -1    0    0    0  501 -0.00000000000E+00  0.00000000000E+00  0.59706328002E+01  0.59706349274E+01  0.50400000000E-02 0.  1.
          1   -1    0    0  501    0  0.00000000000E+00 -0.00000000000E+00 -0.35973456124E+03  0.35973456128E+03  0.50400000000E-02 0. -1.
         23    2    1    2    0    0  0.00000000000E+00  0.00000000000E+00 -0.35376392844E+03  0.36570519621E+03  0.92689662124E+02 0.  0.
    9000005    2    3    3    0    0  0.20560763157E+02 -0.39937365029E+02 -0.15194125136E+03  0.15894414791E+03  0.12623794326E+02 0.  0.
         22    1    3    3    0    0 -0.20560763157E+02  0.39937365029E+02 -0.20182267709E+03  0.20676104830E+03  0.00000000000E+00 0.  1.
         22    1    4    4    0    0  0.39279540534E+01 -0.37729287359E+01 -0.34817480541E+02  0.35240896207E+02  0.00000000000E+00 0. -1.
         22    1    4    4    0    0  0.16632809103E+02 -0.36164436294E+02 -0.11712377082E+03  0.12370325170E+03  0.00000000000E+00 0. -1.
<mgrwt>
<rscale>  0 0.92689662E+02</rscale>
<asrwt>0</asrwt>
<pdfrwt beam="2">  1        1 0.55343762E-01 0.92689662E+02</pdfrwt>
<pdfrwt beam="1">  1       -1 0.91855934E-03 0.92689662E+02</pdfrwt>
<totfact> 0.12679690E+05</totfact>
</mgrwt>
</event>
<event>
 7    1  0.3301067E-009  0.9099085E+02  0.7818608E-02  0.1300470E+00
         -1   -1    0    0    0  501 -0.00000000000E+00  0.00000000000E+00  0.15127443091E+02  0.15127443930E+02  0.50400000000E-02 0.  1.
          1   -1    0    0  501    0  0.00000000000E+00 -0.00000000000E+00 -0.13682639827E+03  0.13682639836E+03  0.50400000000E-02 0. -1.
         23    2    1    2    0    0  0.00000000000E+00  0.00000000000E+00 -0.12169895518E+03  0.15195384229E+03  0.90990848418E+02 0.  0.
    9000005    2    3    3    0    0 -0.20619064697E+02  0.24809802942E+02 -0.11965717216E+02  0.37577027925E+02  0.15105710449E+02 0.  0.
         22    1    3    3    0    0  0.20619064697E+02 -0.24809802942E+02 -0.10973323796E+03  0.11437681437E+03  0.00000000000E+00 0. -1.
         22    1    4    4    0    0 -0.29681897183E+01  0.15253155627E+02 -0.47852527792E+01  0.16259383474E+02  0.00000000000E+00 0.  1.
         22    1    4    4    0    0 -0.17650874979E+02  0.95566473152E+01 -0.71804644363E+01  0.21317644451E+02  0.00000000000E+00 0.  1.
<mgrwt>
<rscale>  0 0.90990848E+02</rscale>
<asrwt>0</asrwt>
<pdfrwt beam="2">  1        1 0.21050214E-01 0.90990848E+02</pdfrwt>
<pdfrwt beam="1">  1       -1 0.23272991E-02 0.90990848E+02</pdfrwt>
<totfact> 0.11088323E+05</totfact>
</mgrwt>
</event>
<event>
 7    1  0.3301067E-009  0.9195364E+02  0.7818608E-02  0.1298188E+00
          1   -1    0    0  501    0  0.00000000000E+00  0.00000000000E+00  0.75528908295E+02  0.75528908463E+02  0.50400000000E-02 0. -1.
         -1   -1    0    0    0  501 -0.00000000000E+00 -0.00000000000E+00 -0.27987533788E+02  0.27987534242E+02  0.50400000000E-02 0.  1.
         23    2    1    2    0    0  0.00000000000E+00  0.88817841970E-15  0.47541374506E+02  0.10351644270E+03  0.91953638429E+02 0.  0.
    9000005    2    3    3    0    0  0.24282139237E+02  0.73466028093E+01  0.66198771376E+02  0.72025280187E+02  0.12718836249E+02 0.  0.
         22    1    3    3    0    0 -0.24282139237E+02 -0.73466028093E+01 -0.18657396870E+02  0.31491162518E+02  0.00000000000E+00 0.  1.
         22    1    4    4    0    0  0.14626745144E+02  0.10669470756E+02  0.44590500436E+02  0.48125793592E+02  0.00000000000E+00 0. -1.
         22    1    4    4    0    0  0.96553940936E+01 -0.33228679463E+01  0.21608270940E+02  0.23899486595E+02  0.00000000000E+00 0. -1.
<mgrwt>
<rscale>  0 0.91953638E+02</rscale>
<asrwt>0</asrwt>
<pdfrwt beam="1">  1        1 0.11619832E-01 0.91953638E+02</pdfrwt>
<pdfrwt beam="2">  1       -1 0.43057745E-02 0.91953638E+02</pdfrwt>
<totfact> 0.97532548E+04</totfact>
</mgrwt>
</event>
<event>
 7    1  0.3301067E-009  0.9201674E+02  0.7818608E-02  0.1298040E+00
          1   -1    0    0  501    0  0.00000000000E+00  0.00000000000E+00  0.40402302509E+03  0.40402302512E+03  0.50400000000E-02 0. -1.
         -1   -1    0    0    0  501 -0.00000000000E+00 -0.00000000000E+00 -0.52392296344E+01  0.52392320586E+01  0.50400000000E-02 0.  1.
         23    2    1    2    0    0  0.00000000000E+00  0.00000000000E+00  0.39878379545E+03  0.40926225718E+03  0.92016735619E+02 0.  0.
    9000005    2    3    3    0    0  0.24322511083E+02  0.32551445267E+02  0.29064668857E+03  0.29374249688E+03  0.12568840908E+02 0.  0.
         22    1    3    3    0    0 -0.24322511083E+02 -0.32551445267E+02  0.10813710688E+03  0.11551976030E+03  0.00000000000E+00 0.  1.
         22    1    4    4    0    0  0.17538393944E+02  0.25688674634E+02  0.25185761557E+03  0.25377108147E+03  0.00000000000E+00 0. -1.
         22    1    4    4    0    0  0.67841171385E+01  0.68627706336E+01  0.38789072993E+02  0.39971415408E+02  0.00000000000E+00 0. -1.
<mgrwt>
<rscale>  0 0.92016736E+02</rscale>
<asrwt>0</asrwt>
<pdfrwt beam="1">  1        1 0.62157397E-01 0.92016736E+02</pdfrwt>
<pdfrwt beam="2">  1       -1 0.80603542E-03 0.92016736E+02</pdfrwt>
<totfact> 0.13185901E+05</totfact>
</mgrwt>
</event>
<event>
 7    1  0.3301067E-009  0.8421144E+02  0.7818608E-02  0.1317508E+00
         -1   -1    0    0    0  501 -0.00000000000E+00  0.00000000000E+00  0.16100545383E+03  0.16100545390E+03  0.50400000000E-02 0.  1.
          1   -1    0    0  501    0  0.00000000000E+00 -0.00000000000E+00 -0.11011376596E+02  0.11011377749E+02  0.50400000000E-02 0. -1.
         23    2    1    2    0    0  0.00000000000E+00 -0.83266726847E-16  0.14999407723E+03  0.17201683165E+03  0.84211443213E+02 0.  0.
    9000005    2    3    3    0    0  0.10854577018E+02  0.15383672440E+00  0.15768398539E+03  0.15871344128E+03  0.14417755867E+02 0.  0.
         22    1    3    3    0    0 -0.10854577018E+02 -0.15383672440E+00 -0.76899081633E+01  0.13303390377E+02  0.00000000000E+00 0. -1.
         22    1    4    4    0    0 -0.17777133442E+01 -0.43000854003E+01  0.40435529740E+02  0.40702371731E+02  0.00000000000E+00 0.  1.
         22    1    4    4    0    0  0.12632290362E+02  0.44539221247E+01  0.11724845565E+03  0.11801106955E+03  0.00000000000E+00 0.  1.
<mgrwt>
<rscale>  0 0.84211443E+02</rscale>
<asrwt>0</asrwt>
<pdfrwt beam="2">  1        1 0.16940582E-02 0.84211443E+02</pdfrwt>
<pdfrwt beam="1">  1       -1 0.24770068E-01 0.84211443E+02</pdfrwt>
<totfact> 0.90340489E+04</totfact>
</mgrwt>
</event>
<event>
 7    1  0.3301067E-009  0.8658641E+02  0.7818608E-02  0.1311335E+00
          1   -1    0    0  501    0  0.00000000000E+00  0.00000000000E+00  0.35516341794E+02  0.35516342151E+02  0.50400000000E-02 0. -1.
         -1   -1    0    0    0  501 -0.00000000000E+00 -0.00000000000E+00 -0.52772933140E+02  0.52772933381E+02  0.50400000000E-02 0.  1.
         23    2    1    2    0    0  0.00000000000E+00  0.88817841970E-15 -0.17256591346E+02  0.88289275532E+02  0.86586409032E+02 0.  0.
    9000005    2    3    3    0    0 -0.16138370530E+02  0.73679749609E+01 -0.48570973390E+02  0.52298657571E+02  0.78279032533E+01 0.  0.
         22    1    3    3    0    0  0.16138370530E+02 -0.73679749609E+01  0.31314382044E+02  0.35990617960E+02  0.00000000000E+00 0. -1.
         22    1    4    4    0    0 -0.14807075665E+02  0.67129823258E+01 -0.48050421547E+02  0.50726291332E+02  0.00000000000E+00 0. -1.
         22    1    4    4    0    0 -0.13312948648E+01  0.65499263505E+00 -0.52055184259E+00  0.15723662391E+01  0.00000000000E+00 0. -1.
<mgrwt>
<rscale>  0 0.86586409E+02</rscale>
<asrwt>0</asrwt>
<pdfrwt beam="1">  1        1 0.54640527E-02 0.86586409E+02</pdfrwt>
<pdfrwt beam="2">  1       -1 0.81189128E-02 0.86586409E+02</pdfrwt>
<totfact> 0.10302537E+05</totfact>
</mgrwt>
</event>
<event>
 7    1  0.3301067E-009  0.9066164E+02  0.7818608E-02  0.1301257E+00
          1   -1    0    0  501    0  0.00000000000E+00  0.00000000000E+00  0.16280445766E+02  0.16280446546E+02  0.50400000000E-02 0. -1.
         -1   -1    0    0    0  501 -0.00000000000E+00 -0.00000000000E+00 -0.12621786158E+03  0.12621786168E+03  0.50400000000E-02 0.  1.
         23    2    1    2    0    0  0.35527136788E-14  0.00000000000E+00 -0.10993741581E+03  0.14249830822E+03  0.90661637155E+02 0.  0.
    9000005    2    3    3    0    0 -0.27005022913E+02  0.23460824617E+02 -0.16058734187E+02  0.42034939688E+02  0.15145020852E+02 0.  0.
         22    1    3    3    0    0  0.27005022913E+02 -0.23460824617E+02 -0.93878681624E+02  0.10046336854E+03  0.00000000000E+00 0.  1.
         22    1    4    4    0    0 -0.43861233292E+01 -0.26291901334E+00  0.17516143760E+01  0.47302597379E+01  0.00000000000E+00 0.  1.
         22    1    4    4    0    0 -0.22618899584E+02  0.23723743630E+02 -0.17810348563E+02  0.37304679950E+02  0.00000000000E+00 0.  1.
<mgrwt>
<rscale>  0 0.90661637E+02</rscale>
<asrwt>0</asrwt>
<pdfrwt beam="1">  1        1 0.25046841E-02 0.90661637E+02</pdfrwt>
<pdfrwt beam="2">  1       -1 0.19418132E-01 0.90661637E+02</pdfrwt>
<totfact> 0.78858358E+04</totfact>
</mgrwt>
</event>
<event>
 7    1  0.3301067E-009  0.9281160E+02  0.7818608E-02  0.1296182E+00
         -1   -1    0    0    0  501 -0.00000000000E+00  0.00000000000E+00  0.28717814838E+03  0.28717814842E+03  0.50400000000E-02 0.  1.
          1   -1    0    0  501    0  0.00000000000E+00 -0.00000000000E+00 -0.74988221999E+01  0.74988238936E+01  0.50400000000E-02 0. -1.
         23    2    1    2    0    0  0.00000000000E+00  0.00000000000E+00  0.27967932618E+03  0.29467697232E+03  0.92811596914E+02 0.  0.
    9000005    2    3    3    0    0 -0.25469705555E+02  0.27516372099E+02  0.55569732567E+02  0.67452487316E+02  0.74823948762E+01 0.  0.
         22    1    3    3    0    0  0.25469705555E+02 -0.27516372099E+02  0.22410959361E+03  0.22722448500E+03  0.00000000000E+00 0.  1.
         22    1    4    4    0    0 -0.15556224174E+02  0.16767668199E+02  0.40108954768E+02  0.46172275881E+02  0.00000000000E+00 0. -1.
         22    1    4    4    0    0 -0.99134813807E+01  0.10748703900E+02  0.15460777798E+02  0.21280211436E+02  0.00000000000E+00 0. -1.
<mgrwt>
<rscale>  0 0.92811597E+02</rscale>
<asrwt>0</asrwt>
<pdfrwt beam="2">  1        1 0.11536650E-02 0.92811597E+02</pdfrwt>
<pdfrwt beam="1">  1       -1 0.44181257E-01 0.92811597E+02</pdfrwt>
<totfact> 0.58817819E+04</totfact>
</mgrwt>
</event>
<event>
 7    1  0.3301067E-009  0.9322026E+02  0.7818608E-02  0.1295236E+00
          1   -1    0    0  501    0  0.00000000000E+00  0.00000000000E+00  0.46746032271E+03  0.46746032273E+03  0.50400000000E-02 0. -1.
         -1   -1    0    0    0  501 -0.00000000000E+00 -0.00000000000E+00 -0.46474611761E+01  0.46474639090E+01  0.50400000000E-02 0.  1.
         23    2    1    2    0    0  0.00000000000E+00  0.00000000000E+00  0.46281286153E+03  0.47210778664E+03  0.93220262876E+02 0.  0.
    9000005    2    3    3    0    0 -0.39263571898E+02  0.18507632932E+02  0.31429608864E+03  0.31737772368E+03  0.79011137384E+01 0.  0.
         22    1    3    3    0    0  0.39263571898E+02 -0.18507632932E+02  0.14851677289E+03  0.15473006296E+03  0.00000000000E+00 0.  1.
         22    1    4    4    0    0 -0.33894599809E+01 -0.58324760887E+00  0.21005110324E+02  0.21284813282E+02  0.00000000000E+00 0.  1.
         22    1    4    4    0    0 -0.35874111917E+02  0.19090880541E+02  0.29329097832E+03  0.29609291040E+03  0.00000000000E+00 0.  1.
<mgrwt>
<rscale>  0 0.93220263E+02</rscale>
<asrwt>0</asrwt>
<pdfrwt beam="1">  1        1 0.71916980E-01 0.93220263E+02</pdfrwt>
<pdfrwt beam="2">  1       -1 0.71499416E-03 0.93220263E+02</pdfrwt>
<totfact> 0.13019210E+05</totfact>
</mgrwt>
</event>
<event>
 7    1  0.3301067E-009  0.8988912E+02  0.7818608E-02  0.1303120E+00
         -1   -1    0    0    0  501 -0.00000000000E+00  0.00000000000E+00  0.40863408460E+02  0.40863408771E+02  0.50400000000E-02 0.  1.
          1   -1    0    0  501    0  0.00000000000E+00 -0.00000000000E+00 -0.49433307917E+02  0.49433308174E+02  0.50400000000E-02 0. -1.
         23    2    1    2    0    0  0.00000000000E+00  0.00000000000E+00 -0.85698994568E+01  0.90296716944E+02  0.89889120111E+02 0.  0.
    9000005    2    3    3    0    0  0.29965347986E+02  0.28832856033E+02 -0.19302464487E+02  0.47349730798E+02  0.11838758568E+02 0.  0.
         22    1    3    3    0    0 -0.29965347986E+02 -0.28832856033E+02  0.10732565030E+02  0.42946986146E+02  0.00000000000E+00 0.  1.
         22    1    4    4    0    0  0.30122778113E+02  0.28642496159E+02 -0.20344926422E+02  0.46278400778E+02  0.00000000000E+00 0. -1.
         22    1    4    4    0    0 -0.15743012718E+00  0.19035987383E+00  0.10424619345E+01  0.10713300198E+01  0.00000000000E+00 0. -1.
<mgrwt>
<rscale>  0 0.89889120E+02</rscale>
<asrwt>0</asrwt>
<pdfrwt beam="2">  1        1 0.76051243E-02 0.89889120E+02</pdfrwt>
<pdfrwt beam="1">  1       -1 0.62866783E-02 0.89889120E+02</pdfrwt>
<totfact> 0.97394730E+04</totfact>
</mgrwt>
</event>
<event>
 7    1  0.3301067E-009  0.9247886E+02  0.7818608E-02  0.1296957E+00
          1   -1    0    0  501    0  0.00000000000E+00  0.00000000000E+00  0.10615686820E+03  0.10615686832E+03  0.50400000000E-02 0. -1.
         -1   -1    0    0    0  501 -0.00000000000E+00 -0.00000000000E+00 -0.20140807660E+02  0.20140808291E+02  0.50400000000E-02 0.  1.
         23    2    1    2    0    0  0.00000000000E+00  0.17763568394E-14  0.86016060536E+02  0.12629767661E+03  0.92478864862E+02 0.  0.
    9000005    2    3    3    0    0 -0.38011060879E+02 -0.15230935094E+02  0.71779300498E+02  0.82944389888E+02  0.71191081477E+01 0.  0.
         22    1    3    3    0    0  0.38011060879E+02  0.15230935094E+02  0.14236760038E+02  0.43353286719E+02  0.00000000000E+00 0.  1.
         22    1    4    4    0    0 -0.29595927109E+01 -0.24642734720E+01  0.38468546325E+01  0.54433558879E+01  0.00000000000E+00 0. -1.
         22    1    4    4    0    0 -0.35051468168E+02 -0.12766661622E+02  0.67932445866E+02  0.77501034000E+02  0.00000000000E+00 0. -1.
<mgrwt>
<rscale>  0 0.92478865E+02</rscale>
<asrwt>0</asrwt>
<pdfrwt beam="1">  1        1 0.16331826E-01 0.92478865E+02</pdfrwt>
<pdfrwt beam="2">  1       -1 0.30985859E-02 0.92478865E+02</pdfrwt>
<totfact> 0.10150144E+05</totfact>
</mgrwt>
</event>
<event>
 7    1  0.3301067E-009  0.9110340E+02  0.7818608E-02  0.1300201E+00
          1   -1    0    0  501    0  0.00000000000E+00  0.00000000000E+00  0.35250555869E+02  0.35250556229E+02  0.50400000000E-02 0. -1.
         -1   -1    0    0    0  501 -0.00000000000E+00 -0.00000000000E+00 -0.58863112520E+02  0.58863112735E+02  0.50400000000E-02 0.  1.
         23    2    1    2    0    0  0.00000000000E+00  0.00000000000E+00 -0.23612556651E+02  0.94113668964E+02  0.91103401991E+02 0.  0.
    9000005    2    3    3    0    0  0.32024674569E+02  0.14022343368E+02 -0.40163573777E+02  0.55433673325E+02  0.15413422232E+02 0.  0.
         22    1    3    3    0    0 -0.32024674569E+02 -0.14022343368E+02  0.16551017126E+02  0.38679995640E+02  0.00000000000E+00 0. -1.
         22    1    4    4    0    0  0.19391906603E+02  0.16308001425E+02 -0.27710074365E+02  0.37547905048E+02  0.00000000000E+00 0. -1.
         22    1    4    4    0    0  0.12632767966E+02 -0.22856580567E+01 -0.12453499412E+02  0.17885768277E+02  0.00000000000E+00 0. -1.
<mgrwt>
<rscale>  0 0.91103402E+02</rscale>
<asrwt>0</asrwt>
<pdfrwt beam="1">  1        1 0.54231625E-02 0.91103402E+02</pdfrwt>
<pdfrwt beam="2">  1       -1 0.90558635E-02 0.91103402E+02</pdfrwt>
<totfact> 0.89126638E+04</totfact>
</mgrwt>
</event>
<event>
 7    1  0.3301067E-009  0.8504209E+02  0.7818608E-02  0.1315323E+00
         -1   -1    0    0    0  501 -0.00000000000E+00  0.00000000000E+00  0.40499692778E+02  0.40499693092E+02  0.50400000000E-02 0.  1.
          1   -1    0    0  501    0  0.00000000000E+00 -0.00000000000E+00 -0.44643277960E+02  0.44643278245E+02  0.50400000000E-02 0. -1.
         23    2    1    2    0    0  0.35527136788E-14  0.00000000000E+00 -0.41435851821E+01  0.85142971337E+02  0.85042085286E+02 0.  0.
    9000005    2    3    3    0    0  0.24663056857E+02 -0.20829263433E+02 -0.27579975933E+02  0.45250754049E+02  0.15647718070E+02 0.  0.
         22    1    3    3    0    0 -0.24663056857E+02  0.20829263433E+02  0.23436390751E+02  0.39892217288E+02  0.00000000000E+00 0.  1.
         22    1    4    4    0    0 -0.10416820488E+01 -0.42011536581E+01 -0.74349965412E+01  0.86031370510E+01  0.00000000000E+00 0.  1.
         22    1    4    4    0    0  0.25704738906E+02 -0.16628109775E+02 -0.20144979392E+02  0.36647616998E+02  0.00000000000E+00 0.  1.
<mgrwt>
<rscale>  0 0.85042085E+02</rscale>
<asrwt>0</asrwt>
<pdfrwt beam="2">  1        1 0.68681967E-02 0.85042085E+02</pdfrwt>
<pdfrwt beam="1">  1       -1 0.62307220E-02 0.85042085E+02</pdfrwt>
<totfact> 0.11196654E+05</totfact>
</mgrwt>
</event>
<event>
 7    1  0.3301067E-009  0.9207003E+02  0.7818608E-02  0.1297915E+00
         -1   -1    0    0    0  501 -0.00000000000E+00  0.00000000000E+00  0.59814393282E+01  0.59814414515E+01  0.50400000000E-02 0.  1.
          1   -1    0    0  501    0  0.00000000000E+00 -0.00000000000E+00 -0.35429968373E+03  0.35429968376E+03  0.50400000000E-02 0. -1.
         23    2    1    2    0    0  0.00000000000E+00  0.00000000000E+00 -0.34831824440E+03  0.36028112522E+03  0.92070026636E+02 0.  0.
    9000005    2    3    3    0    0 -0.28168289270E+02 -0.19654639747E+02 -0.29374994735E+03  0.29580278446E+03  0.55225302415E+01 0.  0.
         22    1    3    3    0    0  0.28168289270E+02  0.19654639747E+02 -0.54568297046E+02  0.64478340755E+02  0.00000000000E+00 0.  1.
         22    1    4    4    0    0 -0.33049995508E+01 -0.32173726547E+01 -0.56498180211E+02  0.56686143598E+02  0.00000000000E+00 0.  1.
         22    1    4    4    0    0 -0.24863289720E+02 -0.16437267092E+02 -0.23725176714E+03  0.23911664086E+03  0.00000000000E+00 0.  1.
<mgrwt>
<rscale>  0 0.92070027E+02</rscale>
<asrwt>0</asrwt>
<pdfrwt beam="2">  1        1 0.54507627E-01 0.92070027E+02</pdfrwt>
<pdfrwt beam="1">  1       -1 0.92022188E-03 0.92070027E+02</pdfrwt>
<totfact> 0.12873530E+05</totfact>
</mgrwt>
</event>
<event>
 7    1  0.3301067E-009  0.9186011E+02  0.7818608E-02  0.1298409E+00
          1   -1    0    0  501    0  0.00000000000E+00  0.00000000000E+00  0.45853734727E+01  0.45853762426E+01  0.50400000000E-02 0. -1.
         -1   -1    0    0    0  501 -0.00000000000E+00 -0.00000000000E+00 -0.46006491954E+03  0.46006491957E+03  0.50400000000E-02 0.  1.
         23    2    1    2    0    0  0.00000000000E+00  0.00000000000E+00 -0.45547954607E+03  0.46465029581E+03  0.91860113819E+02 0.  0.
    9000005    2    3    3    0    0  0.16640948741E+02  0.40258169420E+02 -0.28646402614E+03  0.29011122467E+03  0.14326305319E+02 0.  0.
         22    1    3    3    0    0 -0.16640948741E+02 -0.40258169420E+02 -0.16901551992E+03  0.17453907114E+03  0.00000000000E+00 0. -1.
         22    1    4    4    0    0  0.18650156254E+02  0.29501944646E+02 -0.21518324938E+03  0.21799546756E+03  0.00000000000E+00 0. -1.
         22    1    4    4    0    0 -0.20092075127E+01  0.10756224773E+02 -0.71280776766E+02  0.72115757103E+02  0.00000000000E+00 0. -1.
<mgrwt>
<rscale>  0 0.91860114E+02</rscale>
<asrwt>0</asrwt>
<pdfrwt beam="1">  1        1 0.70544265E-03 0.91860114E+02</pdfrwt>
<pdfrwt beam="2">  1       -1 0.70779182E-01 0.91860114E+02</pdfrwt>
<totfact> 0.48468641E+04</totfact>
</mgrwt>
</event>
<event>
 7    1  0.3301067E-009  0.9047239E+02  0.7818608E-02  0.1301712E+00
          1   -1    0    0  501    0  0.00000000000E+00  0.00000000000E+00  0.40037274991E+02  0.40037275308E+02  0.50400000000E-02 0.  1.
         -1   -1    0    0    0  501 -0.00000000000E+00 -0.00000000000E+00 -0.51110206037E+02  0.51110206285E+02  0.50400000000E-02 0. -1.
         23    2    1    2    0    0  0.00000000000E+00  0.00000000000E+00 -0.11072931046E+02  0.91147481593E+02  0.90472391362E+02 0.  0.
    9000005    2    3    3    0    0 -0.22315956611E+02  0.27783341173E+02 -0.32588328108E+02  0.49520227577E+02  0.10969860717E+02 0.  0.
         22    1    3    3    0    0  0.22315956611E+02 -0.27783341173E+02  0.21515397062E+02  0.41627254016E+02  0.00000000000E+00 0.  1.
         22    1    4    4    0    0  0.27263555432E-01  0.51475521364E+00 -0.42716714240E+01  0.43026611516E+01  0.00000000000E+00 0.  1.
         22    1    4    4    0    0 -0.22343220167E+02  0.27268585959E+02 -0.28316656684E+02  0.45217566425E+02  0.00000000000E+00 0.  1.
<mgrwt>
<rscale>  0 0.90472391E+02</rscale>
<asrwt>0</asrwt>
<pdfrwt beam="1">  1        1 0.61595808E-02 0.90472391E+02</pdfrwt>
<pdfrwt beam="2">  1       -1 0.78631087E-02 0.90472391E+02</pdfrwt>
<totfact> 0.92682483E+04</totfact>
</mgrwt>
</event>
<event>
 7    1  0.3301067E-009  0.9524215E+02  0.7818608E-02  0.1290632E+00
         -1   -1    0    0    0  501 -0.00000000000E+00  0.00000000000E+00  0.96384089050E+01  0.96384102227E+01  0.50400000000E-02 0.  1.
          1   -1    0    0  501    0  0.00000000000E+00 -0.00000000000E+00 -0.23528434797E+03  0.23528434803E+03  0.50400000000E-02 0. -1.
         23    2    1    2    0    0  0.00000000000E+00  0.00000000000E+00 -0.22564593907E+03  0.24492275825E+03  0.95242152910E+02 0.  0.
    9000005    2    3    3    0    0 -0.44844921291E+02 -0.88109597093E+01 -0.90128926209E+02  0.10190681246E+03  0.13155801346E+02 0.  0.
         22    1    3    3    0    0  0.44844921291E+02  0.88109597093E+01 -0.13551701286E+03  0.14301594579E+03  0.00000000000E+00 0. -1.
         22    1    4    4    0    0 -0.13781331528E+02 -0.74378269692E+01 -0.39511149987E+02  0.42501498115E+02  0.00000000000E+00 0. -1.
         22    1    4    4    0    0 -0.31063589763E+02 -0.13731327402E+01 -0.50617776222E+02  0.59405314343E+02  0.00000000000E+00 0. -1.
<mgrwt>
<rscale>  0 0.95242153E+02</rscale>
<asrwt>0</asrwt>
<pdfrwt beam="2">  1        1 0.36197588E-01 0.95242153E+02</pdfrwt>
<pdfrwt beam="1">  1       -1 0.14828324E-02 0.95242153E+02</pdfrwt>
<totfact> 0.10872072E+05</totfact>
</mgrwt>
</event>
<event>
 7    1  0.3301067E-009  0.9140454E+02  0.7818608E-02  0.1299486E+00
         -1   -1    0    0    0  501 -0.00000000000E+00  0.00000000000E+00  0.62958328446E+02  0.62958328647E+02  0.50400000000E-02 0.  1.
          1   -1    0    0  501    0  0.00000000000E+00 -0.00000000000E+00 -0.33175870144E+02  0.33175870527E+02  0.50400000000E-02 0. -1.
         23    2    1    2    0    0  0.00000000000E+00  0.22204460493E-15  0.29782458302E+02  0.96134199174E+02  0.91404537242E+02 0.  0.
    9000005    2    3    3    0    0 -0.18454077224E+02  0.19096482259E+01  0.58772054615E+02  0.61716232690E+02  0.32464212855E+01 0.  0.
         22    1    3    3    0    0  0.18454077224E+02 -0.19096482259E+01 -0.28989596314E+02  0.34417966485E+02  0.00000000000E+00 0. -1.
         22    1    4    4    0    0 -0.15540341273E+02  0.15708697737E+01  0.52812747481E+02  0.55074096772E+02  0.00000000000E+00 0.  1.
         22    1    4    4    0    0 -0.29137359509E+01  0.33877845223E+00  0.59593071344E+01  0.66421359180E+01  0.00000000000E+00 0.  1.
<mgrwt>
<rscale>  0 0.91404537E+02</rscale>
<asrwt>0</asrwt>
<pdfrwt beam="2">  1        1 0.51039801E-02 0.91404537E+02</pdfrwt>
<pdfrwt beam="1">  1       -1 0.96858967E-02 0.91404537E+02</pdfrwt>
<totfact> 0.87458469E+04</totfact>
</mgrwt>
</event>
<event>
 7    1  0.3301067E-009  0.9174016E+02  0.7818608E-02  0.1298692E+00
          1   -1    0    0  501    0  0.00000000000E+00  0.00000000000E+00  0.45031888168E+03  0.45031888171E+03  0.50400000000E-02 0. -1.
         -1   -1    0    0    0  501 -0.00000000000E+00 -0.00000000000E+00 -0.46723862606E+01  0.46723889788E+01  0.50400000000E-02 0.  1.
         23    2    1    2    0    0  0.00000000000E+00  0.00000000000E+00  0.44564649542E+03  0.45499127069E+03  0.91740163079E+02 0.  0.
    9000005    2    3    3    0    0  0.49424920782E+01 -0.38645747347E+02  0.33949844292E+03  0.34191903243E+03  0.11467779817E+02 0.  0.
         22    1    3    3    0    0 -0.49424920782E+01  0.38645747347E+02  0.10614805249E+03  0.11307223826E+03  0.00000000000E+00 0.  1.
         22    1    4    4    0    0  0.18452132313E+01 -0.13049949303E+01  0.43475023206E+02  0.43533727917E+02  0.00000000000E+00 0. -1.
         22    1    4    4    0    0  0.30972788469E+01 -0.37340752416E+02  0.29602341972E+03  0.29838530451E+03  0.00000000000E+00 0. -1.
<mgrwt>
<rscale>  0 0.91740163E+02</rscale>
<asrwt>0</asrwt>
<pdfrwt beam="1">  1        1 0.69279826E-01 0.91740163E+02</pdfrwt>
<pdfrwt beam="2">  1       -1 0.71882889E-03 0.91740163E+02</pdfrwt>
<totfact> 0.13514369E+05</totfact>
</mgrwt>
</event>
<event>
 7    1  0.3301067E-009  0.8978900E+02  0.7818608E-02  0.1303363E+00
          1   -1    0    0  501    0  0.00000000000E+00  0.00000000000E+00  0.24927568013E+02  0.24927568523E+02  0.50400000000E-02 0. -1.
         -1   -1    0    0    0  501 -0.00000000000E+00 -0.00000000000E+00 -0.80854894562E+02  0.80854894719E+02  0.50400000000E-02 0.  1.
         23    2    1    2    0    0  0.00000000000E+00  0.00000000000E+00 -0.55927326548E+02  0.10578246324E+03  0.89788995286E+02 0.  0.
    9000005    2    3    3    0    0 -0.94395026838E+01  0.11225448621E+02 -0.77948164769E+02  0.79324341169E+02  0.11488269616E+01 0.  0.
         22    1    3    3    0    0  0.94395026838E+01 -0.11225448621E+02  0.22020838221E+02  0.26458122072E+02  0.00000000000E+00 0. -1.
         22    1    4    4    0    0 -0.18945440436E+01  0.27870120364E+01 -0.19775640923E+02  0.20060725489E+02  0.00000000000E+00 0.  1.
         22    1    4    4    0    0 -0.75449586402E+01  0.84384365846E+01 -0.58172523846E+02  0.59263615680E+02  0.00000000000E+00 0.  1.
<mgrwt>
<rscale>  0 0.89788995E+02</rscale>
<asrwt>0</asrwt>
<pdfrwt beam="1">  1        1 0.38350106E-02 0.89788995E+02</pdfrwt>
<pdfrwt beam="2">  1       -1 0.12439214E-01 0.89788995E+02</pdfrwt>
<totfact> 0.87879602E+04</totfact>
</mgrwt>
</event>
<event>
 7    1  0.3301067E-009  0.9310637E+02  0.7818608E-02  0.1295499E+00
         -1   -1    0    0    0  501 -0.00000000000E+00  0.00000000000E+00  0.15297298800E+03  0.15297298809E+03  0.50400000000E-02 0.  1.
          1   -1    0    0  501    0  0.00000000000E+00 -0.00000000000E+00 -0.14167200163E+02  0.14167201059E+02  0.50400000000E-02 0. -1.
         23    2    1    2    0    0  0.38857805862E-15 -0.71054273576E-14  0.13880578784E+03  0.16714018915E+03  0.93106369759E+02 0.  0.
    9000005    2    3    3    0    0 -0.34431001206E+00 -0.36534931491E+02  0.12073848776E+03  0.12638056328E+03  0.77035433563E+01 0.  0.
         22    1    3    3    0    0  0.34431001206E+00  0.36534931491E+02  0.18067300080E+02  0.40759625864E+02  0.00000000000E+00 0. -1.
         22    1    4    4    0    0 -0.32961502863E+01 -0.17511512468E+02  0.50494452233E+02  0.53546310628E+02  0.00000000000E+00 0.  1.
         22    1    4    4    0    0  0.29518402742E+01 -0.19023419023E+02  0.70244035527E+02  0.72834252653E+02  0.00000000000E+00 0.  1.
<mgrwt>
<rscale>  0 0.93106370E+02</rscale>
<asrwt>0</asrwt>
<pdfrwt beam="2">  1        1 0.21795692E-02 0.93106370E+02</pdfrwt>
<pdfrwt beam="1">  1       -1 0.23534307E-01 0.93106370E+02</pdfrwt>
<totfact> 0.70498589E+04</totfact>
</mgrwt>
</event>
<event>
 7    1  0.3301067E-009  0.9105422E+02  0.7818608E-02  0.1300319E+00
          1   -1    0    0  501    0  0.00000000000E+00  0.00000000000E+00  0.46967286292E+03  0.46967286295E+03  0.50400000000E-02 0. -1.
         -1   -1    0    0    0  501 -0.00000000000E+00 -0.00000000000E+00 -0.44131075350E+01  0.44131104130E+01  0.50400000000E-02 0.  1.
         23    2    1    2    0    0  0.00000000000E+00  0.00000000000E+00  0.46525975539E+03  0.47408597336E+03  0.91054215475E+02 0.  0.
    9000005    2    3    3    0    0 -0.15957491319E+02  0.30797485022E+02  0.38319748846E+03  0.38499421018E+03  0.13307896181E+02 0.  0.
         22    1    3    3    0    0  0.15957491319E+02 -0.30797485022E+02  0.82062266930E+02  0.89091763180E+02  0.00000000000E+00 0.  1.
         22    1    4    4    0    0 -0.17623139789E+01 -0.26857849331E+00  0.54032968556E+02  0.54062367465E+02  0.00000000000E+00 0.  1.
         22    1    4    4    0    0 -0.14195177340E+02  0.31066063516E+02  0.32916451990E+03  0.33093184272E+03  0.00000000000E+00 0.  1.
<mgrwt>
<rscale>  0 0.91054215E+02</rscale>
<asrwt>0</asrwt>
<pdfrwt beam="1">  1        1 0.72257315E-01 0.91054215E+02</pdfrwt>
<pdfrwt beam="2">  1       -1 0.67894031E-03 0.91054215E+02</pdfrwt>
<totfact> 0.13866616E+05</totfact>
</mgrwt>
</event>
<event>
 7    1  0.3301067E-009  0.9198293E+02  0.7818608E-02  0.1298120E+00
         -1   -1    0    0    0  501 -0.00000000000E+00  0.00000000000E+00  0.22941301826E+02  0.22941302380E+02  0.50400000000E-02 0.  1.
          1   -1    0    0  501    0  0.00000000000E+00 -0.00000000000E+00 -0.92201161467E+02  0.92201161605E+02  0.50400000000E-02 0. -1.
         23    2    1    2    0    0 -0.17763568394E-14 -0.71054273576E-14 -0.69259859641E+02  0.11514246398E+03  0.91982926976E+02 0.  0.
    9000005    2    3    3    0    0  0.15311435815E+02 -0.35659222240E+02 -0.57398117585E+01  0.40705801779E+02  0.10862626845E+02 0.  0.
         22    1    3    3    0    0 -0.15311435815E+02  0.35659222240E+02 -0.63520047882E+02  0.74436662206E+02  0.00000000000E+00 0. -1.
         22    1    4    4    0    0 -0.17009566288E+01 -0.42208835807E+01 -0.78210162632E+00  0.46174445972E+01  0.00000000000E+00 0.  1.
         22    1    4    4    0    0  0.17012392444E+02 -0.31438338659E+02 -0.49577101322E+01  0.36088357181E+02  0.00000000000E+00 0.  1.
<mgrwt>
<rscale>  0 0.91982927E+02</rscale>
<asrwt>0</asrwt>
<pdfrwt beam="2">  1        1 0.14184794E-01 0.91982927E+02</pdfrwt>
<pdfrwt beam="1">  1       -1 0.35294312E-02 0.91982927E+02</pdfrwt>
<totfact> 0.10061150E+05</totfact>
</mgrwt>
</event>
<event>
 7    1  0.3301067E-009  0.9230834E+02  0.7818608E-02  0.1297356E+00
          1   -1    0    0  501    0  0.00000000000E+00  0.00000000000E+00  0.85826898662E+03  0.85826898664E+03  0.50400000000E-02 0. -1.
         -1   -1    0    0    0  501 -0.00000000000E+00 -0.00000000000E+00 -0.24819785987E+01  0.24819837159E+01  0.50400000000E-02 0.  1.
         23    2    1    2    0    0  0.88817841970E-15  0.00000000000E+00  0.85578700802E+03  0.86075097035E+03  0.92308341235E+02 0.  0.
    9000005    2    3    3    0    0  0.57455209150E+01 -0.16073132679E+02  0.82686120232E+03  0.82716438314E+03  0.14495248778E+02 0.  0.
         22    1    3    3    0    0 -0.57455209150E+01  0.16073132679E+02  0.28925805706E+02  0.33586587210E+02  0.00000000000E+00 0.  1.
         22    1    4    4    0    0  0.57632718584E+00 -0.16158644699E+02  0.49767399294E+03  0.49793657950E+03  0.00000000000E+00 0. -1.
         22    1    4    4    0    0  0.51691937291E+01  0.85512020511E-01  0.32918720937E+03  0.32922780364E+03  0.00000000000E+00 0. -1.
<mgrwt>
<rscale>  0 0.92308341E+02</rscale>
<asrwt>0</asrwt>
<pdfrwt beam="1">  1        1 0.13204144E+00 0.92308341E+02</pdfrwt>
<pdfrwt beam="2">  1       -1 0.38184310E-03 0.92308341E+02</pdfrwt>
<totfact> 0.13569867E+05</totfact>
</mgrwt>
</event>
<event>
 7    1  0.3301067E-009  0.9096587E+02  0.7818608E-02  0.1300529E+00
         -1   -1    0    0    0  501 -0.00000000000E+00  0.00000000000E+00  0.66586983147E+02  0.66586983338E+02  0.50400000000E-02 0.  1.
          1   -1    0    0  501    0  0.00000000000E+00 -0.00000000000E+00 -0.31067592834E+02  0.31067593243E+02  0.50400000000E-02 0. -1.
         23    2    1    2    0    0 -0.35527136788E-14  0.35527136788E-14  0.35519390313E+02  0.97654576580E+02  0.90965868538E+02 0.  0.
    9000005    2    3    3    0    0  0.18667609411E+02 -0.20815508811E+02  0.55972903057E+02  0.63011954974E+02  0.74683026702E+01 0.  0.
         22    1    3    3    0    0 -0.18667609411E+02  0.20815508811E+02 -0.20453512744E+02  0.34642621607E+02  0.00000000000E+00 0. -1.
         22    1    4    4    0    0  0.68804172959E+01 -0.29290048691E+01  0.13048544336E+02  0.15039405606E+02  0.00000000000E+00 0. -1.
         22    1    4    4    0    0  0.11787192115E+02 -0.17886503942E+02  0.42924358722E+02  0.47972549368E+02  0.00000000000E+00 0. -1.
<mgrwt>
<rscale>  0 0.90965869E+02</rscale>
<asrwt>0</asrwt>
<pdfrwt beam="2">  1        1 0.47796298E-02 0.90965869E+02</pdfrwt>
<pdfrwt beam="1">  1       -1 0.10244151E-01 0.90965869E+02</pdfrwt>
<totfact> 0.87753000E+04</totfact>
</mgrwt>
</event>
<event>
 7    1  0.3301067E-009  0.8902903E+02  0.7818608E-02  0.1305220E+00
         -1   -1    0    0    0  501 -0.00000000000E+00  0.00000000000E+00  0.21896659248E+02  0.21896659828E+02  0.50400000000E-02 0.  1.
          1   -1    0    0  501    0  0.00000000000E+00 -0.00000000000E+00 -0.90495176590E+02  0.90495176730E+02  0.50400000000E-02 0. -1.
         23    2    1    2    0    0 -0.35527136788E-14 -0.71054273576E-14 -0.68598517342E+02  0.11239183656E+03  0.89029030902E+02 0.  0.
    9000005    2    3    3    0    0 -0.24564239021E+02 -0.32725814442E+02 -0.15850865659E+02  0.45633349999E+02  0.12520859411E+02 0.  0.
         22    1    3    3    0    0  0.24564239021E+02  0.32725814442E+02 -0.52747651683E+02  0.66758486559E+02  0.00000000000E+00 0. -1.
         22    1    4    4    0    0 -0.15354093650E+02 -0.28809294511E+02 -0.10549266079E+02  0.34307588911E+02  0.00000000000E+00 0.  1.
         22    1    4    4    0    0 -0.92101453711E+01 -0.39165199309E+01 -0.53015995800E+01  0.11325761088E+02  0.00000000000E+00 0.  1.
<mgrwt>
<rscale>  0 0.89029031E+02</rscale>
<asrwt>0</asrwt>
<pdfrwt beam="2">  1        1 0.13922335E-01 0.89029031E+02</pdfrwt>
<pdfrwt beam="1">  1       -1 0.33687169E-02 0.89029031E+02</pdfrwt>
<totfact> 0.10965487E+05</totfact>
</mgrwt>
</event>
<event>
 7    1  0.3301067E-009  0.9229232E+02  0.7818608E-02  0.1297394E+00
          1   -1    0    0  501    0  0.00000000000E+00  0.00000000000E+00  0.15393521444E+03  0.15393521452E+03  0.50400000000E-02 0. -1.
         -1   -1    0    0    0  501 -0.00000000000E+00 -0.00000000000E+00 -0.13833535182E+02  0.13833536100E+02  0.50400000000E-02 0.  1.
         23    2    1    2    0    0  0.35527136788E-14 -0.17763568394E-14  0.14010167926E+03  0.16776875062E+03  0.92292324463E+02 0.  0.
    9000005    2    3    3    0    0 -0.29941747450E+02  0.73595727913E+01  0.13233925182E+03  0.13597367503E+03  0.49488563042E+01 0.  0.
         22    1    3    3    0    0  0.29941747450E+02 -0.73595727913E+01  0.77624274432E+01  0.31795075591E+02  0.00000000000E+00 0.  1.
         22    1    4    4    0    0 -0.22096094756E+02  0.75955427950E+01  0.10075215026E+03  0.10342594189E+03  0.00000000000E+00 0.  1.
         22    1    4    4    0    0 -0.78456526943E+01 -0.23597000376E+00  0.31587101560E+02  0.32547733147E+02  0.00000000000E+00 0.  1.
<mgrwt>
<rscale>  0 0.92292324E+02</rscale>
<asrwt>0</asrwt>
<pdfrwt beam="1">  1        1 0.23682341E-01 0.92292324E+02</pdfrwt>
<pdfrwt beam="2">  1       -1 0.21282362E-02 0.92292324E+02</pdfrwt>
<totfact> 0.10902964E+05</totfact>
</mgrwt>
</event>
<event>
 7    1  0.3301067E-009  0.8441152E+02  0.7818608E-02  0.1316979E+00
         -1   -1    0    0    0  501 -0.00000000000E+00  0.00000000000E+00  0.42557541832E+02  0.42557542130E+02  0.50400000000E-02 0.  1.
          1   -1    0    0  501    0  0.00000000000E+00 -0.00000000000E+00 -0.41856884416E+02  0.41856884719E+02  0.50400000000E-02 0. -1.
         23    2    1    2    0    0  0.00000000000E+00  0.00000000000E+00  0.70065741592E+00  0.84414426850E+02  0.84411518998E+02 0.  0.
    9000005    2    3    3    0    0 -0.35808431796E+02  0.89568846703E+01 -0.18237777507E+02  0.42927876161E+02  0.12153865750E+02 0.  0.
         22    1    3    3    0    0  0.35808431796E+02 -0.89568846703E+01  0.18938434922E+02  0.41486550688E+02  0.00000000000E+00 0.  1.
         22    1    4    4    0    0 -0.31702590512E+02  0.91147071576E+01 -0.19867288874E+02  0.38507678441E+02  0.00000000000E+00 0. -1.
         22    1    4    4    0    0 -0.41058412843E+01 -0.15782248724E+00  0.16295113676E+01  0.44201977203E+01  0.00000000000E+00 0. -1.
<mgrwt>
<rscale>  0 0.84411519E+02</rscale>
<asrwt>0</asrwt>
<pdfrwt beam="2">  1        1 0.64395207E-02 0.84411519E+02</pdfrwt>
<pdfrwt beam="1">  1       -1 0.65473142E-02 0.84411519E+02</pdfrwt>
<totfact> 0.11326914E+05</totfact>
</mgrwt>
</event>
<event>
 7    1  0.3301067E-009  0.9018887E+02  0.7818608E-02  0.1302395E+00
         -1   -1    0    0    0  501 -0.00000000000E+00  0.00000000000E+00  0.14795920197E+02  0.14795921056E+02  0.50400000000E-02 0.  1.
          1   -1    0    0  501    0  0.00000000000E+00 -0.00000000000E+00 -0.13743706406E+03  0.13743706415E+03  0.50400000000E-02 0. -1.
         23    2    1    2    0    0  0.00000000000E+00  0.00000000000E+00 -0.12264114386E+03  0.15223298521E+03  0.90188866371E+02 0.  0.
    9000005    2    3    3    0    0 -0.43290067065E+02  0.24683665382E+01 -0.40736587347E+02  0.59558937504E+02  0.27703335671E+01 0.  0.
         22    1    3    3    0    0  0.43290067065E+02 -0.24683665382E+01 -0.81904556515E+02  0.92674047704E+02  0.00000000000E+00 0.  1.
         22    1    4    4    0    0 -0.34664027617E+02  0.28872837008E+01 -0.31756474140E+02  0.47099945516E+02  0.00000000000E+00 0.  1.
         22    1    4    4    0    0 -0.86260394474E+01 -0.41891716259E+00 -0.89801132079E+01  0.12458991988E+02  0.00000000000E+00 0.  1.
<mgrwt>
<rscale>  0 0.90188866E+02</rscale>
<asrwt>0</asrwt>
<pdfrwt beam="2">  1        1 0.21144163E-01 0.90188866E+02</pdfrwt>
<pdfrwt beam="1">  1       -1 0.22762956E-02 0.90188866E+02</pdfrwt>
<totfact> 0.11365531E+05</totfact>
</mgrwt>
</event>
<event>
 7    1  0.3301067E-009  0.8957479E+02  0.7818608E-02  0.1303885E+00
          1   -1    0    0  501    0  0.00000000000E+00  0.00000000000E+00  0.26823551909E+02  0.26823552382E+02  0.50400000000E-02 0. -1.
         -1   -1    0    0    0  501 -0.00000000000E+00 -0.00000000000E+00 -0.74781698795E+02  0.74781698965E+02  0.50400000000E-02 0.  1.
         23    2    1    2    0    0 -0.71054273576E-14 -0.44408920985E-15 -0.47958146886E+02  0.10160525135E+03  0.89574791368E+02 0.  0.
    9000005    2    3    3    0    0  0.33456694493E+02  0.30611528824E+01  0.95566151502E+01  0.34996926677E+02  0.21759872069E+01 0.  0.
         22    1    3    3    0    0 -0.33456694493E+02 -0.30611528824E+01 -0.57514762036E+02  0.66608324670E+02  0.00000000000E+00 0.  1.
         22    1    4    4    0    0  0.11660452387E+02  0.13438787926E+01  0.23041247777E+01  0.11961653359E+02  0.00000000000E+00 0. -1.
         22    1    4    4    0    0  0.21796242105E+02  0.17172740898E+01  0.72524903725E+01  0.23035273318E+02  0.00000000000E+00 0. -1.
<mgrwt>
<rscale>  0 0.89574791E+02</rscale>
<asrwt>0</asrwt>
<pdfrwt beam="1">  1        1 0.41267004E-02 0.89574791E+02</pdfrwt>
<pdfrwt beam="2">  1       -1 0.11504877E-01 0.89574791E+02</pdfrwt>
<totfact> 0.89571879E+04</totfact>
</mgrwt>
</event>
<event>
 7    1  0.3301067E-009  0.8945006E+02  0.7818608E-02  0.1304189E+00
          1   -1    0    0  501    0  0.00000000000E+00  0.00000000000E+00  0.48900543956E+01  0.48900569929E+01  0.50400000000E-02 0. -1.
         -1   -1    0    0    0  501 -0.00000000000E+00 -0.00000000000E+00 -0.40906040754E+03  0.40906040757E+03  0.50400000000E-02 0.  1.
         23    2    1    2    0    0  0.00000000000E+00  0.00000000000E+00 -0.40417035315E+03  0.41395046457E+03  0.89450057305E+02 0.  0.
    9000005    2    3    3    0    0  0.57826984346E+01 -0.16752244196E+02 -0.39174398175E+03  0.39230578871E+03  0.11243101601E+02 0.  0.
         22    1    3    3    0    0 -0.57826984346E+01  0.16752244196E+02 -0.12426371401E+02  0.21644675858E+02  0.00000000000E+00 0. -1.
         22    1    4    4    0    0  0.61529034304E+01 -0.18252490655E+02 -0.37356404875E+03  0.37406030283E+03  0.00000000000E+00 0.  1.
         22    1    4    4    0    0 -0.37020499580E+00  0.15002464587E+01 -0.18179932995E+02  0.18245485877E+02  0.00000000000E+00 0.  1.
<mgrwt>
<rscale>  0 0.89450057E+02</rscale>
<asrwt>0</asrwt>
<pdfrwt beam="1">  1        1 0.75231659E-03 0.89450057E+02</pdfrwt>
<pdfrwt beam="2">  1       -1 0.62932343E-01 0.89450057E+02</pdfrwt>
<totfact> 0.55388025E+04</totfact>
</mgrwt>
</event>
<event>
 7    1  0.3301067E-009  0.9186399E+02  0.7818608E-02  0.1298400E+00
         -1   -1    0    0    0  501 -0.00000000000E+00  0.00000000000E+00  0.24795274362E+02  0.24795274874E+02  0.50400000000E-02 0.  1.
          1   -1    0    0  501    0  0.00000000000E+00 -0.00000000000E+00 -0.85086698465E+02  0.85086698614E+02  0.50400000000E-02 0. -1.
         23    2    1    2    0    0  0.00000000000E+00  0.00000000000E+00 -0.60291424103E+02  0.10988197349E+03  0.91863987924E+02 0.  0.
    9000005    2    3    3    0    0  0.43733011934E+02  0.89931207855E+01 -0.30149658784E+02  0.56011957980E+02  0.15325956991E+02 0.  0.
         22    1    3    3    0    0 -0.43733011934E+02 -0.89931207855E+01 -0.30141765319E+02  0.53870015508E+02  0.00000000000E+00 0. -1.
         22    1    4    4    0    0  0.24012564756E+02  0.23665841107E+01 -0.75222719677E+01  0.25274266796E+02  0.00000000000E+00 0.  1.
         22    1    4    4    0    0  0.19720447178E+02  0.66265366748E+01 -0.22627386816E+02  0.30737691184E+02  0.00000000000E+00 0.  1.
<mgrwt>
<rscale>  0 0.91863988E+02</rscale>
<asrwt>0</asrwt>
<pdfrwt beam="2">  1        1 0.13090261E-01 0.91863988E+02</pdfrwt>
<pdfrwt beam="1">  1       -1 0.38146577E-02 0.91863988E+02</pdfrwt>
<totfact> 0.99661775E+04</totfact>
</mgrwt>
</event>
<event>
 7    1  0.3301067E-009  0.9077733E+02  0.7818608E-02  0.1300980E+00
         -1   -1    0    0    0  501 -0.00000000000E+00  0.00000000000E+00  0.26965544828E+02  0.26965545299E+02  0.50400000000E-02 0.  1.
          1   -1    0    0  501    0  0.00000000000E+00 -0.00000000000E+00 -0.76398629308E+02  0.76398629474E+02  0.50400000000E-02 0. -1.
         23    2    1    2    0    0  0.17763568394E-14  0.00000000000E+00 -0.49433084480E+02  0.10336417477E+03  0.90777325281E+02 0.  0.
    9000005    2    3    3    0    0  0.88945018985E+01  0.37573872433E+02 -0.49864362566E+02  0.64749487742E+02  0.14667428376E+02 0.  0.
         22    1    3    3    0    0 -0.88945018985E+01 -0.37573872433E+02  0.43127808547E+00  0.38614687030E+02  0.00000000000E+00 0.  1.
         22    1    4    4    0    0  0.29815399179E+01  0.28958016829E+02 -0.44023866128E+02  0.52778377275E+02  0.00000000000E+00 0. -1.
         22    1    4    4    0    0  0.59129619806E+01  0.86158556041E+01 -0.58404964374E+01  0.11971110467E+02  0.00000000000E+00 0. -1.
<mgrwt>
<rscale>  0 0.90777325E+02</rscale>
<asrwt>0</asrwt>
<pdfrwt beam="2">  1        1 0.11753635E-01 0.90777325E+02</pdfrwt>
<pdfrwt beam="1">  1       -1 0.41485454E-02 0.90777325E+02</pdfrwt>
<totfact> 0.10123166E+05</totfact>
</mgrwt>
</event>
<event>
 7    1  0.3301067E-009  0.8835571E+02  0.7818608E-02  0.1306883E+00
          1   -1    0    0  501    0  0.00000000000E+00  0.00000000000E+00  0.25052183378E+03  0.25052183384E+03  0.50400000000E-02 0. -1.
         -1   -1    0    0    0  501 -0.00000000000E+00 -0.00000000000E+00 -0.77904700088E+01  0.77904716391E+01  0.50400000000E-02 0.  1.
         23    2    1    2    0    0  0.00000000000E+00  0.00000000000E+00  0.24273136378E+03  0.25831230547E+03  0.88355714015E+02 0.  0.
    9000005    2    3    3    0    0 -0.18970569645E+02 -0.10735902236E+02  0.23339167932E+03  0.23459792555E+03  0.94534960159E+01 0.  0.
         22    1    3    3    0    0  0.18970569645E+02  0.10735902236E+02  0.93396844547E+01  0.23714379924E+02  0.00000000000E+00 0.  1.
         22    1    4    4    0    0 -0.10231887473E+02 -0.70612334821E+01  0.17506741311E+03  0.17550826668E+03  0.00000000000E+00 0.  1.
         22    1    4    4    0    0 -0.87386821713E+01 -0.36746687535E+01  0.58324266210E+02  0.59089658871E+02  0.00000000000E+00 0.  1.
<mgrwt>
<rscale>  0 0.88355714E+02</rscale>
<asrwt>0</asrwt>
<pdfrwt beam="1">  1        1 0.38541825E-01 0.88355714E+02</pdfrwt>
<pdfrwt beam="2">  1       -1 0.11985339E-02 0.88355714E+02</pdfrwt>
<totfact> 0.13453119E+05</totfact>
</mgrwt>
</event>
<event>
 7    1  0.3301067E-009  0.9223502E+02  0.7818608E-02  0.1297528E+00
          1   -1    0    0  501    0  0.00000000000E+00  0.00000000000E+00  0.35937709858E+03  0.35937709862E+03  0.50400000000E-02 0. -1.
         -1   -1    0    0    0  501 -0.00000000000E+00 -0.00000000000E+00 -0.59180854084E+01  0.59180875545E+01  0.50400000000E-02 0.  1.
         23    2    1    2    0    0  0.00000000000E+00  0.17763568394E-14  0.35345901318E+03  0.36529518617E+03  0.92235020717E+02 0.  0.
    9000005    2    3    3    0    0 -0.29007130873E+02 -0.15925924107E+02  0.30382952261E+03  0.30564508111E+03  0.33894097773E+01 0.  0.
         22    1    3    3    0    0  0.29007130873E+02  0.15925924107E+02  0.49629490571E+02  0.59650105067E+02  0.00000000000E+00 0.  1.
         22    1    4    4    0    0 -0.32913072802E+01 -0.17459025005E+01  0.45333766476E+02  0.45486605304E+02  0.00000000000E+00 0. -1.
         22    1    4    4    0    0 -0.25715823593E+02 -0.14180021607E+02  0.25849575613E+03  0.26015847580E+03  0.00000000000E+00 0. -1.
<mgrwt>
<rscale>  0 0.92235021E+02</rscale>
<asrwt>0</asrwt>
<pdfrwt beam="1">  1        1 0.55288776E-01 0.92235021E+02</pdfrwt>
<pdfrwt beam="2">  1       -1 0.91047499E-03 0.92235021E+02</pdfrwt>
<totfact> 0.12844590E+05</totfact>
</mgrwt>
</event>
<event>
 7    1  0.3301067E-009  0.9129132E+02  0.7818608E-02  0.1299754E+00
         -1   -1    0    0    0  501 -0.00000000000E+00  0.00000000000E+00  0.34357093663E+01  0.34357130630E+01  0.50400000000E-02 0.  1.
          1   -1    0    0  501    0  0.00000000000E+00 -0.00000000000E+00 -0.60643227320E+03  0.60643227322E+03  0.50400000000E-02 0. -1.
         23    2    1    2    0    0 -0.17763568394E-14  0.35527136788E-14 -0.60299656383E+03  0.60986798628E+03  0.91291317763E+02 0.  0.
    9000005    2    3    3    0    0 -0.13079664725E+02  0.20139966679E+02 -0.55982235275E+03  0.56046446019E+03  0.11943559708E+02 0.  0.
         22    1    3    3    0    0  0.13079664725E+02 -0.20139966679E+02 -0.43174211088E+02  0.49403526091E+02  0.00000000000E+00 0.  1.
         22    1    4    4    0    0  0.16968227831E+01 -0.84275758691E-01 -0.26647212325E+02  0.26701315223E+02  0.00000000000E+00 0.  1.
         22    1    4    4    0    0 -0.14776487508E+02  0.20224242438E+02 -0.53317514042E+03  0.53376314497E+03  0.00000000000E+00 0.  1.
<mgrwt>
<rscale>  0 0.91291318E+02</rscale>
<asrwt>0</asrwt>
<pdfrwt beam="2">  1        1 0.93297188E-01 0.91291318E+02</pdfrwt>
<pdfrwt beam="1">  1       -1 0.52857144E-03 0.91291318E+02</pdfrwt>
<totfact> 0.14120454E+05</totfact>
</mgrwt>
</event>
<event>
 7    1  0.3301067E-009  0.9351100E+02  0.7818608E-02  0.1294565E+00
         -1   -1    0    0    0  501 -0.00000000000E+00  0.00000000000E+00  0.10149095978E+02  0.10149097229E+02  0.50400000000E-02 0.  1.
          1   -1    0    0  501    0  0.00000000000E+00 -0.00000000000E+00 -0.21539620852E+03  0.21539620858E+03  0.50400000000E-02 0. -1.
         23    2    1    2    0    0  0.00000000000E+00  0.00000000000E+00 -0.20524711255E+03  0.22554530581E+03  0.93511003444E+02 0.  0.
    9000005    2    3    3    0    0  0.35265829300E+02  0.59816506447E+01 -0.17452641120E+03  0.17839426816E+03  0.92513698467E+01 0.  0.
         22    1    3    3    0    0 -0.35265829300E+02 -0.59816506447E+01 -0.30720701344E+02  0.47151037653E+02  0.00000000000E+00 0.  1.
         22    1    4    4    0    0  0.24974178494E+02  0.34333636698E+01 -0.10055068026E+03  0.10366261080E+03  0.00000000000E+00 0.  1.
         22    1    4    4    0    0  0.10291650806E+02  0.25482869749E+01 -0.73975730943E+02  0.74731657358E+02  0.00000000000E+00 0.  1.
<mgrwt>
<rscale>  0 0.93511003E+02</rscale>
<asrwt>0</asrwt>
<pdfrwt beam="2">  1        1 0.33137875E-01 0.93511003E+02</pdfrwt>
<pdfrwt beam="1">  1       -1 0.15613996E-02 0.93511003E+02</pdfrwt>
<totfact> 0.11224697E+05</totfact>
</mgrwt>
</event>
<event>
 7    1  0.3301067E-009  0.9152601E+02  0.7818608E-02  0.1299198E+00
          1   -1    0    0  501    0  0.00000000000E+00  0.00000000000E+00  0.43563400668E+02  0.43563400960E+02  0.50400000000E-02 0.  1.
         -1   -1    0    0    0  501 -0.00000000000E+00 -0.00000000000E+00 -0.48073669919E+02  0.48073670183E+02  0.50400000000E-02 0. -1.
         23    2    1    2    0    0  0.55511151231E-16  0.00000000000E+00 -0.45102692506E+01  0.91637071143E+02  0.91526008757E+02 0.  0.
    9000005    2    3    3    0    0  0.12584256133E+00  0.17743922084E+02 -0.44254601070E+02  0.48111509469E+02  0.64331190142E+01 0.  0.
         22    1    3    3    0    0 -0.12584256133E+00 -0.17743922084E+02  0.39744331819E+02  0.43525561674E+02  0.00000000000E+00 0.  1.
         22    1    4    4    0    0 -0.67252360508E+00  0.69781943783E+01 -0.10123846038E+02  0.12314209004E+02  0.00000000000E+00 0.  1.
         22    1    4    4    0    0  0.79836616641E+00  0.10765727706E+02 -0.34130755032E+02  0.35797300465E+02  0.00000000000E+00 0.  1.
<mgrwt>
<rscale>  0 0.91526009E+02</rscale>
<asrwt>0</asrwt>
<pdfrwt beam="1">  1        1 0.67020617E-02 0.91526009E+02</pdfrwt>
<pdfrwt beam="2">  1       -1 0.73959493E-02 0.91526009E+02</pdfrwt>
<totfact> 0.90858465E+04</totfact>
</mgrwt>
</event>
<event>
 7    1  0.3301067E-009  0.8883202E+02  0.7818608E-02  0.1305705E+00
          1   -1    0    0  501    0  0.00000000000E+00  0.00000000000E+00  0.44298026042E+02  0.44298026328E+02  0.50400000000E-02 0. -1.
         -1   -1    0    0    0  501 -0.00000000000E+00 -0.00000000000E+00 -0.44534312334E+02  0.44534312619E+02  0.50400000000E-02 0.  1.
         23    2    1    2    0    0 -0.35527136788E-14  0.00000000000E+00 -0.23628629203E+00  0.88832338947E+02  0.88832024696E+02 0.  0.
    9000005    2    3    3    0    0  0.28099028157E+02  0.33320602119E+02 -0.86028995212E+01  0.44449705791E+02  0.13959067743E+01 0.  0.
         22    1    3    3    0    0 -0.28099028157E+02 -0.33320602119E+02  0.83666132291E+01  0.44382633156E+02  0.00000000000E+00 0. -1.
         22    1    4    4    0    0  0.26714014626E+02  0.31455510380E+02 -0.84258539664E+01  0.42119861417E+02  0.00000000000E+00 0.  1.
         22    1    4    4    0    0  0.13850135310E+01  0.18650917390E+01 -0.17704555481E+00  0.23298443735E+01  0.00000000000E+00 0.  1.
<mgrwt>
<rscale>  0 0.88832025E+02</rscale>
<asrwt>0</asrwt>
<pdfrwt beam="1">  1        1 0.68150809E-02 0.88832025E+02</pdfrwt>
<pdfrwt beam="2">  1       -1 0.68514327E-02 0.88832025E+02</pdfrwt>
<totfact> 0.99047359E+04</totfact>
</mgrwt>
</event>
<event>
 7    1  0.3301067E-009  0.9180282E+02  0.7818608E-02  0.1298544E+00
         -1   -1    0    0    0  501 -0.00000000000E+00  0.00000000000E+00  0.21843470717E+01  0.21843528861E+01  0.50400000000E-02 0.  1.
          1   -1    0    0  501    0  0.00000000000E+00 -0.00000000000E+00 -0.96456120957E+03  0.96456120958E+03  0.50400000000E-02 0. -1.
         23    2    1    2    0    0  0.00000000000E+00  0.00000000000E+00 -0.96237686250E+03  0.96674556247E+03  0.91802816307E+02 0.  0.
    9000005    2    3    3    0    0 -0.28744551957E+02  0.24216915733E+02 -0.75225242207E+03  0.75328599080E+03  0.11973685323E+02 0.  0.
         22    1    3    3    0    0  0.28744551957E+02 -0.24216915733E+02 -0.21012444042E+03  0.21345957167E+03  0.00000000000E+00 0.  1.
         22    1    4    4    0    0 -0.10366597282E+02  0.15034397088E+02 -0.42222194840E+03  0.42261669766E+03  0.00000000000E+00 0.  1.
         22    1    4    4    0    0 -0.18377954675E+02  0.91825186446E+01 -0.33003047368E+03  0.33066929313E+03  0.00000000000E+00 0.  1.
<mgrwt>
<rscale>  0 0.91802816E+02</rscale>
<asrwt>0</asrwt>
<pdfrwt beam="2">  1        1 0.14839369E+00 0.91802816E+02</pdfrwt>
<pdfrwt beam="1">  1       -1 0.33605461E-03 0.91802816E+02</pdfrwt>
<totfact> 0.13478108E+05</totfact>
</mgrwt>
</event>
<event>
 7    1  0.3301067E-009  0.9042210E+02  0.7818608E-02  0.1301833E+00
         -1   -1    0    0    0  501 -0.00000000000E+00  0.00000000000E+00  0.60149496245E+01  0.60149517360E+01  0.50400000000E-02 0.  1.
          1   -1    0    0  501    0  0.00000000000E+00 -0.00000000000E+00 -0.33982643320E+03  0.33982643323E+03  0.50400000000E-02 0. -1.
         23    2    1    2    0    0  0.00000000000E+00  0.00000000000E+00 -0.33381148357E+03  0.34584138497E+03  0.90422104561E+02 0.  0.
    9000005    2    3    3    0    0 -0.11698110936E+02  0.39052897373E+02 -0.94469806987E+02  0.10305256162E+03  0.57716056473E+01 0.  0.
         22    1    3    3    0    0  0.11698110936E+02 -0.39052897373E+02 -0.23934167658E+03  0.24278882335E+03  0.00000000000E+00 0. -1.
         22    1    4    4    0    0 -0.46048035875E+01  0.84756832017E+01 -0.25965505036E+02  0.27699257636E+02  0.00000000000E+00 0.  1.
         22    1    4    4    0    0 -0.70933073480E+01  0.30577214171E+02 -0.68504301951E+02  0.75353303985E+02  0.00000000000E+00 0.  1.
<mgrwt>
<rscale>  0 0.90422105E+02</rscale>
<asrwt>0</asrwt>
<pdfrwt beam="2">  1        1 0.52280975E-01 0.90422105E+02</pdfrwt>
<pdfrwt beam="1">  1       -1 0.92537730E-03 0.90422105E+02</pdfrwt>
<totfact> 0.13406380E+05</totfact>
</mgrwt>
</event>
<event>
 7    1  0.3301067E-009  0.9105321E+02  0.7818608E-02  0.1300321E+00
          1   -1    0    0  501    0  0.00000000000E+00  0.00000000000E+00  0.60078394647E+02  0.60078394858E+02  0.50400000000E-02 0. -1.
         -1   -1    0    0    0  501 -0.00000000000E+00 -0.00000000000E+00 -0.34499455927E+02  0.34499456295E+02  0.50400000000E-02 0.  1.
         23    2    1    2    0    0  0.00000000000E+00 -0.35527136788E-14  0.25578938720E+02  0.94577851153E+02  0.91053214236E+02 0.  0.
    9000005    2    3    3    0    0 -0.14966182340E+01 -0.27298764729E+02 -0.24236633688E+02  0.37753088275E+02  0.95088821586E+01 0.  0.
         22    1    3    3    0    0  0.14966182340E+01  0.27298764729E+02  0.49815572408E+02  0.56824762878E+02  0.00000000000E+00 0. -1.
         22    1    4    4    0    0 -0.42975311935E+00 -0.23170042430E+02 -0.24175013043E+02  0.33488308550E+02  0.00000000000E+00 0.  1.
         22    1    4    4    0    0 -0.10668651146E+01 -0.41287222993E+01 -0.61620645365E-01  0.42647797249E+01  0.00000000000E+00 0.  1.
<mgrwt>
<rscale>  0 0.91053214E+02</rscale>
<asrwt>0</asrwt>
<pdfrwt beam="1">  1        1 0.92428300E-02 0.91053214E+02</pdfrwt>
<pdfrwt beam="2">  1       -1 0.53076087E-02 0.91053214E+02</pdfrwt>
<totfact> 0.96754076E+04</totfact>
</mgrwt>
</event>
<event>
 6    1  0.3301067E-009  0.2102972E+03  0.7818608E-02  0.1141331E+00
          1   -1    0    0  501    0  0.00000000000E+00  0.00000000000E+00  0.32704013861E+02  0.32704014249E+02  0.50400000000E-02 0. -1.
         -1   -1    0    0    0  501 -0.00000000000E+00 -0.00000000000E+00 -0.33806930828E+03  0.33806930832E+03  0.50400000000E-02 0.  1.
    9000005    2    1    2    0    0 -0.21558846564E+02  0.77834780695E+02 -0.27129668316E+03  0.28311656456E+03  0.54828721467E+01 0.  0.
         22    1    1    2    0    0  0.21558846564E+02 -0.77834780695E+02 -0.34068611267E+02  0.87656758009E+02  0.00000000000E+00 0. -1.
         22    1    3    3    0    0 -0.13507380977E+02  0.38935146748E+02 -0.13537252414E+03  0.14150659096E+03  0.00000000000E+00 0.  1.
         22    1    3    3    0    0 -0.80514655867E+01  0.38899633947E+02 -0.13592415902E+03  0.14160997361E+03  0.00000000000E+00 0.  1.
<mgrwt>
<rscale>  0 0.21029716E+03</rscale>
<asrwt>0</asrwt>
<pdfrwt beam="1">  1        1 0.50313870E-02 0.21029716E+03</pdfrwt>
<pdfrwt beam="2">  1       -1 0.52010660E-01 0.21029716E+03</pdfrwt>
<totfact> 0.61687810E+03</totfact>
</mgrwt>
</event>
<event>
 7    1  0.3301067E-009  0.9034618E+02  0.7818608E-02  0.1302016E+00
         -1   -1    0    0    0  501 -0.00000000000E+00  0.00000000000E+00  0.14029661401E+02  0.14029662306E+02  0.50400000000E-02 0.  1.
          1   -1    0    0  501    0  0.00000000000E+00 -0.00000000000E+00 -0.14544954534E+03  0.14544954543E+03  0.50400000000E-02 0. -1.
         23    2    1    2    0    0 -0.35527136788E-14 -0.35527136788E-14 -0.13141988394E+03  0.15947920774E+03  0.90346177590E+02 0.  0.
    9000005    2    3    3    0    0 -0.16640544450E+02 -0.30491574161E+02 -0.19502582929E+02  0.42295053175E+02  0.14208341485E+02 0.  0.
         22    1    3    3    0    0  0.16640544450E+02  0.30491574161E+02 -0.11191730101E+03  0.11718415456E+03  0.00000000000E+00 0. -1.
         22    1    4    4    0    0 -0.11633823152E+02 -0.21973646610E+02 -0.20686791118E+02  0.32343937812E+02  0.00000000000E+00 0. -1.
         22    1    4    4    0    0 -0.50067212983E+01 -0.85179275511E+01  0.11842081887E+01  0.99511153625E+01  0.00000000000E+00 0. -1.
<mgrwt>
<rscale>  0 0.90346178E+02</rscale>
<asrwt>0</asrwt>
<pdfrwt beam="2">  1        1 0.22376852E-01 0.90346178E+02</pdfrwt>
<pdfrwt beam="1">  1       -1 0.21584096E-02 0.90346178E+02</pdfrwt>
<totfact> 0.11428764E+05</totfact>
</mgrwt>
</event>
<event>
 7    1  0.3301067E-009  0.9050713E+02  0.7818608E-02  0.1301628E+00
         -1   -1    0    0    0  501 -0.00000000000E+00  0.00000000000E+00  0.12333496894E+02  0.12333497924E+02  0.50400000000E-02 0.  1.
          1   -1    0    0  501    0  0.00000000000E+00 -0.00000000000E+00 -0.16604252232E+03  0.16604252240E+03  0.50400000000E-02 0. -1.
         23    2    1    2    0    0 -0.71054273576E-14  0.35527136788E-14 -0.15370902543E+03  0.17837602032E+03  0.90507127498E+02 0.  0.
    9000005    2    3    3    0    0  0.35927392412E+02 -0.23202305454E+02 -0.10061552438E+03  0.11019945281E+03  0.13831527388E+02 0.  0.
         22    1    3    3    0    0 -0.35927392412E+02  0.23202305454E+02 -0.53093501049E+02  0.68176567511E+02  0.00000000000E+00 0.  1.
         22    1    4    4    0    0  0.34639939817E+02 -0.23320660397E+02 -0.10058214988E+03  0.10890614081E+03  0.00000000000E+00 0. -1.
         22    1    4    4    0    0  0.12874525949E+01  0.11835494303E+00 -0.33374500959E-01  0.12933120018E+01  0.00000000000E+00 0. -1.
<mgrwt>
<rscale>  0 0.90507127E+02</rscale>
<asrwt>0</asrwt>
<pdfrwt beam="2">  1        1 0.25545002E-01 0.90507127E+02</pdfrwt>
<pdfrwt beam="1">  1       -1 0.18974613E-02 0.90507127E+02</pdfrwt>
<totfact> 0.11655664E+05</totfact>
</mgrwt>
</event>
<event>
 7    1  0.3301067E-009  0.9508787E+02  0.7818608E-02  0.1290978E+00
         -1   -1    0    0    0  501 -0.00000000000E+00  0.00000000000E+00  0.27609198196E+03  0.27609198201E+03  0.50400000000E-02 0.  1.
          1   -1    0    0  501    0  0.00000000000E+00 -0.00000000000E+00 -0.81872194755E+01  0.81872210268E+01  0.50400000000E-02 0. -1.
         23    2    1    2    0    0  0.00000000000E+00  0.00000000000E+00  0.26790476248E+03  0.28427920303E+03  0.95087872597E+02 0.  0.
    9000005    2    3    3    0    0 -0.93414238194E+01 -0.20872760816E+02  0.25837551701E+03  0.25950540917E+03  0.78876647079E+01 0.  0.
         22    1    3    3    0    0  0.93414238194E+01  0.20872760816E+02  0.95292454730E+01  0.24773793863E+02  0.00000000000E+00 0. -1.
         22    1    4    4    0    0  0.60237234441E+00 -0.63968780271E+01  0.85080538364E+02  0.85322804157E+02  0.00000000000E+00 0. -1.
         22    1    4    4    0    0 -0.99437961638E+01 -0.14475882789E+02  0.17329497865E+03  0.17418260501E+03  0.00000000000E+00 0. -1.
<mgrwt>
<rscale>  0 0.95087873E+02</rscale>
<asrwt>0</asrwt>
<pdfrwt beam="2">  1        1 0.12595726E-02 0.95087873E+02</pdfrwt>
<pdfrwt beam="1">  1       -1 0.42475682E-01 0.95087873E+02</pdfrwt>
<totfact> 0.56019200E+04</totfact>
</mgrwt>
</event>
<event>
 7    1  0.3301067E-009  0.9246887E+02  0.7818608E-02  0.1296981E+00
         -1   -1    0    0    0  501 -0.00000000000E+00  0.00000000000E+00  0.10121366097E+04  0.10121366097E+04  0.50400000000E-02 0.  1.
          1   -1    0    0  501    0  0.00000000000E+00 -0.00000000000E+00 -0.21119876756E+01  0.21119936892E+01  0.50400000000E-02 0. -1.
         23    2    1    2    0    0  0.00000000000E+00  0.00000000000E+00  0.10100246220E+04  0.10142486034E+04  0.92468872637E+02 0.  0.
    9000005    2    3    3    0    0  0.33253573197E+02 -0.12650917075E+01  0.85578996338E+03  0.85646479398E+03  0.69340697702E+01 0.  0.
         22    1    3    3    0    0 -0.33253573197E+02  0.12650917075E+01  0.15423465864E+03  0.15778380942E+03  0.00000000000E+00 0.  1.
         22    1    4    4    0    0  0.30135383833E+02 -0.19884544129E+01  0.71358390003E+03  0.71422270875E+03  0.00000000000E+00 0.  1.
         22    1    4    4    0    0  0.31181893643E+01  0.72336270543E+00  0.14220606334E+03  0.14224208523E+03  0.00000000000E+00 0.  1.
<mgrwt>
<rscale>  0 0.92468873E+02</rscale>
<asrwt>0</asrwt>
<pdfrwt beam="2">  1        1 0.32492175E-03 0.92468873E+02</pdfrwt>
<pdfrwt beam="1">  1       -1 0.15571328E+00 0.92468873E+02</pdfrwt>
<totfact> 0.24353583E+04</totfact>
</mgrwt>
</event>
<event>
 7    1  0.3301067E-009  0.9582298E+02  0.7818608E-02  0.1289333E+00
         -1   -1    0    0    0  501 -0.00000000000E+00  0.00000000000E+00  0.10166017255E+01  0.10166142188E+01  0.50400000000E-02 0.  1.
          1   -1    0    0  501    0  0.00000000000E+00 -0.00000000000E+00 -0.22580099164E+04  0.22580099165E+04  0.50400000000E-02 0. -1.
         23    2    1    2    0    0  0.00000000000E+00  0.00000000000E+00 -0.22569933147E+04  0.22590265307E+04  0.95822980439E+02 0.  0.
    9000005    2    3    3    0    0  0.36098484483E+01  0.18825348500E+02 -0.21629842858E+04  0.21630832023E+04  0.77778169503E+01 0.  0.
         22    1    3    3    0    0 -0.36098484483E+01 -0.18825348500E+02 -0.94009028904E+02  0.95943328416E+02  0.00000000000E+00 0.  1.
         22    1    4    4    0    0 -0.77111500598E+00  0.14293101703E+02 -0.14176169554E+04  0.14176892183E+04  0.00000000000E+00 0. -1.
         22    1    4    4    0    0  0.43809634543E+01  0.45322467973E+01 -0.74536733039E+03  0.74539398395E+03  0.00000000000E+00 0. -1.
<mgrwt>
<rscale>  0 0.95822980E+02</rscale>
<asrwt>0</asrwt>
<pdfrwt beam="2">  1        1 0.34738213E+00 0.95822980E+02</pdfrwt>
<pdfrwt beam="1">  1       -1 0.15640303E-03 0.95822980E+02</pdfrwt>
<totfact> 0.56817642E+04</totfact>
</mgrwt>
</event>
<event>
 7    1  0.3301067E-009  0.9096912E+02  0.7818608E-02  0.1300522E+00
         -1   -1    0    0    0  501 -0.00000000000E+00  0.00000000000E+00  0.79691366601E+02  0.79691366760E+02  0.50400000000E-02 0.  1.
          1   -1    0    0  501    0  0.00000000000E+00 -0.00000000000E+00 -0.25960719177E+02  0.25960719666E+02  0.50400000000E-02 0. -1.
         23    2    1    2    0    0 -0.11102230246E-15  0.00000000000E+00  0.53730647424E+02  0.10565208643E+03  0.90969120550E+02 0.  0.
    9000005    2    3    3    0    0 -0.83685450231E+00 -0.24315644490E+02  0.71177207325E+02  0.75713259716E+02  0.86227583619E+01 0.  0.
         22    1    3    3    0    0  0.83685450231E+00  0.24315644490E+02 -0.17446559901E+02  0.29938826711E+02  0.00000000000E+00 0. -1.
         22    1    4    4    0    0  0.30762338005E+01 -0.13514060117E+02  0.45918505897E+02  0.47964593389E+02  0.00000000000E+00 0.  1.
         22    1    4    4    0    0 -0.39130883028E+01 -0.10801584373E+02  0.25258701428E+02  0.27748666326E+02  0.00000000000E+00 0.  1.
<mgrwt>
<rscale>  0 0.90969121E+02</rscale>
<asrwt>0</asrwt>
<pdfrwt beam="2">  1        1 0.39939569E-02 0.90969121E+02</pdfrwt>
<pdfrwt beam="1">  1       -1 0.12260210E-01 0.90969121E+02</pdfrwt>
<totfact> 0.85202076E+04</totfact>
</mgrwt>
</event>
<event>
 7    1  0.3301067E-009  0.9091016E+02  0.7818608E-02  0.1300662E+00
          1   -1    0    0  501    0  0.00000000000E+00  0.00000000000E+00  0.38584129813E+01  0.38584162730E+01  0.50400000000E-02 0. -1.
         -1   -1    0    0    0  501 -0.00000000000E+00 -0.00000000000E+00 -0.53549568020E+03  0.53549568022E+03  0.50400000000E-02 0.  1.
         23    2    1    2    0    0 -0.22204460493E-15  0.17763568394E-14 -0.53163726722E+03  0.53935409650E+03  0.90910161765E+02 0.  0.
    9000005    2    3    3    0    0  0.16170616554E+01 -0.10409197040E+02 -0.52811053587E+03  0.52824535645E+03  0.56082302376E+01 0.  0.
         22    1    3    3    0    0 -0.16170616554E+01  0.10409197040E+02 -0.35267313533E+01  0.11108740048E+02  0.00000000000E+00 0. -1.
         22    1    4    4    0    0  0.17665660171E+01 -0.68279066209E+01 -0.44702748252E+03  0.44708311441E+03  0.00000000000E+00 0. -1.
         22    1    4    4    0    0 -0.14950436174E+00 -0.35812904190E+01 -0.81083053343E+02  0.81162242035E+02  0.00000000000E+00 0. -1.
<mgrwt>
<rscale>  0 0.90910162E+02</rscale>
<asrwt>0</asrwt>
<pdfrwt beam="1">  1        1 0.59360268E-03 0.90910162E+02</pdfrwt>
<pdfrwt beam="2">  1       -1 0.82383892E-01 0.90910162E+02</pdfrwt>
<totfact> 0.45379749E+04</totfact>
</mgrwt>
</event>
<event>
 7    1  0.3301067E-009  0.8988325E+02  0.7818608E-02  0.1303135E+00
         -1   -1    0    0    0  501 -0.00000000000E+00  0.00000000000E+00  0.15768566826E+03  0.15768566834E+03  0.50400000000E-02 0.  1.
          1   -1    0    0  501    0  0.00000000000E+00 -0.00000000000E+00 -0.12808707427E+02  0.12808708418E+02  0.50400000000E-02 0. -1.
         23    2    1    2    0    0  0.00000000000E+00  0.00000000000E+00  0.14487696083E+03  0.17049437675E+03  0.89883250530E+02 0.  0.
    9000005    2    3    3    0    0 -0.38119877807E+02  0.10004111863E+02  0.11101023109E+03  0.11853128677E+03  0.13160060667E+02 0.  0.
         22    1    3    3    0    0  0.38119877807E+02 -0.10004111863E+02  0.33866729736E+02  0.51963089989E+02  0.00000000000E+00 0. -1.
         22    1    4    4    0    0 -0.24822323259E+02  0.15789488598E+01  0.79627297730E+02  0.83421504153E+02  0.00000000000E+00 0. -1.
         22    1    4    4    0    0 -0.13297554548E+02  0.84251630028E+01  0.31382933364E+02  0.35109782612E+02  0.00000000000E+00 0. -1.
<mgrwt>
<rscale>  0 0.89883251E+02</rscale>
<asrwt>0</asrwt>
<pdfrwt beam="2">  1        1 0.19705705E-02 0.89883251E+02</pdfrwt>
<pdfrwt beam="1">  1       -1 0.24259333E-01 0.89883251E+02</pdfrwt>
<totfact> 0.76695820E+04</totfact>
</mgrwt>
</event>
<event>
 7    1  0.3301067E-009  0.7888674E+02  0.7818608E-02  0.1332241E+00
          1   -1    0    0  501    0  0.00000000000E+00  0.00000000000E+00  0.19422212968E+03  0.19422212975E+03  0.50400000000E-02 0. -1.
         -1   -1    0    0    0  501 -0.00000000000E+00 -0.00000000000E+00 -0.80103093855E+01  0.80103109711E+01  0.50400000000E-02 0.  1.
         23    2    1    2    0    0  0.88817841970E-15  0.00000000000E+00  0.18621182029E+03  0.20223244072E+03  0.78886741983E+02 0.  0.
    9000005    2    3    3    0    0 -0.67904997116E+01 -0.38646803324E+02  0.92166609966E+02  0.10032960523E+03  0.56266686828E+01 0.  0.
         22    1    3    3    0    0  0.67904997116E+01  0.38646803324E+02  0.94045210329E+02  0.10190283548E+03  0.00000000000E+00 0. -1.
         22    1    4    4    0    0 -0.17926655126E+01 -0.27290475699E+01  0.57479374893E+01  0.66106078132E+01  0.00000000000E+00 0.  1.
         22    1    4    4    0    0 -0.49978341990E+01 -0.35917755754E+02  0.86418672476E+02  0.93718997421E+02  0.00000000000E+00 0.  1.
<mgrwt>
<rscale>  0 0.78886742E+02</rscale>
<asrwt>0</asrwt>
<pdfrwt beam="1">  1        1 0.29880325E-01 0.78886742E+02</pdfrwt>
<pdfrwt beam="2">  1       -1 0.12323555E-02 0.78886742E+02</pdfrwt>
<totfact> 0.17306967E+05</totfact>
</mgrwt>
</event>
<event>
 7    1  0.3301067E-009  0.9064076E+02  0.7818608E-02  0.1301307E+00
          1   -1    0    0  501    0  0.00000000000E+00  0.00000000000E+00  0.49149726470E+03  0.49149726472E+03  0.50400000000E-02 0. -1.
         -1   -1    0    0    0  501 -0.00000000000E+00 -0.00000000000E+00 -0.41789371633E+01  0.41789402025E+01  0.50400000000E-02 0.  1.
         23    2    1    2    0    0  0.00000000000E+00  0.00000000000E+00  0.48731832753E+03  0.49567620492E+03  0.90640762237E+02 0.  0.
    9000005    2    3    3    0    0 -0.11525012907E+02 -0.29185364286E+02  0.42199894426E+03  0.42321081151E+03  0.62984613060E+01 0.  0.
         22    1    3    3    0    0  0.11525012907E+02  0.29185364286E+02  0.65319383274E+02  0.72465393412E+02  0.00000000000E+00 0.  1.
         22    1    4    4    0    0 -0.98260809669E+01 -0.16542444842E+02  0.25811947440E+03  0.25883559920E+03  0.00000000000E+00 0. -1.
         22    1    4    4    0    0 -0.16989319398E+01 -0.12642919444E+02  0.16387946985E+03  0.16437521231E+03  0.00000000000E+00 0. -1.
<mgrwt>
<rscale>  0 0.90640762E+02</rscale>
<asrwt>0</asrwt>
<pdfrwt beam="1">  1        1 0.75614962E-01 0.90640762E+02</pdfrwt>
<pdfrwt beam="2">  1       -1 0.64291366E-03 0.90640762E+02</pdfrwt>
<totfact> 0.14116614E+05</totfact>
</mgrwt>
</event>
<event>
 7    1  0.3301067E-009  0.9582614E+02  0.7818608E-02  0.1289326E+00
          1   -1    0    0  501    0  0.00000000000E+00  0.00000000000E+00  0.20126172915E+03  0.20126172921E+03  0.50400000000E-02 0. -1.
         -1   -1    0    0    0  501 -0.00000000000E+00 -0.00000000000E+00 -0.11406352564E+02  0.11406353677E+02  0.50400000000E-02 0.  1.
         23    2    1    2    0    0  0.00000000000E+00  0.00000000000E+00  0.18985537658E+03  0.21266808289E+03  0.95826141849E+02 0.  0.
    9000005    2    3    3    0    0 -0.10263390015E+02  0.40139563941E+02  0.45109801196E+02  0.62109777365E+02  0.10305751419E+02 0.  0.
         22    1    3    3    0    0  0.10263390015E+02 -0.40139563941E+02  0.14474557539E+03  0.15055830552E+03  0.00000000000E+00 0. -1.
         22    1    4    4    0    0 -0.56678727840E+01  0.25371630549E+02  0.20785973650E+02  0.33285148628E+02  0.00000000000E+00 0.  1.
         22    1    4    4    0    0 -0.45955172306E+01  0.14767933393E+02  0.24323827547E+02  0.28824628737E+02  0.00000000000E+00 0.  1.
<mgrwt>
<rscale>  0 0.95826142E+02</rscale>
<asrwt>0</asrwt>
<pdfrwt beam="1">  1        1 0.30963343E-01 0.95826142E+02</pdfrwt>
<pdfrwt beam="2">  1       -1 0.17548236E-02 0.95826142E+02</pdfrwt>
<totfact> 0.10370174E+05</totfact>
</mgrwt>
</event>
<event>
 7    1  0.3301067E-009  0.9320048E+02  0.7818608E-02  0.1295281E+00
         -1   -1    0    0    0  501 -0.00000000000E+00  0.00000000000E+00  0.23612303408E+01  0.23612357197E+01  0.50400000000E-02 0.  1.
          1   -1    0    0  501    0  0.00000000000E+00 -0.00000000000E+00 -0.91968150719E+03  0.91968150720E+03  0.50400000000E-02 0. -1.
         23    2    1    2    0    0  0.00000000000E+00 -0.17763568394E-14 -0.91732027685E+03  0.92204274292E+03  0.93200479930E+02 0.  0.
    9000005    2    3    3    0    0  0.21992095223E+02  0.10577489944E+02 -0.85129383454E+03  0.85165079289E+03  0.35135102693E+01 0.  0.
         22    1    3    3    0    0 -0.21992095223E+02 -0.10577489944E+02 -0.66026442308E+02  0.70391950034E+02  0.00000000000E+00 0.  1.
         22    1    4    4    0    0  0.21715192991E+01  0.97064888701E+00 -0.53316306404E+02  0.53369337488E+02  0.00000000000E+00 0.  1.
         22    1    4    4    0    0  0.19820575924E+02  0.96068410573E+01 -0.79797752814E+03  0.79828145540E+03  0.00000000000E+00 0.  1.
<mgrwt>
<rscale>  0 0.93200480E+02</rscale>
<asrwt>0</asrwt>
<pdfrwt beam="2">  1        1 0.14148918E+00 0.93200480E+02</pdfrwt>
<pdfrwt beam="1">  1       -1 0.36326735E-03 0.93200480E+02</pdfrwt>
<totfact> 0.13080637E+05</totfact>
</mgrwt>
</event>
<event>
 7    1  0.3301067E-009  0.9065013E+02  0.7818608E-02  0.1301285E+00
          1   -1    0    0  501    0  0.00000000000E+00  0.00000000000E+00  0.42626191485E+02  0.42626191783E+02  0.50400000000E-02 0.  1.
         -1   -1    0    0    0  501 -0.00000000000E+00 -0.00000000000E+00 -0.48194814709E+02  0.48194814972E+02  0.50400000000E-02 0. -1.
         23    2    1    2    0    0  0.00000000000E+00  0.00000000000E+00 -0.55686232242E+01  0.90821006755E+02  0.90650127983E+02 0.  0.
    9000005    2    3    3    0    0  0.16160819024E+02 -0.46541984688E+01  0.38716849675E+02  0.43449741786E+02  0.10298154088E+02 0.  0.
         22    1    3    3    0    0 -0.16160819024E+02  0.46541984688E+01 -0.44285472899E+02  0.47371264969E+02  0.00000000000E+00 0. -1.
         22    1    4    4    0    0  0.67205657268E+01  0.31946682769E+01  0.14913307951E+02  0.16666693227E+02  0.00000000000E+00 0. -1.
         22    1    4    4    0    0  0.94402532973E+01 -0.78488667458E+01  0.23803541723E+02  0.26783048559E+02  0.00000000000E+00 0. -1.
<mgrwt>
<rscale>  0 0.90650128E+02</rscale>
<asrwt>0</asrwt>
<pdfrwt beam="1">  1        1 0.65578756E-02 0.90650128E+02</pdfrwt>
<pdfrwt beam="2">  1       -1 0.74145869E-02 0.90650128E+02</pdfrwt>
<totfact> 0.93045287E+04</totfact>
</mgrwt>
</event>
<event>
 7    1  0.3301067E-009  0.9115988E+02  0.7818608E-02  0.1300067E+00
         -1   -1    0    0    0  501 -0.00000000000E+00  0.00000000000E+00  0.40571425705E+02  0.40571426018E+02  0.50400000000E-02 0.  1.
          1   -1    0    0  501    0  0.00000000000E+00 -0.00000000000E+00 -0.51206755582E+02  0.51206755830E+02  0.50400000000E-02 0. -1.
         23    2    1    2    0    0  0.00000000000E+00  0.00000000000E+00 -0.10635329877E+02  0.91778181848E+02  0.91159883840E+02 0.  0.
    9000005    2    3    3    0    0  0.27493509278E+02 -0.13567700154E+02 -0.37787531104E+02  0.50824335004E+02  0.14671059325E+02 0.  0.
         22    1    3    3    0    0 -0.27493509278E+02  0.13567700154E+02  0.27152201227E+02  0.40953846844E+02  0.00000000000E+00 0.  1.
         22    1    4    4    0    0  0.95689788250E+01 -0.11603983091E+02 -0.23113450384E+02  0.27576246445E+02  0.00000000000E+00 0.  1.
         22    1    4    4    0    0  0.17924530453E+02 -0.19637170630E+01 -0.14674080720E+02  0.23248088559E+02  0.00000000000E+00 0.  1.
<mgrwt>
<rscale>  0 0.91159884E+02</rscale>
<asrwt>0</asrwt>
<pdfrwt beam="2">  1        1 0.78779625E-02 0.91159884E+02</pdfrwt>
<pdfrwt beam="1">  1       -1 0.62417578E-02 0.91159884E+02</pdfrwt>
<totfact> 0.94149076E+04</totfact>
</mgrwt>
</event>
<event>
 7    1  0.3301067E-009  0.7787441E+02  0.7818608E-02  0.1335194E+00
         -1   -1    0    0    0  501 -0.00000000000E+00  0.00000000000E+00  0.91328684630E+01  0.91328698537E+01  0.50400000000E-02 0.  1.
          1   -1    0    0  501    0  0.00000000000E+00 -0.00000000000E+00 -0.16600542168E+03  0.16600542175E+03  0.50400000000E-02 0. -1.
         23    2    1    2    0    0  0.00000000000E+00  0.00000000000E+00 -0.15687255321E+03  0.17513829161E+03  0.77874406805E+02 0.  0.
    9000005    2    3    3    0    0 -0.13116692681E+02 -0.52887212290E+01 -0.15985931288E+03  0.16068357153E+03  0.80119940185E+01 0.  0.
         22    1    3    3    0    0  0.13116692681E+02  0.52887212290E+01  0.29867596629E+01  0.14454720074E+02  0.00000000000E+00 0.  1.
         22    1    4    4    0    0 -0.10394548111E+02 -0.26232376202E+01 -0.77712460792E+02  0.78448419795E+02  0.00000000000E+00 0.  1.
         22    1    4    4    0    0 -0.27221445700E+01 -0.26654836088E+01 -0.82146852084E+02  0.82235151737E+02  0.00000000000E+00 0.  1.
<mgrwt>
<rscale>  0 0.77874407E+02</rscale>
<asrwt>0</asrwt>
<pdfrwt beam="2">  1        1 0.25539294E-01 0.77874407E+02</pdfrwt>
<pdfrwt beam="1">  1       -1 0.14050569E-02 0.77874407E+02</pdfrwt>
<totfact> 0.17399632E+05</totfact>
</mgrwt>
</event>
<event>
 7    1  0.3301067E-009  0.9248057E+02  0.7818608E-02  0.1296953E+00
         -1   -1    0    0    0  501 -0.00000000000E+00  0.00000000000E+00  0.28972221199E+01  0.28972265037E+01  0.50400000000E-02 0.  1.
          1   -1    0    0  501    0  0.00000000000E+00 -0.00000000000E+00 -0.73800426691E+03  0.73800426693E+03  0.50400000000E-02 0. -1.
         23    2    1    2    0    0  0.00000000000E+00 -0.22204460493E-15 -0.73510704479E+03  0.74090149344E+03  0.92480569138E+02 0.  0.
    9000005    2    3    3    0    0 -0.30579495431E+02  0.16354233604E+01 -0.64316145290E+03  0.64399033815E+03  0.11363141294E+02 0.  0.
         22    1    3    3    0    0  0.30579495431E+02 -0.16354233604E+01 -0.91945591891E+02  0.96911155285E+02  0.00000000000E+00 0.  1.
         22    1    4    4    0    0 -0.53312767384E+00 -0.17033394478E+01 -0.78416911269E+02  0.78437220523E+02  0.00000000000E+00 0. -1.
         22    1    4    4    0    0 -0.30046367758E+02  0.33387628082E+01 -0.56474454163E+03  0.56555311763E+03  0.00000000000E+00 0. -1.
<mgrwt>
<rscale>  0 0.92480569E+02</rscale>
<asrwt>0</asrwt>
<pdfrwt beam="2">  1        1 0.11353897E+00 0.92480569E+02</pdfrwt>
<pdfrwt beam="1">  1       -1 0.44572741E-03 0.92480569E+02</pdfrwt>
<totfact> 0.13676610E+05</totfact>
</mgrwt>
</event>
<event>
 7    1  0.3301067E-009  0.9038927E+02  0.7818608E-02  0.1301912E+00
          1   -1    0    0  501    0  0.00000000000E+00  0.00000000000E+00  0.11966439689E+02  0.11966440750E+02  0.50400000000E-02 0. -1.
         -1   -1    0    0    0  501 -0.00000000000E+00 -0.00000000000E+00 -0.17069026974E+03  0.17069026981E+03  0.50400000000E-02 0.  1.
         23    2    1    2    0    0  0.00000000000E+00  0.00000000000E+00 -0.15872383005E+03  0.18265671056E+03  0.90389267547E+02 0.  0.
    9000005    2    3    3    0    0  0.72552540779E+01 -0.42825832812E+02 -0.57008820953E+02  0.72055473032E+02  0.74360513465E+01 0.  0.
         22    1    3    3    0    0 -0.72552540779E+01  0.42825832812E+02 -0.10171500909E+03  0.11060123753E+03  0.00000000000E+00 0.  1.
         22    1    4    4    0    0  0.47889580400E+00 -0.15303791696E+02 -0.15454386231E+02  0.21754848545E+02  0.00000000000E+00 0. -1.
         22    1    4    4    0    0  0.67763582739E+01 -0.27522041116E+02 -0.41554434722E+02  0.50300624486E+02  0.00000000000E+00 0. -1.
<mgrwt>
<rscale>  0 0.90389268E+02</rscale>
<asrwt>0</asrwt>
<pdfrwt beam="1">  1        1 0.18409909E-02 0.90389268E+02</pdfrwt>
<pdfrwt beam="2">  1       -1 0.26260040E-01 0.90389268E+02</pdfrwt>
<totfact> 0.74115284E+04</totfact>
</mgrwt>
</event>
<event>
 7    1  0.3301067E-009  0.8951936E+02  0.7818608E-02  0.1304020E+00
          1   -1    0    0  501    0  0.00000000000E+00  0.00000000000E+00  0.11601966775E+02  0.11601967869E+02  0.50400000000E-02 0. -1.
         -1   -1    0    0    0  501 -0.00000000000E+00 -0.00000000000E+00 -0.17268010664E+03  0.17268010671E+03  0.50400000000E-02 0.  1.
         23    2    1    2    0    0  0.00000000000E+00  0.00000000000E+00 -0.16107813986E+03  0.18428207458E+03  0.89519360308E+02 0.  0.
    9000005    2    3    3    0    0 -0.53472217545E+01 -0.34153823642E+02 -0.24862163610E+02  0.43747848726E+02  0.10033475917E+02 0.  0.
         22    1    3    3    0    0  0.53472217545E+01  0.34153823642E+02 -0.13621597625E+03  0.14053422585E+03  0.00000000000E+00 0.  1.
         22    1    4    4    0    0 -0.35253176920E+01 -0.23011855341E+02 -0.10659719574E+02  0.25604745116E+02  0.00000000000E+00 0.  1.
         22    1    4    4    0    0 -0.18219040624E+01 -0.11141968301E+02 -0.14202444035E+02  0.18143103610E+02  0.00000000000E+00 0.  1.
<mgrwt>
<rscale>  0 0.89519360E+02</rscale>
<asrwt>0</asrwt>
<pdfrwt beam="1">  1        1 0.17849182E-02 0.89519360E+02</pdfrwt>
<pdfrwt beam="2">  1       -1 0.26566169E-01 0.89519360E+02</pdfrwt>
<totfact> 0.75774733E+04</totfact>
</mgrwt>
</event>
<event>
 7    1  0.3301067E-009  0.9426161E+02  0.7818608E-02  0.1292848E+00
          1   -1    0    0  501    0  0.00000000000E+00  0.00000000000E+00  0.14263977822E+03  0.14263977831E+03  0.50400000000E-02 0. -1.
         -1   -1    0    0    0  501 -0.00000000000E+00 -0.00000000000E+00 -0.15572885104E+02  0.15572885919E+02  0.50400000000E-02 0.  1.
         23    2    1    2    0    0  0.00000000000E+00  0.00000000000E+00  0.12706689312E+03  0.15821266423E+03  0.94261613588E+02 0.  0.
    9000005    2    3    3    0    0 -0.30337711143E+02 -0.28663041139E+02  0.27691632492E+02  0.50428671592E+02  0.58547214870E+01 0.  0.
         22    1    3    3    0    0  0.30337711143E+02  0.28663041139E+02  0.99375260626E+02  0.10778399264E+03  0.00000000000E+00 0. -1.
         22    1    4    4    0    0 -0.17721463495E+02 -0.17269358155E+02  0.19778430042E+02  0.31677551900E+02  0.00000000000E+00 0. -1.
         22    1    4    4    0    0 -0.12616247648E+02 -0.11393682983E+02  0.79132024508E+01  0.18751119691E+02  0.00000000000E+00 0. -1.
<mgrwt>
<rscale>  0 0.94261614E+02</rscale>
<asrwt>0</asrwt>
<pdfrwt beam="1">  1        1 0.21944582E-01 0.94261614E+02</pdfrwt>
<pdfrwt beam="2">  1       -1 0.23958285E-02 0.94261614E+02</pdfrwt>
<totfact> 0.10153152E+05</totfact>
</mgrwt>
</event>
<event>
 7    1  0.3301067E-009  0.9034030E+02  0.7818608E-02  0.1302030E+00
          1   -1    0    0  501    0  0.00000000000E+00  0.00000000000E+00  0.91654325746E+02  0.91654325885E+02  0.50400000000E-02 0. -1.
         -1   -1    0    0    0  501 -0.00000000000E+00 -0.00000000000E+00 -0.22261278183E+02  0.22261278754E+02  0.50400000000E-02 0.  1.
         23    2    1    2    0    0  0.00000000000E+00 -0.17763568394E-14  0.69393047563E+02  0.11391560464E+03  0.90340300698E+02 0.  0.
    9000005    2    3    3    0    0  0.10431638636E+02 -0.15862022004E+02  0.85567956767E+02  0.88974664110E+02  0.15303359156E+02 0.  0.
         22    1    3    3    0    0 -0.10431638636E+02  0.15862022004E+02 -0.16174909204E+02  0.24940940529E+02  0.00000000000E+00 0.  1.
         22    1    4    4    0    0  0.13113644212E+02 -0.10761676519E+02  0.75423735372E+02  0.77307963389E+02  0.00000000000E+00 0. -1.
         22    1    4    4    0    0 -0.26820055755E+01 -0.51003454856E+01  0.10144221395E+02  0.11666700720E+02  0.00000000000E+00 0. -1.
<mgrwt>
<rscale>  0 0.90340301E+02</rscale>
<asrwt>0</asrwt>
<pdfrwt beam="1">  1        1 0.14100666E-01 0.90340301E+02</pdfrwt>
<pdfrwt beam="2">  1       -1 0.34248120E-02 0.90340301E+02</pdfrwt>
<totfact> 0.10558814E+05</totfact>
</mgrwt>
</event>
<event>
 7    1  0.3301067E-009  0.9262603E+02  0.7818608E-02  0.1296614E+00
         -1   -1    0    0    0  501 -0.00000000000E+00  0.00000000000E+00  0.60419493304E+03  0.60419493306E+03  0.50400000000E-02 0.  1.
          1   -1    0    0  501    0  0.00000000000E+00 -0.00000000000E+00 -0.35500039647E+01  0.35500075424E+01  0.50400000000E-02 0. -1.
         23    2    1    2    0    0 -0.35527136788E-14  0.00000000000E+00  0.60064492907E+03  0.60774494060E+03  0.92626033085E+02 0.  0.
    9000005    2    3    3    0    0 -0.30332799765E+02  0.20179115484E+02  0.48693668860E+03  0.48834293310E+03  0.66487715444E+01 0.  0.
         22    1    3    3    0    0  0.30332799765E+02 -0.20179115484E+02  0.11370824048E+03  0.11940200750E+03  0.00000000000E+00 0. -1.
         22    1    4    4    0    0 -0.19568794608E+02  0.15790937580E+02  0.30463309292E+03  0.30566912297E+03  0.00000000000E+00 0. -1.
         22    1    4    4    0    0 -0.10764005157E+02  0.43881779033E+01  0.18230359567E+03  0.18267381013E+03  0.00000000000E+00 0. -1.
<mgrwt>
<rscale>  0 0.92626033E+02</rscale>
<asrwt>0</asrwt>
<pdfrwt beam="2">  1        1 0.54615483E-03 0.92626033E+02</pdfrwt>
<pdfrwt beam="1">  1       -1 0.92953051E-01 0.92626033E+02</pdfrwt>
<totfact> 0.39722947E+04</totfact>
</mgrwt>
</event>
<event>
 7    1  0.3301067E-009  0.9207141E+02  0.7818608E-02  0.1297912E+00
         -1   -1    0    0    0  501 -0.00000000000E+00  0.00000000000E+00  0.21623545947E+02  0.21623546534E+02  0.50400000000E-02 0.  1.
          1   -1    0    0  501    0  0.00000000000E+00 -0.00000000000E+00 -0.98008257128E+02  0.98008257258E+02  0.50400000000E-02 0. -1.
         23    2    1    2    0    0 -0.17763568394E-14  0.00000000000E+00 -0.76384711181E+02  0.11963180379E+03  0.92071409114E+02 0.  0.
    9000005    2    3    3    0    0  0.97151003898E+01 -0.44232436825E+02 -0.28173725288E+02  0.53486578690E+02  0.40204054897E+01 0.  0.
         22    1    3    3    0    0 -0.97151003898E+01  0.44232436825E+02 -0.48210985893E+02  0.66145225102E+02  0.00000000000E+00 0. -1.
         22    1    4    4    0    0  0.95081454277E+01 -0.43975206928E+02 -0.28278320500E+02  0.53140258413E+02  0.00000000000E+00 0. -1.
         22    1    4    4    0    0  0.20695496213E+00 -0.25722989651E+00  0.10459521210E+00  0.34632027721E+00  0.00000000000E+00 0. -1.
<mgrwt>
<rscale>  0 0.92071409E+02</rscale>
<asrwt>0</asrwt>
<pdfrwt beam="2">  1        1 0.15078193E-01 0.92071409E+02</pdfrwt>
<pdfrwt beam="1">  1       -1 0.33266995E-02 0.92071409E+02</pdfrwt>
<totfact> 0.10136368E+05</totfact>
</mgrwt>
</event>
<event>
 7    1  0.3301067E-009  0.9306502E+02  0.7818608E-02  0.1295595E+00
          1   -1    0    0  501    0  0.00000000000E+00  0.00000000000E+00  0.19343544005E+02  0.19343544662E+02  0.50400000000E-02 0. -1.
         -1   -1    0    0    0  501 -0.00000000000E+00 -0.00000000000E+00 -0.11193784343E+03  0.11193784354E+03  0.50400000000E-02 0.  1.
         23    2    1    2    0    0  0.00000000000E+00  0.00000000000E+00 -0.92594299421E+02  0.13128138820E+03  0.93065023521E+02 0.  0.
    9000005    2    3    3    0    0 -0.35434889006E+02 -0.28581525710E+02 -0.43471602659E+02  0.64306957947E+02  0.13155593175E+02 0.  0.
         22    1    3    3    0    0  0.35434889006E+02  0.28581525710E+02 -0.49122696761E+02  0.66974430254E+02  0.00000000000E+00 0. -1.
         22    1    4    4    0    0 -0.28279688248E+02 -0.21972830531E+02 -0.25832465033E+02  0.44157245143E+02  0.00000000000E+00 0.  1.
         22    1    4    4    0    0 -0.71552007581E+01 -0.66086951792E+01 -0.17639137627E+02  0.20149712804E+02  0.00000000000E+00 0.  1.
<mgrwt>
<rscale>  0 0.93065024E+02</rscale>
<asrwt>0</asrwt>
<pdfrwt beam="1">  1        1 0.29759300E-02 0.93065024E+02</pdfrwt>
<pdfrwt beam="2">  1       -1 0.17221206E-01 0.93065024E+02</pdfrwt>
<totfact> 0.75524578E+04</totfact>
</mgrwt>
</event>
<event>
 7    1  0.3301067E-009  0.6529973E+02  0.7818608E-02  0.1376848E+00
         -1   -1    0    0    0  501 -0.00000000000E+00  0.00000000000E+00  0.28435738370E+02  0.28435738817E+02  0.50400000000E-02 0.  1.
          1   -1    0    0  501    0  0.00000000000E+00 -0.00000000000E+00 -0.37488514126E+02  0.37488514465E+02  0.50400000000E-02 0. -1.
         23    2    1    2    0    0  0.00000000000E+00  0.00000000000E+00 -0.90527757556E+01  0.65924253282E+02  0.65299727579E+02 0.  0.
    9000005    2    3    3    0    0  0.66382700222E+01 -0.12616653874E+02  0.23830507857E+02  0.30083537259E+02  0.11570632024E+02 0.  0.
         22    1    3    3    0    0 -0.66382700222E+01  0.12616653874E+02 -0.32883283613E+02  0.35840716023E+02  0.00000000000E+00 0. -1.
         22    1    4    4    0    0  0.63929439774E+01 -0.11630619147E+01  0.11800986293E+02  0.13471663714E+02  0.00000000000E+00 0. -1.
         22    1    4    4    0    0  0.24532604479E+00 -0.11453591960E+02  0.12029521564E+02  0.16611873546E+02  0.00000000000E+00 0. -1.
<mgrwt>
<rscale>  0 0.65299728E+02</rscale>
<asrwt>0</asrwt>
<pdfrwt beam="2">  1        1 0.57674637E-02 0.65299728E+02</pdfrwt>
<pdfrwt beam="1">  1       -1 0.43747291E-02 0.65299728E+02</pdfrwt>
<totfact> 0.22512315E+05</totfact>
</mgrwt>
</event>
<event>
 7    1  0.3301067E-009  0.9039707E+02  0.7818608E-02  0.1301893E+00
          1   -1    0    0  501    0  0.00000000000E+00  0.00000000000E+00  0.69769589027E+02  0.69769589209E+02  0.50400000000E-02 0. -1.
         -1   -1    0    0    0  501 -0.00000000000E+00 -0.00000000000E+00 -0.29280772168E+02  0.29280772602E+02  0.50400000000E-02 0.  1.
         23    2    1    2    0    0  0.00000000000E+00  0.00000000000E+00  0.40488816859E+02  0.99050361811E+02  0.90397067896E+02 0.  0.
    9000005    2    3    3    0    0 -0.35582667861E+02  0.23849633507E+02  0.35909171421E+02  0.55970152633E+02  0.28736950256E+01 0.  0.
         22    1    3    3    0    0  0.35582667861E+02 -0.23849633507E+02  0.45796454378E+01  0.43080209178E+02  0.00000000000E+00 0.  1.
         22    1    4    4    0    0 -0.54891402160E+01  0.27767459214E+01  0.60524387918E+01  0.86297736674E+01  0.00000000000E+00 0.  1.
         22    1    4    4    0    0 -0.30093527645E+02  0.21072887585E+02  0.29856732629E+02  0.47340378965E+02  0.00000000000E+00 0.  1.
<mgrwt>
<rscale>  0 0.90397068E+02</rscale>
<asrwt>0</asrwt>
<pdfrwt beam="1">  1        1 0.10733783E-01 0.90397068E+02</pdfrwt>
<pdfrwt beam="2">  1       -1 0.45047342E-02 0.90397068E+02</pdfrwt>
<totfact> 0.10097795E+05</totfact>
</mgrwt>
</event>
<event>
 7    1  0.3301067E-009  0.9003928E+02  0.7818608E-02  0.1302757E+00
         -1   -1    0    0    0  501 -0.00000000000E+00  0.00000000000E+00  0.14841460627E+03  0.14841460636E+03  0.50400000000E-02 0.  1.
          1   -1    0    0  501    0  0.00000000000E+00 -0.00000000000E+00 -0.13656122165E+02  0.13656123095E+02  0.50400000000E-02 0. -1.
         23    2    1    2    0    0  0.00000000000E+00  0.00000000000E+00  0.13475848411E+03  0.16207072945E+03  0.90039282020E+02 0.  0.
    9000005    2    3    3    0    0 -0.34495040265E+02  0.25638919445E+02  0.52204090827E+02  0.68998231673E+02  0.13719580230E+02 0.  0.
         22    1    3    3    0    0  0.34495040265E+02 -0.25638919445E+02  0.82554393281E+02  0.93072497781E+02  0.00000000000E+00 0.  1.
         22    1    4    4    0    0 -0.24059641276E+02  0.10141406973E+02  0.26301236220E+02  0.37060349438E+02  0.00000000000E+00 0.  1.
         22    1    4    4    0    0 -0.10435398989E+02  0.15497512472E+02  0.25902854606E+02  0.31937882235E+02  0.00000000000E+00 0.  1.
<mgrwt>
<rscale>  0 0.90039282E+02</rscale>
<asrwt>0</asrwt>
<pdfrwt beam="2">  1        1 0.21009419E-02 0.90039282E+02</pdfrwt>
<pdfrwt beam="1">  1       -1 0.22833017E-01 0.90039282E+02</pdfrwt>
<totfact> 0.77454551E+04</totfact>
</mgrwt>
</event>
<event>
 7    1  0.3301067E-009  0.9194944E+02  0.7818608E-02  0.1298198E+00
          1   -1    0    0  501    0  0.00000000000E+00  0.00000000000E+00  0.22454416012E+02  0.22454416578E+02  0.50400000000E-02 0. -1.
         -1   -1    0    0    0  501 -0.00000000000E+00 -0.00000000000E+00 -0.94131805088E+02  0.94131805223E+02  0.50400000000E-02 0.  1.
         23    2    1    2    0    0  0.71054273576E-14  0.00000000000E+00 -0.71677389076E+02  0.11658622180E+03  0.91949437241E+02 0.  0.
    9000005    2    3    3    0    0  0.37745544087E+02 -0.50993644392E+01 -0.32682715241E+01  0.38288476109E+02  0.21438721725E+01 0.  0.
         22    1    3    3    0    0 -0.37745544087E+02  0.50993644392E+01 -0.68409117552E+02  0.78297745691E+02  0.00000000000E+00 0.  1.
         22    1    4    4    0    0  0.29233644519E+02 -0.30880415005E+01 -0.22298628621E+01  0.29480743894E+02  0.00000000000E+00 0. -1.
         22    1    4    4    0    0  0.85118995683E+01 -0.20113229387E+01 -0.10384086620E+01  0.88077322151E+01  0.00000000000E+00 0. -1.
<mgrwt>
<rscale>  0 0.91949437E+02</rscale>
<asrwt>0</asrwt>
<pdfrwt beam="1">  1        1 0.34545257E-02 0.91949437E+02</pdfrwt>
<pdfrwt beam="2">  1       -1 0.14481816E-01 0.91949437E+02</pdfrwt>
<totfact> 0.80510048E+04</totfact>
</mgrwt>
</event>
<event>
 7    1  0.3301067E-009  0.9149113E+02  0.7818608E-02  0.1299280E+00
          1   -1    0    0  501    0  0.00000000000E+00  0.00000000000E+00  0.69305199751E+02  0.69305199934E+02  0.50400000000E-02 0. -1.
         -1   -1    0    0    0  501 -0.00000000000E+00 -0.00000000000E+00 -0.30194802951E+02  0.30194803372E+02  0.50400000000E-02 0.  1.
         23    2    1    2    0    0 -0.35527136788E-14  0.00000000000E+00  0.39110396800E+02  0.99500003306E+02  0.91491133560E+02 0.  0.
    9000005    2    3    3    0    0  0.22290744053E+02  0.17730435053E+02  0.57485413798E+02  0.65604769905E+02  0.13717413645E+02 0.  0.
         22    1    3    3    0    0 -0.22290744053E+02 -0.17730435053E+02 -0.18375016998E+02  0.33895233401E+02  0.00000000000E+00 0.  1.
         22    1    4    4    0    0  0.18906855395E+02  0.72929439431E+01  0.41915137926E+02  0.46556793270E+02  0.00000000000E+00 0.  1.
         22    1    4    4    0    0  0.33838886580E+01  0.10437491110E+02  0.15570275872E+02  0.19047976634E+02  0.00000000000E+00 0.  1.
<mgrwt>
<rscale>  0 0.91491134E+02</rscale>
<asrwt>0</asrwt>
<pdfrwt beam="1">  1        1 0.10662338E-01 0.91491134E+02</pdfrwt>
<pdfrwt beam="2">  1       -1 0.46453544E-02 0.91491134E+02</pdfrwt>
<totfact> 0.97583286E+04</totfact>
</mgrwt>
</event>
<event>
 7    1  0.3301067E-009  0.8460192E+02  0.7818608E-02  0.1316477E+00
          1   -1    0    0  501    0  0.00000000000E+00  0.00000000000E+00  0.20017074536E+03  0.20017074542E+03  0.50400000000E-02 0. -1.
         -1   -1    0    0    0  501 -0.00000000000E+00 -0.00000000000E+00 -0.89392238821E+01  0.89392253028E+01  0.50400000000E-02 0.  1.
         23    2    1    2    0    0  0.00000000000E+00  0.00000000000E+00  0.19123152148E+03  0.20910997072E+03  0.84601921079E+02 0.  0.
    9000005    2    3    3    0    0  0.40813029979E+02  0.34898582180E+01  0.11418052224E+03  0.12184749878E+03  0.11477751241E+02 0.  0.
         22    1    3    3    0    0 -0.40813029979E+02 -0.34898582180E+01  0.77050999233E+02  0.87262471941E+02  0.00000000000E+00 0.  1.
         22    1    4    4    0    0  0.37802685133E+02  0.63752397511E+01  0.10434363018E+03  0.11116330259E+03  0.00000000000E+00 0.  1.
         22    1    4    4    0    0  0.30103448465E+01 -0.28853815331E+01  0.98368920679E+01  0.10684196191E+02  0.00000000000E+00 0.  1.
<mgrwt>
<rscale>  0 0.84601921E+02</rscale>
<asrwt>0</asrwt>
<pdfrwt beam="1">  1        1 0.30795498E-01 0.84601921E+02</pdfrwt>
<pdfrwt beam="2">  1       -1 0.13752654E-02 0.84601921E+02</pdfrwt>
<totfact> 0.14461313E+05</totfact>
</mgrwt>
</event>
<event>
 7    1  0.3301067E-009  0.8906648E+02  0.7818608E-02  0.1305128E+00
         -1   -1    0    0    0  501 -0.00000000000E+00  0.00000000000E+00  0.40728543854E+02  0.40728544166E+02  0.50400000000E-02 0.  1.
          1   -1    0    0  501    0  0.00000000000E+00 -0.00000000000E+00 -0.48693351606E+02  0.48693351867E+02  0.50400000000E-02 0. -1.
         23    2    1    2    0    0  0.17763568394E-14  0.00000000000E+00 -0.79648077515E+01  0.89421896033E+02  0.89066477013E+02 0.  0.
    9000005    2    3    3    0    0 -0.11605536334E+02 -0.40490625616E+02  0.10270052600E+02  0.43523210121E+02  0.38231665554E+01 0.  0.
         22    1    3    3    0    0  0.11605536334E+02  0.40490625616E+02 -0.18234860351E+02  0.45898685911E+02  0.00000000000E+00 0. -1.
         22    1    4    4    0    0 -0.40701589947E+01 -0.90327519033E+01  0.16215023857E+01  0.10039226622E+02  0.00000000000E+00 0.  1.
         22    1    4    4    0    0 -0.75353773394E+01 -0.31457873712E+02  0.86485502142E+01  0.33483983499E+02  0.00000000000E+00 0.  1.
<mgrwt>
<rscale>  0 0.89066477E+02</rscale>
<asrwt>0</asrwt>
<pdfrwt beam="2">  1        1 0.74912849E-02 0.89066477E+02</pdfrwt>
<pdfrwt beam="1">  1       -1 0.62659299E-02 0.89066477E+02</pdfrwt>
<totfact> 0.99699676E+04</totfact>
</mgrwt>
</event>
<event>
 7    1  0.3301067E-009  0.9116293E+02  0.7818608E-02  0.1300060E+00
         -1   -1    0    0    0  501 -0.00000000000E+00  0.00000000000E+00  0.21093136328E+03  0.21093136334E+03  0.50400000000E-02 0. -1.
          1   -1    0    0  501    0  0.00000000000E+00 -0.00000000000E+00 -0.98499814640E+01  0.98499827534E+01  0.50400000000E-02 0.  1.
         23    2    1    2    0    0  0.71054273576E-14  0.00000000000E+00  0.20108138181E+03  0.22078134609E+03  0.91162934736E+02 0.  0.
    9000005    2    3    3    0    0 -0.33614539812E+02 -0.10022801168E+02  0.31257407691E+02  0.47372649606E+02  0.60620594767E+01 0.  0.
         22    1    3    3    0    0  0.33614539812E+02  0.10022801168E+02  0.16982397412E+03  0.17340869649E+03  0.00000000000E+00 0. -1.
         22    1    4    4    0    0 -0.32584008701E+02 -0.83728425245E+01  0.29298841323E+02  0.44612153253E+02  0.00000000000E+00 0.  1.
         22    1    4    4    0    0 -0.10305311102E+01 -0.16499586439E+01  0.19585663684E+01  0.27604963531E+01  0.00000000000E+00 0.  1.
<mgrwt>
<rscale>  0 0.91162935E+02</rscale>
<asrwt>0</asrwt>
<pdfrwt beam="2">  1        1 0.15153819E-02 0.91162935E+02</pdfrwt>
<pdfrwt beam="1">  1       -1 0.32450979E-01 0.91162935E+02</pdfrwt>
<totfact> 0.68382400E+04</totfact>
</mgrwt>
</event>
<event>
 7    1  0.3301067E-009  0.9061910E+02  0.7818608E-02  0.1301359E+00
          1   -1    0    0  501    0  0.00000000000E+00  0.00000000000E+00  0.47578841717E+02  0.47578841984E+02  0.50400000000E-02 0. -1.
         -1   -1    0    0    0  501 -0.00000000000E+00 -0.00000000000E+00 -0.43148488343E+02  0.43148488637E+02  0.50400000000E-02 0.  1.
         23    2    1    2    0    0  0.00000000000E+00  0.00000000000E+00  0.44303533742E+01  0.90727330621E+02  0.90619095618E+02 0.  0.
    9000005    2    3    3    0    0  0.27659978596E+02  0.32850500372E+02 -0.10870284751E+02  0.45138523687E+02  0.86656470896E+01 0.  0.
         22    1    3    3    0    0 -0.27659978596E+02 -0.32850500372E+02  0.15300638125E+02  0.45588806934E+02  0.00000000000E+00 0. -1.
         22    1    4    4    0    0  0.27065979359E+02  0.32047324965E+02 -0.12000233811E+02  0.43630309277E+02  0.00000000000E+00 0.  1.
         22    1    4    4    0    0  0.59399923719E+00  0.80317540654E+00  0.11299490605E+01  0.15082144101E+01  0.00000000000E+00 0.  1.
<mgrwt>
<rscale>  0 0.90619096E+02</rscale>
<asrwt>0</asrwt>
<pdfrwt beam="1">  1        1 0.73198219E-02 0.90619096E+02</pdfrwt>
<pdfrwt beam="2">  1       -1 0.66382290E-02 0.90619096E+02</pdfrwt>
<totfact> 0.94679914E+04</totfact>
</mgrwt>
</event>
<event>
 7    1  0.3301067E-009  0.9058544E+02  0.7818608E-02  0.1301440E+00
          1   -1    0    0  501    0  0.00000000000E+00  0.00000000000E+00  0.23153568377E+03  0.23153568383E+03  0.50400000000E-02 0. -1.
         -1   -1    0    0    0  501 -0.00000000000E+00 -0.00000000000E+00 -0.88601035123E+01  0.88601049458E+01  0.50400000000E-02 0.  1.
         23    2    1    2    0    0 -0.88817841970E-15 -0.88817841970E-15  0.22267558026E+03  0.24039578878E+03  0.90585436002E+02 0.  0.
    9000005    2    3    3    0    0 -0.76128325236E+01 -0.67025872911E+01  0.22838595472E+03  0.22875584583E+03  0.81371244241E+01 0.  0.
         22    1    3    3    0    0  0.76128325236E+01  0.67025872911E+01 -0.57103744528E+01  0.11639942947E+02  0.00000000000E+00 0.  1.
         22    1    4    4    0    0 -0.75621369464E+01 -0.55264034672E+01  0.22450416283E+03  0.22469945745E+03  0.00000000000E+00 0.  1.
         22    1    4    4    0    0 -0.50695577254E-01 -0.11761838240E+01  0.38817918814E+01  0.40563883739E+01  0.00000000000E+00 0.  1.
<mgrwt>
<rscale>  0 0.90585436E+02</rscale>
<asrwt>0</asrwt>
<pdfrwt beam="1">  1        1 0.35620877E-01 0.90585436E+02</pdfrwt>
<pdfrwt beam="2">  1       -1 0.13630929E-02 0.90585436E+02</pdfrwt>
<totfact> 0.12397076E+05</totfact>
</mgrwt>
</event>
<event>
 7    1  0.3301067E-009  0.9105006E+02  0.7818608E-02  0.1300329E+00
          1   -1    0    0  501    0  0.00000000000E+00  0.00000000000E+00  0.45442014888E+01  0.45442042837E+01  0.50400000000E-02 0. -1.
         -1   -1    0    0    0  501 -0.00000000000E+00 -0.00000000000E+00 -0.45608178045E+03  0.45608178047E+03  0.50400000000E-02 0.  1.
         23    2    1    2    0    0  0.17763568394E-14  0.00000000000E+00 -0.45153757896E+03  0.46062598476E+03  0.91050055592E+02 0.  0.
    9000005    2    3    3    0    0 -0.12103428156E+02  0.25889246414E+02 -0.40365883785E+03  0.40486650213E+03  0.12636499438E+02 0.  0.
         22    1    3    3    0    0  0.12103428156E+02 -0.25889246414E+02 -0.47878741104E+02  0.55759482626E+02  0.00000000000E+00 0. -1.
         22    1    4    4    0    0 -0.28226771286E+01  0.41682743106E+00 -0.15384920356E+02  0.15647268952E+02  0.00000000000E+00 0. -1.
         22    1    4    4    0    0 -0.92807510276E+01  0.25472418983E+02 -0.38827391750E+03  0.38921923318E+03  0.00000000000E+00 0. -1.
<mgrwt>
<rscale>  0 0.91050056E+02</rscale>
<asrwt>0</asrwt>
<pdfrwt beam="1">  1        1 0.69910850E-03 0.91050056E+02</pdfrwt>
<pdfrwt beam="2">  1       -1 0.70166392E-01 0.91050056E+02</pdfrwt>
<totfact> 0.49854682E+04</totfact>
</mgrwt>
</event>
<event>
 7    1  0.3301067E-009  0.9397133E+02  0.7818608E-02  0.1293510E+00
          1   -1    0    0  501    0  0.00000000000E+00  0.00000000000E+00  0.12316322220E+03  0.12316322230E+03  0.50400000000E-02 0. -1.
         -1   -1    0    0    0  501 -0.00000000000E+00 -0.00000000000E+00 -0.17924607576E+02  0.17924608285E+02  0.50400000000E-02 0.  1.
         23    2    1    2    0    0 -0.17763568394E-14  0.00000000000E+00  0.10523861462E+03  0.14108783059E+03  0.93971325052E+02 0.  0.
    9000005    2    3    3    0    0 -0.15256759897E+02 -0.43310084717E+02  0.59865042731E+02  0.76533255327E+02  0.12844596881E+02 0.  0.
         22    1    3    3    0    0  0.15256759897E+02  0.43310084717E+02  0.45373571891E+02  0.64554575259E+02  0.00000000000E+00 0. -1.
         22    1    4    4    0    0 -0.11605087152E+02 -0.24814382071E+02  0.44298660091E+02  0.52084574408E+02  0.00000000000E+00 0.  1.
         22    1    4    4    0    0 -0.36516727452E+01 -0.18495702646E+02  0.15566382640E+02  0.24448680920E+02  0.00000000000E+00 0.  1.
<mgrwt>
<rscale>  0 0.93971325E+02</rscale>
<asrwt>0</asrwt>
<pdfrwt beam="1">  1        1 0.18948189E-01 0.93971325E+02</pdfrwt>
<pdfrwt beam="2">  1       -1 0.27576319E-02 0.93971325E+02</pdfrwt>
<totfact> 0.99704362E+04</totfact>
</mgrwt>
</event>
<event>
 7    1  0.3301067E-009  0.9240110E+02  0.7818608E-02  0.1297139E+00
         -1   -1    0    0    0  501 -0.00000000000E+00  0.00000000000E+00  0.13249427055E+03  0.13249427064E+03  0.50400000000E-02 0.  1.
          1   -1    0    0  501    0  0.00000000000E+00 -0.00000000000E+00 -0.16110060387E+02  0.16110061175E+02  0.50400000000E-02 0. -1.
         23    2    1    2    0    0  0.00000000000E+00  0.11102230246E-15  0.11638421016E+03  0.14860433182E+03  0.92401098806E+02 0.  0.
    9000005    2    3    3    0    0  0.27127688933E+02 -0.93402805654E+00  0.13749899549E+01  0.30435365302E+02  0.13698063675E+02 0.  0.
         22    1    3    3    0    0 -0.27127688933E+02  0.93402805654E+00  0.11500922021E+03  0.11816896652E+03  0.00000000000E+00 0.  1.
         22    1    4    4    0    0  0.71594131075E+01 -0.49238764521E+00 -0.57849284669E+01  0.92176482361E+01  0.00000000000E+00 0.  1.
         22    1    4    4    0    0  0.19968275825E+02 -0.44164041133E+00  0.71599184218E+01  0.21217717066E+02  0.00000000000E+00 0.  1.
<mgrwt>
<rscale>  0 0.92401099E+02</rscale>
<asrwt>0</asrwt>
<pdfrwt beam="2">  1        1 0.24784709E-02 0.92401099E+02</pdfrwt>
<pdfrwt beam="1">  1       -1 0.20383734E-01 0.92401099E+02</pdfrwt>
<totfact> 0.74294224E+04</totfact>
</mgrwt>
</event>
<event>
 7    1  0.3301067E-009  0.9247351E+02  0.7818608E-02  0.1296970E+00
          1   -1    0    0  501    0  0.00000000000E+00  0.00000000000E+00  0.85226298789E+02  0.85226298938E+02  0.50400000000E-02 0. -1.
         -1   -1    0    0    0  501 -0.00000000000E+00 -0.00000000000E+00 -0.25084244795E+02  0.25084245302E+02  0.50400000000E-02 0.  1.
         23    2    1    2    0    0  0.00000000000E+00  0.00000000000E+00  0.60142053993E+02  0.11031054424E+03  0.92473507081E+02 0.  0.
    9000005    2    3    3    0    0 -0.16890153105E+02  0.36249712287E+02  0.57303156926E+02  0.70218422203E+02  0.69033405169E+01 0.  0.
         22    1    3    3    0    0  0.16890153105E+02 -0.36249712287E+02  0.28388970677E+01  0.40092122036E+02  0.00000000000E+00 0.  1.
         22    1    4    4    0    0 -0.44158031176E+01  0.17602023621E+02  0.25544517050E+02  0.31334532134E+02  0.00000000000E+00 0.  1.
         22    1    4    4    0    0 -0.12474349988E+02  0.18647688666E+02  0.31758639875E+02  0.38883890069E+02  0.00000000000E+00 0.  1.
<mgrwt>
<rscale>  0 0.92473507E+02</rscale>
<asrwt>0</asrwt>
<pdfrwt beam="1">  1        1 0.13111738E-01 0.92473507E+02</pdfrwt>
<pdfrwt beam="2">  1       -1 0.38591146E-02 0.92473507E+02</pdfrwt>
<totfact> 0.97894282E+04</totfact>
</mgrwt>
</event>
<event>
 7    1  0.3301067E-009  0.9500370E+02  0.7818608E-02  0.1291168E+00
         -1   -1    0    0    0  501 -0.00000000000E+00  0.00000000000E+00  0.56129151228E+03  0.56129151230E+03  0.50400000000E-02 0.  1.
          1   -1    0    0  501    0  0.00000000000E+00 -0.00000000000E+00 -0.40200590942E+01  0.40200622535E+01  0.50400000000E-02 0. -1.
         23    2    1    2    0    0  0.00000000000E+00  0.00000000000E+00  0.55727145319E+03  0.56531157456E+03  0.95003704093E+02 0.  0.
    9000005    2    3    3    0    0  0.44302451693E+02 -0.66945786379E+01  0.36094720519E+03  0.36393944401E+03  0.12708633424E+02 0.  0.
         22    1    3    3    0    0 -0.44302451693E+02  0.66945786379E+01  0.19632424799E+03  0.20137213054E+03  0.00000000000E+00 0. -1.
         22    1    4    4    0    0  0.26945506499E+02 -0.74159698080E+01  0.17951159404E+03  0.18167407444E+03  0.00000000000E+00 0.  1.
         22    1    4    4    0    0  0.17356945193E+02  0.72139117014E+00  0.18143561115E+03  0.18226536957E+03  0.00000000000E+00 0.  1.
<mgrwt>
<rscale>  0 0.95003704E+02</rscale>
<asrwt>0</asrwt>
<pdfrwt beam="2">  1        1 0.61847141E-03 0.95003704E+02</pdfrwt>
<pdfrwt beam="1">  1       -1 0.86352466E-01 0.95003704E+02</pdfrwt>
<totfact> 0.39159842E+04</totfact>
</mgrwt>
</event>
<event>
 7    1  0.3301067E-009  0.8850718E+02  0.7818608E-02  0.1306508E+00
          1   -1    0    0  501    0  0.00000000000E+00  0.00000000000E+00  0.67734090426E+01  0.67734109177E+01  0.50400000000E-02 0. -1.
         -1   -1    0    0    0  501 -0.00000000000E+00 -0.00000000000E+00 -0.28912763579E+03  0.28912763584E+03  0.50400000000E-02 0.  1.
         23    2    1    2    0    0  0.00000000000E+00  0.00000000000E+00 -0.28235422675E+03  0.29590104676E+03  0.88507175453E+02 0.  0.
    9000005    2    3    3    0    0  0.80334750417E+01  0.13851631182E+02 -0.27855173555E+03  0.27944312019E+03  0.15523647545E+02 0.  0.
         22    1    3    3    0    0 -0.80334750417E+01 -0.13851631182E+02 -0.38024912010E+01  0.16457926570E+02  0.00000000000E+00 0. -1.
         22    1    4    4    0    0  0.77703060167E+01  0.14824710410E+02 -0.15744244496E+03  0.15832963453E+03  0.00000000000E+00 0.  1.
         22    1    4    4    0    0  0.26316902500E+00 -0.97307922714E+00 -0.12110929059E+03  0.12111348566E+03  0.00000000000E+00 0.  1.
<mgrwt>
<rscale>  0 0.88507175E+02</rscale>
<asrwt>0</asrwt>
<pdfrwt beam="1">  1        1 0.10420633E-02 0.88507175E+02</pdfrwt>
<pdfrwt beam="2">  1       -1 0.44481165E-01 0.88507175E+02</pdfrwt>
<totfact> 0.66417246E+04</totfact>
</mgrwt>
</event>
<event>
 7    1  0.3301067E-009  0.9637968E+02  0.7818608E-02  0.1288099E+00
          1   -1    0    0  501    0  0.00000000000E+00  0.00000000000E+00  0.39680478910E+02  0.39680479230E+02  0.50400000000E-02 0. -1.
         -1   -1    0    0    0  501 -0.00000000000E+00 -0.00000000000E+00 -0.58524012556E+02  0.58524012773E+02  0.50400000000E-02 0.  1.
         23    2    1    2    0    0  0.00000000000E+00  0.00000000000E+00 -0.18843533646E+02  0.98204492003E+02  0.96379684007E+02 0.  0.
    9000005    2    3    3    0    0 -0.82200130603E+01 -0.21195191644E+02  0.32086544912E+02  0.42431042536E+02  0.15938702668E+02 0.  0.
         22    1    3    3    0    0  0.82200130603E+01  0.21195191644E+02 -0.50930078558E+02  0.55773449467E+02  0.00000000000E+00 0.  1.
         22    1    4    4    0    0 -0.23236630175E+01 -0.19854794758E+02  0.17229743918E+02  0.26390838565E+02  0.00000000000E+00 0.  1.
         22    1    4    4    0    0 -0.58963500428E+01 -0.13403968860E+01  0.14856800994E+02  0.16040203971E+02  0.00000000000E+00 0.  1.
<mgrwt>
<rscale>  0 0.96379684E+02</rscale>
<asrwt>0</asrwt>
<pdfrwt beam="1">  1        1 0.61046891E-02 0.96379684E+02</pdfrwt>
<pdfrwt beam="2">  1       -1 0.90036943E-02 0.96379684E+02</pdfrwt>
<totfact> 0.77340843E+04</totfact>
</mgrwt>
</event>
<event>
 7    1  0.3301067E-009  0.9793790E+02  0.7818608E-02  0.1284693E+00
         -1   -1    0    0    0  501 -0.00000000000E+00  0.00000000000E+00  0.28454060303E+03  0.28454060308E+03  0.50400000000E-02 0.  1.
          1   -1    0    0  501    0  0.00000000000E+00 -0.00000000000E+00 -0.84274707113E+01  0.84274722184E+01  0.50400000000E-02 0. -1.
         23    2    1    2    0    0  0.00000000000E+00  0.00000000000E+00  0.27611313232E+03  0.29296807530E+03  0.97937895129E+02 0.  0.
    9000005    2    3    3    0    0 -0.54923585349E+00  0.29215679951E+02  0.25519878922E+03  0.25703386649E+03  0.92805651440E+01 0.  0.
         22    1    3    3    0    0  0.54923585349E+00 -0.29215679951E+02  0.20914343102E+02  0.35934208804E+02  0.00000000000E+00 0. -1.
         22    1    4    4    0    0 -0.25057891438E+01  0.28356749760E+02  0.24093368309E+03  0.24260961210E+03  0.00000000000E+00 0.  1.
         22    1    4    4    0    0  0.19565532903E+01  0.85893019139E+00  0.14265106127E+02  0.14424254388E+02  0.00000000000E+00 0.  1.
<mgrwt>
<rscale>  0 0.97937895E+02</rscale>
<asrwt>0</asrwt>
<pdfrwt beam="2">  1        1 0.12965341E-02 0.97937895E+02</pdfrwt>
<pdfrwt beam="1">  1       -1 0.43775478E-01 0.97937895E+02</pdfrwt>
<totfact> 0.51260604E+04</totfact>
</mgrwt>
</event>
<event>
 7    1  0.3301067E-009  0.9985673E+02  0.7818608E-02  0.1280598E+00
          1   -1    0    0  501    0  0.00000000000E+00  0.00000000000E+00  0.10536118428E+03  0.10536118440E+03  0.50400000000E-02 0. -1.
         -1   -1    0    0    0  501 -0.00000000000E+00 -0.00000000000E+00 -0.23659959424E+02  0.23659959961E+02  0.50400000000E-02 0.  1.
         23    2    1    2    0    0 -0.71054273576E-14 -0.88817841970E-15  0.81701224859E+02  0.12902114436E+03  0.99856725110E+02 0.  0.
    9000005    2    3    3    0    0 -0.39324478495E+02 -0.56449506058E+01  0.79672359862E+02  0.89241798350E+02  0.61752384908E+01 0.  0.
         22    1    3    3    0    0  0.39324478495E+02  0.56449506058E+01  0.20288649967E+01  0.39779346015E+02  0.00000000000E+00 0.  1.
         22    1    4    4    0    0 -0.24933694422E+02 -0.89923627560E+00  0.46443384794E+02  0.52720828280E+02  0.00000000000E+00 0. -1.
         22    1    4    4    0    0 -0.14390784072E+02 -0.47457143302E+01  0.33228975068E+02  0.36520970069E+02  0.00000000000E+00 0. -1.
<mgrwt>
<rscale>  0 0.99856725E+02</rscale>
<asrwt>0</asrwt>
<pdfrwt beam="1">  1        1 0.16209413E-01 0.99856725E+02</pdfrwt>
<pdfrwt beam="2">  1       -1 0.36399938E-02 0.99856725E+02</pdfrwt>
<totfact> 0.82130715E+04</totfact>
</mgrwt>
</event>
<event>
 7    1  0.3301067E-009  0.1002048E+03  0.7818608E-02  0.1279866E+00
         -1   -1    0    0    0  501 -0.00000000000E+00  0.00000000000E+00  0.81930185065E+02  0.81930185220E+02  0.50400000000E-02 0.  1.
          1   -1    0    0  501    0  0.00000000000E+00 -0.00000000000E+00 -0.30638897953E+02  0.30638898368E+02  0.50400000000E-02 0. -1.
         23    2    1    2    0    0  0.00000000000E+00  0.00000000000E+00  0.51291287111E+02  0.11256908359E+03  0.10020480251E+03 0.  0.
    9000005    2    3    3    0    0  0.39263262006E+02 -0.18198938555E+02  0.53818522147E+02  0.69219435091E+02  0.47001872786E+01 0.  0.
         22    1    3    3    0    0 -0.39263262006E+02  0.18198938555E+02 -0.25272350356E+01  0.43349648496E+02  0.00000000000E+00 0. -1.
         22    1    4    4    0    0  0.47693786510E+01 -0.34064697272E+01  0.92788799506E+01  0.10974908740E+02  0.00000000000E+00 0.  1.
         22    1    4    4    0    0  0.34493883355E+02 -0.14792468828E+02  0.44539642196E+02  0.58244526351E+02  0.00000000000E+00 0.  1.
<mgrwt>
<rscale>  0 0.10020480E+03</rscale>
<asrwt>0</asrwt>
<pdfrwt beam="2">  1        1 0.47136766E-02 0.10020480E+03</pdfrwt>
<pdfrwt beam="1">  1       -1 0.12604644E-01 0.10020480E+03</pdfrwt>
<totfact> 0.66170978E+04</totfact>
</mgrwt>
</event>
<event>
 7    1  0.3301067E-009  0.9152830E+02  0.7818608E-02  0.1299192E+00
         -1   -1    0    0    0  501 -0.00000000000E+00  0.00000000000E+00  0.31580245499E+01  0.31580285716E+01  0.50400000000E-02 0. -1.
          1   -1    0    0  501    0  0.00000000000E+00 -0.00000000000E+00 -0.66318546774E+03  0.66318546776E+03  0.50400000000E-02 0.  1.
         23    2    1    2    0    0  0.00000000000E+00  0.00000000000E+00 -0.66002744319E+03  0.66634349633E+03  0.91528298019E+02 0.  0.
    9000005    2    3    3    0    0  0.37249131416E+02 -0.64236124660E+01 -0.51513393531E+03  0.51660075289E+03  0.91981512596E+01 0.  0.
         22    1    3    3    0    0 -0.37249131416E+02  0.64236124660E+01 -0.14489350788E+03  0.14974274344E+03  0.00000000000E+00 0. -1.
         22    1    4    4    0    0  0.36427377867E+02 -0.61299474017E+01 -0.46692106031E+03  0.46837998108E+03  0.00000000000E+00 0. -1.
         22    1    4    4    0    0  0.82175354933E+00 -0.29366506431E+00 -0.48212875004E+02  0.48220771812E+02  0.00000000000E+00 0. -1.
<mgrwt>
<rscale>  0 0.91528298E+02</rscale>
<asrwt>0</asrwt>
<pdfrwt beam="2">  1        1 0.10202842E+00 0.91528298E+02</pdfrwt>
<pdfrwt beam="1">  1       -1 0.48585077E-03 0.91528298E+02</pdfrwt>
<totfact> 0.14070367E+05</totfact>
</mgrwt>
</event>
<event>
 7    1  0.3301067E-009  0.8994491E+02  0.7818608E-02  0.1302985E+00
         -1   -1    0    0    0  501 -0.00000000000E+00  0.00000000000E+00  0.15972538391E+03  0.15972538399E+03  0.50400000000E-02 0.  1.
          1   -1    0    0  501    0  0.00000000000E+00 -0.00000000000E+00 -0.12662492280E+02  0.12662493283E+02  0.50400000000E-02 0. -1.
         23    2    1    2    0    0  0.00000000000E+00  0.00000000000E+00  0.14706289163E+03  0.17238787727E+03  0.89944906113E+02 0.  0.
    9000005    2    3    3    0    0  0.11231011176E+02 -0.14692759748E+02  0.15200921743E+03  0.15324423760E+03  0.59145052318E+01 0.  0.
         22    1    3    3    0    0 -0.11231011176E+02  0.14692759748E+02 -0.49463258009E+01  0.19143639674E+02  0.00000000000E+00 0. -1.
         22    1    4    4    0    0 -0.19847274958E+00  0.20966593827E+00  0.51555214490E+00  0.59088514290E+00  0.00000000000E+00 0. -1.
         22    1    4    4    0    0  0.11429483925E+02 -0.14902425686E+02  0.15149366528E+03  0.15265335245E+03  0.00000000000E+00 0. -1.
<mgrwt>
<rscale>  0 0.89944906E+02</rscale>
<asrwt>0</asrwt>
<pdfrwt beam="2">  1        1 0.19480758E-02 0.89944906E+02</pdfrwt>
<pdfrwt beam="1">  1       -1 0.24573136E-01 0.89944906E+02</pdfrwt>
<totfact> 0.76321324E+04</totfact>
</mgrwt>
</event>
<event>
 7    1  0.3301067E-009  0.8540217E+02  0.7818608E-02  0.1314384E+00
          1   -1    0    0  501    0  0.00000000000E+00  0.00000000000E+00  0.26611637060E+02  0.26611637538E+02  0.50400000000E-02 0. -1.
         -1   -1    0    0    0  501 -0.00000000000E+00 -0.00000000000E+00 -0.68518245089E+02  0.68518245274E+02  0.50400000000E-02 0.  1.
         23    2    1    2    0    0  0.00000000000E+00  0.00000000000E+00 -0.41906608029E+02  0.95129882812E+02  0.85402170976E+02 0.  0.
    9000005    2    3    3    0    0 -0.23939375622E+02  0.28279893747E+02 -0.43710379043E+02  0.58034065185E+02  0.91928989019E+01 0.  0.
         22    1    3    3    0    0  0.23939375622E+02 -0.28279893747E+02  0.18037710145E+01  0.37095817627E+02  0.00000000000E+00 0. -1.
         22    1    4    4    0    0 -0.18925718096E+01  0.62872152352E+01 -0.11428270087E+02  0.13180146458E+02  0.00000000000E+00 0. -1.
         22    1    4    4    0    0 -0.22046803813E+02  0.21992678512E+02 -0.32282108956E+02  0.44853918727E+02  0.00000000000E+00 0. -1.
<mgrwt>
<rscale>  0 0.85402171E+02</rscale>
<asrwt>0</asrwt>
<pdfrwt beam="1">  1        1 0.40940981E-02 0.85402171E+02</pdfrwt>
<pdfrwt beam="2">  1       -1 0.10541268E-01 0.85402171E+02</pdfrwt>
<totfact> 0.10256563E+05</totfact>
</mgrwt>
</event>
<event>
 7    1  0.3301067E-009  0.9355822E+02  0.7818608E-02  0.1294457E+00
          1   -1    0    0  501    0  0.00000000000E+00  0.00000000000E+00  0.17240429832E+03  0.17240429840E+03  0.50400000000E-02 0. -1.
         -1   -1    0    0    0  501 -0.00000000000E+00 -0.00000000000E+00 -0.12692753352E+02  0.12692754352E+02  0.50400000000E-02 0.  1.
         23    2    1    2    0    0  0.00000000000E+00  0.00000000000E+00  0.15971154497E+03  0.18509705275E+03  0.93558224326E+02 0.  0.
    9000005    2    3    3    0    0  0.19631975297E+02 -0.41506568329E+02  0.87654732388E+02  0.99654710153E+02  0.11810989676E+02 0.  0.
         22    1    3    3    0    0 -0.19631975297E+02  0.41506568329E+02  0.72056812583E+02  0.85442342595E+02  0.00000000000E+00 0. -1.
         22    1    4    4    0    0  0.74569995912E+01 -0.14572515591E+02  0.43891513552E+02  0.46844743734E+02  0.00000000000E+00 0. -1.
         22    1    4    4    0    0  0.12174975706E+02 -0.26934052739E+02  0.43763218836E+02  0.52809966420E+02  0.00000000000E+00 0. -1.
<mgrwt>
<rscale>  0 0.93558224E+02</rscale>
<asrwt>0</asrwt>
<pdfrwt beam="1">  1        1 0.26523735E-01 0.93558224E+02</pdfrwt>
<pdfrwt beam="2">  1       -1 0.19527316E-02 0.93558224E+02</pdfrwt>
<totfact> 0.10735360E+05</totfact>
</mgrwt>
</event>
<event>
 7    1  0.3301067E-009  0.9141226E+02  0.7818608E-02  0.1299467E+00
         -1   -1    0    0    0  501 -0.00000000000E+00  0.00000000000E+00  0.14637093796E+03  0.14637093804E+03  0.50400000000E-02 0.  1.
          1   -1    0    0  501    0  0.00000000000E+00 -0.00000000000E+00 -0.14272302371E+02  0.14272303261E+02  0.50400000000E-02 0. -1.
         23    2    1    2    0    0  0.00000000000E+00  0.00000000000E+00  0.13209863559E+03  0.16064324131E+03  0.91412260958E+02 0.  0.
    9000005    2    3    3    0    0  0.39025887235E+02  0.10818317362E+02  0.30955852214E+02  0.51694085764E+02  0.85998750925E+01 0.  0.
         22    1    3    3    0    0 -0.39025887235E+02 -0.10818317362E+02  0.10114278337E+03  0.10894915554E+03  0.00000000000E+00 0.  1.
         22    1    4    4    0    0  0.22906434583E+02  0.49915809594E+01  0.12739968640E+02  0.26681968194E+02  0.00000000000E+00 0. -1.
         22    1    4    4    0    0  0.16119452652E+02  0.58267364030E+01  0.18215883574E+02  0.25012117570E+02  0.00000000000E+00 0. -1.
<mgrwt>
<rscale>  0 0.91412261E+02</rscale>
<asrwt>0</asrwt>
<pdfrwt beam="2">  1        1 0.21957388E-02 0.91412261E+02</pdfrwt>
<pdfrwt beam="1">  1       -1 0.22518607E-01 0.91412261E+02</pdfrwt>
<totfact> 0.74713196E+04</totfact>
</mgrwt>
</event>
<event>
 7    1  0.3301067E-009  0.9049800E+02  0.7818608E-02  0.1301650E+00
         -1   -1    0    0    0  501 -0.00000000000E+00  0.00000000000E+00  0.22300404755E+02  0.22300405325E+02  0.50400000000E-02 0.  1.
          1   -1    0    0  501    0  0.00000000000E+00 -0.00000000000E+00 -0.91813227108E+02  0.91813227246E+02  0.50400000000E-02 0. -1.
         23    2    1    2    0    0  0.00000000000E+00  0.00000000000E+00 -0.69512822352E+02  0.11411363257E+03  0.90498003664E+02 0.  0.
    9000005    2    3    3    0    0 -0.65672862189E+01  0.32509748921E+02  0.23061396132E+01  0.35006260468E+02  0.10959332502E+02 0.  0.
         22    1    3    3    0    0  0.65672862189E+01 -0.32509748921E+02 -0.71818961966E+02  0.79107372103E+02  0.00000000000E+00 0. -1.
         22    1    4    4    0    0 -0.77186915607E+01  0.28798921829E+02 -0.11052000535E+01  0.29835843629E+02  0.00000000000E+00 0.  1.
         22    1    4    4    0    0  0.11514053418E+01  0.37108270920E+01  0.34113396667E+01  0.51704168390E+01  0.00000000000E+00 0.  1.
<mgrwt>
<rscale>  0 0.90498004E+02</rscale>
<asrwt>0</asrwt>
<pdfrwt beam="2">  1        1 0.14125112E-01 0.90498004E+02</pdfrwt>
<pdfrwt beam="1">  1       -1 0.34308316E-02 0.90498004E+02</pdfrwt>
<totfact> 0.10511660E+05</totfact>
</mgrwt>
</event>
<event>
 7    1  0.3301067E-009  0.9152585E+02  0.7818608E-02  0.1299198E+00
         -1   -1    0    0    0  501 -0.00000000000E+00  0.00000000000E+00  0.37411123628E+01  0.37411157578E+01  0.50400000000E-02 0.  1.
          1   -1    0    0  501    0  0.00000000000E+00 -0.00000000000E+00 -0.55979190523E+03  0.55979190526E+03  0.50400000000E-02 0. -1.
         23    2    1    2    0    0  0.00000000000E+00  0.35527136788E-14 -0.55605079287E+03  0.56353302102E+03  0.91525851654E+02 0.  0.
    9000005    2    3    3    0    0  0.19888680596E+02  0.30549445323E+02 -0.44789118794E+03  0.44939569861E+03  0.45988558501E+01 0.  0.
         22    1    3    3    0    0 -0.19888680596E+02 -0.30549445323E+02 -0.10815960493E+03  0.11413732240E+03  0.00000000000E+00 0.  1.
         22    1    4    4    0    0  0.10733918837E+02  0.12311505309E+02 -0.19699816075E+03  0.19767413973E+03  0.00000000000E+00 0. -1.
         22    1    4    4    0    0  0.91547617588E+01  0.18237940014E+02 -0.25089302718E+03  0.25172155889E+03  0.00000000000E+00 0. -1.
<mgrwt>
<rscale>  0 0.91525852E+02</rscale>
<asrwt>0</asrwt>
<pdfrwt beam="2">  1        1 0.86121765E-01 0.91525852E+02</pdfrwt>
<pdfrwt beam="1">  1       -1 0.57555645E-03 0.91525852E+02</pdfrwt>
<totfact> 0.13945911E+05</totfact>
</mgrwt>
</event>
<event>
 7    1  0.3301067E-009  0.9129733E+02  0.7818608E-02  0.1299740E+00
         -1   -1    0    0    0  501 -0.00000000000E+00  0.00000000000E+00  0.20749571308E+02  0.20749571920E+02  0.50400000000E-02 0.  1.
          1   -1    0    0  501    0  0.00000000000E+00 -0.00000000000E+00 -0.10042619285E+03  0.10042619297E+03  0.50400000000E-02 0. -1.
         23    2    1    2    0    0 -0.71054273576E-14  0.00000000000E+00 -0.79676621538E+02  0.12117576489E+03  0.91297327331E+02 0.  0.
    9000005    2    3    3    0    0  0.42388668713E+02  0.13088106368E+02 -0.53228572676E+02  0.69526979311E+02  0.57115794128E+01 0.  0.
         22    1    3    3    0    0 -0.42388668713E+02 -0.13088106368E+02 -0.26448048862E+02  0.51648785582E+02  0.00000000000E+00 0. -1.
         22    1    4    4    0    0  0.17005355079E+02  0.34550295083E+01 -0.24226556966E+02  0.29800090481E+02  0.00000000000E+00 0. -1.
         22    1    4    4    0    0  0.25383313633E+02  0.96330768596E+01 -0.29002015710E+02  0.39726888829E+02  0.00000000000E+00 0. -1.
<mgrwt>
<rscale>  0 0.91297327E+02</rscale>
<asrwt>0</asrwt>
<pdfrwt beam="2">  1        1 0.15450183E-01 0.91297327E+02</pdfrwt>
<pdfrwt beam="1">  1       -1 0.31922419E-02 0.91297327E+02</pdfrwt>
<totfact> 0.10414968E+05</totfact>
</mgrwt>
</event>
<event>
 7    1  0.3301067E-009  0.7103745E+02  0.7818608E-02  0.1356600E+00
         -1   -1    0    0    0  501 -0.00000000000E+00  0.00000000000E+00  0.17618869391E+03  0.17618869398E+03  0.50400000000E-02 0.  1.
          1   -1    0    0  501    0  0.00000000000E+00 -0.00000000000E+00 -0.71603884125E+01  0.71603901863E+01  0.50400000000E-02 0. -1.
         23    2    1    2    0    0  0.00000000000E+00 -0.35527136788E-14  0.16902830550E+03  0.18334908417E+03  0.71037445098E+02 0.  0.
    9000005    2    3    3    0    0 -0.24330886515E+02 -0.22006295221E+02  0.11001231464E+03  0.11582755986E+03  0.15396271720E+02 0.  0.
         22    1    3    3    0    0  0.24330886515E+02  0.22006295221E+02  0.59015990858E+02  0.67521524308E+02  0.00000000000E+00 0. -1.
         22    1    4    4    0    0 -0.34724497511E+01  0.23183794527E+01  0.11463988983E+02  0.12200648915E+02  0.00000000000E+00 0. -1.
         22    1    4    4    0    0 -0.20858436764E+02 -0.24324674674E+02  0.98548325656E+02  0.10362691094E+03  0.00000000000E+00 0. -1.
<mgrwt>
<rscale>  0 0.71037445E+02</rscale>
<asrwt>0</asrwt>
<pdfrwt beam="2">  1        1 0.11015983E-02 0.71037445E+02</pdfrwt>
<pdfrwt beam="1">  1       -1 0.27105955E-01 0.71037445E+02</pdfrwt>
<totfact> 0.13684678E+05</totfact>
</mgrwt>
</event>
<event>
 7    1  0.3301067E-009  0.8993524E+02  0.7818608E-02  0.1303009E+00
         -1   -1    0    0    0  501 -0.00000000000E+00  0.00000000000E+00  0.15096285740E+03  0.15096285749E+03  0.50400000000E-02 0.  1.
          1   -1    0    0  501    0  0.00000000000E+00 -0.00000000000E+00 -0.13394598773E+02  0.13394599721E+02  0.50400000000E-02 0. -1.
         23    2    1    2    0    0  0.11102230246E-15  0.00000000000E+00  0.13756825863E+03  0.16435745721E+03  0.89935243133E+02 0.  0.
    9000005    2    3    3    0    0  0.42900283844E+00 -0.39939940832E+02  0.31929876050E+02  0.51420081680E+02  0.53967488702E+01 0.  0.
         22    1    3    3    0    0 -0.42900283844E+00  0.39939940832E+02  0.10563838258E+03  0.11293737553E+03  0.00000000000E+00 0.  1.
         22    1    4    4    0    0 -0.24454092709E+01 -0.19825590982E+02  0.15238132849E+02  0.25124386102E+02  0.00000000000E+00 0. -1.
         22    1    4    4    0    0  0.28744121094E+01 -0.20114349850E+02  0.16691743201E+02  0.26295695579E+02  0.00000000000E+00 0. -1.
<mgrwt>
<rscale>  0 0.89935243E+02</rscale>
<asrwt>0</asrwt>
<pdfrwt beam="2">  1        1 0.20607076E-02 0.89935243E+02</pdfrwt>
<pdfrwt beam="1">  1       -1 0.23225055E-01 0.89935243E+02</pdfrwt>
<totfact> 0.77379034E+04</totfact>
</mgrwt>
</event>
<event>
 7    1  0.3301067E-009  0.9052631E+02  0.7818608E-02  0.1301582E+00
         -1   -1    0    0    0  501 -0.00000000000E+00  0.00000000000E+00  0.20756351261E+02  0.20756351873E+02  0.50400000000E-02 0.  1.
          1   -1    0    0  501    0  0.00000000000E+00 -0.00000000000E+00 -0.98704887925E+02  0.98704888054E+02  0.50400000000E-02 0. -1.
         23    2    1    2    0    0  0.00000000000E+00  0.69388939039E-17 -0.77948536665E+02  0.11946123993E+03  0.90526313725E+02 0.  0.
    9000005    2    3    3    0    0 -0.42867113344E+02  0.19762710074E-01 -0.52486377318E+02  0.69602325422E+02  0.15876841725E+02 0.  0.
         22    1    3    3    0    0  0.42867113344E+02 -0.19762710074E-01 -0.25462159347E+02  0.49858914505E+02  0.00000000000E+00 0.  1.
         22    1    4    4    0    0 -0.14720938724E+02 -0.75650744820E+01 -0.19764603777E+02  0.25779370654E+02  0.00000000000E+00 0. -1.
         22    1    4    4    0    0 -0.28146174620E+02  0.75848371921E+01 -0.32721773541E+02  0.43822954768E+02  0.00000000000E+00 0. -1.
<mgrwt>
<rscale>  0 0.90526314E+02</rscale>
<asrwt>0</asrwt>
<pdfrwt beam="2">  1        1 0.15185367E-01 0.90526314E+02</pdfrwt>
<pdfrwt beam="1">  1       -1 0.31932849E-02 0.90526314E+02</pdfrwt>
<totfact> 0.10627907E+05</totfact>
</mgrwt>
</event>
<event>
 7    1  0.3301067E-009  0.9085861E+02  0.7818608E-02  0.1300786E+00
         -1   -1    0    0    0  501 -0.00000000000E+00  0.00000000000E+00  0.22872577594E+02  0.22872578149E+02  0.50400000000E-02 0.  1.
          1   -1    0    0  501    0  0.00000000000E+00 -0.00000000000E+00 -0.90231260120E+02  0.90231260260E+02  0.50400000000E-02 0. -1.
         23    2    1    2    0    0  0.00000000000E+00  0.00000000000E+00 -0.67358682526E+02  0.11310383841E+03  0.90858605269E+02 0.  0.
    9000005    2    3    3    0    0  0.23093154267E+02  0.21210657897E+02 -0.73360874013E+02  0.81178737234E+02  0.14999458675E+02 0.  0.
         22    1    3    3    0    0 -0.23093154267E+02 -0.21210657897E+02  0.60021914871E+01  0.31925101176E+02  0.00000000000E+00 0.  1.
         22    1    4    4    0    0  0.35406178396E+01  0.71583668230E+01 -0.34902994053E+02  0.35804988257E+02  0.00000000000E+00 0.  1.
         22    1    4    4    0    0  0.19552536428E+02  0.14052291074E+02 -0.38457879960E+02  0.45373748977E+02  0.00000000000E+00 0.  1.
<mgrwt>
<rscale>  0 0.90858605E+02</rscale>
<asrwt>0</asrwt>
<pdfrwt beam="2">  1        1 0.13881732E-01 0.90858605E+02</pdfrwt>
<pdfrwt beam="1">  1       -1 0.35188582E-02 0.90858605E+02</pdfrwt>
<totfact> 0.10368940E+05</totfact>
</mgrwt>
</event>
<event>
 7    1  0.3301067E-009  0.9202126E+02  0.7818608E-02  0.1298029E+00
         -1   -1    0    0    0  501 -0.00000000000E+00  0.00000000000E+00  0.44376200753E+01  0.44376229373E+01  0.50400000000E-02 0.  1.
          1   -1    0    0  501    0  0.00000000000E+00 -0.00000000000E+00 -0.47705240312E+03  0.47705240314E+03  0.50400000000E-02 0. -1.
         23    2    1    2    0    0  0.00000000000E+00  0.00000000000E+00 -0.47261478304E+03  0.48149002608E+03  0.92021258771E+02 0.  0.
    9000005    2    3    3    0    0  0.24222911539E+02  0.58170134616E+01 -0.43800240487E+03  0.43884493478E+03  0.10871201637E+02 0.  0.
         22    1    3    3    0    0 -0.24222911539E+02 -0.58170134616E+01 -0.34612378175E+02  0.42645091300E+02  0.00000000000E+00 0.  1.
         22    1    4    4    0    0  0.12287928570E+02 -0.21691394919E+01 -0.23863721627E+03  0.23896321756E+03  0.00000000000E+00 0.  1.
         22    1    4    4    0    0  0.11934982969E+02  0.79861529535E+01 -0.19936518859E+03  0.19988171722E+03  0.00000000000E+00 0.  1.
<mgrwt>
<rscale>  0 0.92021259E+02</rscale>
<asrwt>0</asrwt>
<pdfrwt beam="2">  1        1 0.73392637E-01 0.92021259E+02</pdfrwt>
<pdfrwt beam="1">  1       -1 0.68271138E-03 0.92021259E+02</pdfrwt>
<totfact> 0.13511038E+05</totfact>
</mgrwt>
</event>
<event>
 7    1  0.3301067E-009  0.9924842E+02  0.7818608E-02  0.1281884E+00
         -1   -1    0    0    0  501 -0.00000000000E+00  0.00000000000E+00  0.38558622540E+02  0.38558622870E+02  0.50400000000E-02 0.  1.
          1   -1    0    0  501    0  0.00000000000E+00 -0.00000000000E+00 -0.63865411022E+02  0.63865411221E+02  0.50400000000E-02 0. -1.
         23    2    1    2    0    0  0.00000000000E+00  0.71054273576E-14 -0.25306788481E+02  0.10242403409E+03  0.99248421731E+02 0.  0.
    9000005    2    3    3    0    0  0.28237120007E+02  0.38296244699E+02 -0.24805566534E+02  0.54840544015E+02  0.11323949507E+02 0.  0.
         22    1    3    3    0    0 -0.28237120007E+02 -0.38296244699E+02 -0.50122194712E+00  0.47583490076E+02  0.00000000000E+00 0. -1.
         22    1    4    4    0    0  0.27295730109E+02  0.39066528602E+02 -0.23841937395E+02  0.53288727870E+02  0.00000000000E+00 0. -1.
         22    1    4    4    0    0  0.94138989771E+00 -0.77028390316E+00 -0.96362913940E+00  0.15518161454E+01  0.00000000000E+00 0. -1.
<mgrwt>
<rscale>  0 0.99248422E+02</rscale>
<asrwt>0</asrwt>
<pdfrwt beam="2">  1        1 0.98254479E-02 0.99248422E+02</pdfrwt>
<pdfrwt beam="1">  1       -1 0.59320958E-02 0.99248422E+02</pdfrwt>
<totfact> 0.76807955E+04</totfact>
</mgrwt>
</event>
<event>
 7    1  0.3301067E-009  0.8941020E+02  0.7818608E-02  0.1304286E+00
         -1   -1    0    0    0  501 -0.00000000000E+00  0.00000000000E+00  0.44008188199E+02  0.44008188487E+02  0.50400000000E-02 0.  1.
          1   -1    0    0  501    0  0.00000000000E+00 -0.00000000000E+00 -0.45413052440E+02  0.45413052720E+02  0.50400000000E-02 0. -1.
         23    2    1    2    0    0  0.00000000000E+00  0.71054273576E-14 -0.14048642417E+01  0.89421241207E+02  0.89410204873E+02 0.  0.
    9000005    2    3    3    0    0  0.29360438606E+02 -0.32237587660E+02  0.52881076256E+01  0.45306693882E+02  0.11110131189E+02 0.  0.
         22    1    3    3    0    0 -0.29360438606E+02  0.32237587660E+02 -0.66929718672E+01  0.44114547325E+02  0.00000000000E+00 0. -1.
         22    1    4    4    0    0  0.17231034290E+01  0.79452408037E+00  0.56302668098E+00  0.19792304022E+01  0.00000000000E+00 0. -1.
         22    1    4    4    0    0  0.27637335177E+02 -0.33032111740E+02  0.47250809446E+01  0.43327463480E+02  0.00000000000E+00 0. -1.
<mgrwt>
<rscale>  0 0.89410205E+02</rscale>
<asrwt>0</asrwt>
<pdfrwt beam="2">  1        1 0.69866235E-02 0.89410205E+02</pdfrwt>
<pdfrwt beam="1">  1       -1 0.67704906E-02 0.89410205E+02</pdfrwt>
<totfact> 0.97624273E+04</totfact>
</mgrwt>
</event>
<event>
 7    1  0.3301067E-009  0.9155642E+02  0.7818608E-02  0.1299126E+00
          1   -1    0    0  501    0  0.00000000000E+00  0.00000000000E+00  0.78894168467E+02  0.78894168628E+02  0.50400000000E-02 0. -1.
         -1   -1    0    0    0  501 -0.00000000000E+00 -0.00000000000E+00 -0.26562729968E+02  0.26562730446E+02  0.50400000000E-02 0.  1.
         23    2    1    2    0    0  0.00000000000E+00  0.00000000000E+00  0.52331438499E+02  0.10545689907E+03  0.91556420348E+02 0.  0.
    9000005    2    3    3    0    0  0.10140317440E+02  0.17698109551E+02 -0.20646692900E+02  0.29681858447E+02  0.62191377008E+01 0.  0.
         22    1    3    3    0    0 -0.10140317440E+02 -0.17698109551E+02  0.72978131399E+02  0.75775040626E+02  0.00000000000E+00 0. -1.
         22    1    4    4    0    0  0.87681078718E+01  0.10571548427E+02 -0.10923519067E+02  0.17548806814E+02  0.00000000000E+00 0. -1.
         22    1    4    4    0    0  0.13722095679E+01  0.71265611241E+01 -0.97231738328E+01  0.12133051633E+02  0.00000000000E+00 0. -1.
<mgrwt>
<rscale>  0 0.91556420E+02</rscale>
<asrwt>0</asrwt>
<pdfrwt beam="1">  1        1 0.12137564E-01 0.91556420E+02</pdfrwt>
<pdfrwt beam="2">  1       -1 0.40865739E-02 0.91556420E+02</pdfrwt>
<totfact> 0.99381646E+04</totfact>
</mgrwt>
</event>
<event>
 7    1  0.3301067E-009  0.9032844E+02  0.7818608E-02  0.1302058E+00
         -1   -1    0    0    0  501 -0.00000000000E+00  0.00000000000E+00  0.24511204542E+02  0.24511205061E+02  0.50400000000E-02 0.  1.
          1   -1    0    0  501    0  0.00000000000E+00 -0.00000000000E+00 -0.83219353381E+02  0.83219353534E+02  0.50400000000E-02 0. -1.
         23    2    1    2    0    0 -0.35527136788E-14  0.17763568394E-14 -0.58708148839E+02  0.10773055859E+03  0.90328436912E+02 0.  0.
    9000005    2    3    3    0    0 -0.20603493183E+02  0.12081286278E+02  0.16208764432E+02  0.29098470338E+02  0.36790653881E+01 0.  0.
         22    1    3    3    0    0  0.20603493183E+02 -0.12081286278E+02 -0.74916913271E+02  0.78632088256E+02  0.00000000000E+00 0. -1.
         22    1    4    4    0    0 -0.29098668823E+01  0.58783967945E+00  0.29164821877E+01  0.41615801221E+01  0.00000000000E+00 0.  1.
         22    1    4    4    0    0 -0.17693626300E+02  0.11493446598E+02  0.13292282245E+02  0.24936890216E+02  0.00000000000E+00 0.  1.
<mgrwt>
<rscale>  0 0.90328437E+02</rscale>
<asrwt>0</asrwt>
<pdfrwt beam="2">  1        1 0.12802977E-01 0.90328437E+02</pdfrwt>
<pdfrwt beam="1">  1       -1 0.37709546E-02 0.90328437E+02</pdfrwt>
<totfact> 0.10400415E+05</totfact>
</mgrwt>
</event>
<event>
 7    1  0.3301067E-009  0.9170515E+02  0.7818608E-02  0.1298774E+00
          1   -1    0    0  501    0  0.00000000000E+00  0.00000000000E+00  0.16893130511E+02  0.16893131263E+02  0.50400000000E-02 0. -1.
         -1   -1    0    0    0  501 -0.00000000000E+00 -0.00000000000E+00 -0.12445643253E+03  0.12445643263E+03  0.50400000000E-02 0.  1.
         23    2    1    2    0    0  0.00000000000E+00  0.00000000000E+00 -0.10756330202E+03  0.14134956389E+03  0.91705154011E+02 0.  0.
    9000005    2    3    3    0    0  0.35442424696E+01 -0.16106847920E+02 -0.11924471856E+03  0.12113947490E+03  0.13545378232E+02 0.  0.
         22    1    3    3    0    0 -0.35442424696E+01  0.16106847920E+02  0.11681416541E+02  0.20210088990E+02  0.00000000000E+00 0. -1.
         22    1    4    4    0    0 -0.46201595106E+00 -0.16110446631E+02 -0.74914724953E+02  0.76628819410E+02  0.00000000000E+00 0.  1.
         22    1    4    4    0    0  0.40062584207E+01  0.35987113741E-02 -0.44329993606E+02  0.44510655495E+02  0.00000000000E+00 0.  1.
<mgrwt>
<rscale>  0 0.91705154E+02</rscale>
<asrwt>0</asrwt>
<pdfrwt beam="1">  1        1 0.25989433E-02 0.91705154E+02</pdfrwt>
<pdfrwt beam="2">  1       -1 0.19147143E-01 0.91705154E+02</pdfrwt>
<totfact> 0.76783134E+04</totfact>
</mgrwt>
</event>
<event>
 7    1  0.3301067E-009  0.9186887E+02  0.7818608E-02  0.1298388E+00
          1   -1    0    0  501    0  0.00000000000E+00  0.00000000000E+00  0.11931372074E+03  0.11931372084E+03  0.50400000000E-02 0. -1.
         -1   -1    0    0    0  501 -0.00000000000E+00 -0.00000000000E+00 -0.17684237666E+02  0.17684238384E+02  0.50400000000E-02 0.  1.
         23    2    1    2    0    0 -0.35527136788E-14  0.00000000000E+00  0.10162948307E+03  0.13699795923E+03  0.91868868520E+02 0.  0.
    9000005    2    3    3    0    0 -0.23168341707E+02  0.76825617717E+01  0.10882933636E+03  0.11154935022E+03  0.19076869799E+01 0.  0.
         22    1    3    3    0    0  0.23168341707E+02 -0.76825617717E+01 -0.71998532900E+01  0.25448609004E+02  0.00000000000E+00 0.  1.
         22    1    4    4    0    0 -0.19747390544E+02  0.64935651838E+01  0.95540687032E+02  0.97776012910E+02  0.00000000000E+00 0. -1.
         22    1    4    4    0    0 -0.34209511625E+01  0.11889965879E+01  0.13288649329E+02  0.13773337313E+02  0.00000000000E+00 0. -1.
<mgrwt>
<rscale>  0 0.91868869E+02</rscale>
<asrwt>0</asrwt>
<pdfrwt beam="1">  1        1 0.18355957E-01 0.91868869E+02</pdfrwt>
<pdfrwt beam="2">  1       -1 0.27206521E-02 0.91868869E+02</pdfrwt>
<totfact> 0.10544349E+05</totfact>
</mgrwt>
</event>
<event>
 7    1  0.3301067E-009  0.9073862E+02  0.7818608E-02  0.1301073E+00
          1   -1    0    0  501    0  0.00000000000E+00  0.00000000000E+00  0.17709140658E+02  0.17709141375E+02  0.50400000000E-02 0. -1.
         -1   -1    0    0    0  501 -0.00000000000E+00 -0.00000000000E+00 -0.11623229997E+03  0.11623230008E+03  0.50400000000E-02 0.  1.
         23    2    1    2    0    0  0.00000000000E+00  0.00000000000E+00 -0.98523159313E+02  0.13394144146E+03  0.90738618119E+02 0.  0.
    9000005    2    3    3    0    0  0.28438917172E+02  0.10993172897E+02 -0.24955155744E+01  0.33189616548E+02  0.12872497361E+02 0.  0.
         22    1    3    3    0    0 -0.28438917172E+02 -0.10993172897E+02 -0.96027643738E+02  0.10075182491E+03  0.00000000000E+00 0.  1.
         22    1    4    4    0    0  0.17963236205E+02  0.11530897457E+02  0.26437632761E+01  0.21508810645E+02  0.00000000000E+00 0. -1.
         22    1    4    4    0    0  0.10475680967E+02 -0.53772455924E+00 -0.51392788504E+01  0.11680805902E+02  0.00000000000E+00 0. -1.
<mgrwt>
<rscale>  0 0.90738618E+02</rscale>
<asrwt>0</asrwt>
<pdfrwt beam="1">  1        1 0.27244833E-02 0.90738618E+02</pdfrwt>
<pdfrwt beam="2">  1       -1 0.17881892E-01 0.90738618E+02</pdfrwt>
<totfact> 0.80029663E+04</totfact>
</mgrwt>
</event>
<event>
 7    1  0.3301067E-009  0.8911411E+02  0.7818608E-02  0.1305011E+00
         -1   -1    0    0    0  501 -0.00000000000E+00  0.00000000000E+00  0.22521335812E+01  0.22521392207E+01  0.50400000000E-02 0.  1.
          1   -1    0    0  501    0  0.00000000000E+00 -0.00000000000E+00 -0.88153235016E+03  0.88153235018E+03  0.50400000000E-02 0. -1.
         23    2    1    2    0    0  0.35527136788E-14  0.00000000000E+00 -0.87928021658E+03  0.88378448940E+03  0.89114109032E+02 0.  0.
    9000005    2    3    3    0    0  0.30949500537E+02 -0.24241686673E+02 -0.64360613291E+03  0.64485394579E+03  0.78883534458E+01 0.  0.
         22    1    3    3    0    0 -0.30949500537E+02  0.24241686673E+02 -0.23567408367E+03  0.23893054361E+03  0.00000000000E+00 0.  1.
         22    1    4    4    0    0  0.11124286927E+02 -0.78046796849E+01 -0.28535114318E+03  0.28567453106E+03  0.00000000000E+00 0. -1.
         22    1    4    4    0    0  0.19825213610E+02 -0.16437006988E+02 -0.35825498973E+03  0.35917941472E+03  0.00000000000E+00 0. -1.
<mgrwt>
<rscale>  0 0.89114109E+02</rscale>
<asrwt>0</asrwt>
<pdfrwt beam="2">  1        1 0.13562009E+00 0.89114109E+02</pdfrwt>
<pdfrwt beam="1">  1       -1 0.34648323E-03 0.89114109E+02</pdfrwt>
<totfact> 0.14835094E+05</totfact>
</mgrwt>
</event>
<event>
 7    1  0.3301067E-009  0.9410292E+02  0.7818608E-02  0.1293209E+00
         -1   -1    0    0    0  501 -0.00000000000E+00  0.00000000000E+00  0.91358553082E+02  0.91358553221E+02  0.50400000000E-02 0.  1.
          1   -1    0    0  501    0  0.00000000000E+00 -0.00000000000E+00 -0.24232433140E+02  0.24232433665E+02  0.50400000000E-02 0. -1.
         23    2    1    2    0    0  0.00000000000E+00  0.00000000000E+00  0.67126119941E+02  0.11559098689E+03  0.94102923816E+02 0.  0.
    9000005    2    3    3    0    0 -0.23424620929E+02  0.27851230005E+02  0.70155936910E+02  0.79072722012E+02  0.24971992627E+01 0.  0.
         22    1    3    3    0    0  0.23424620929E+02 -0.27851230005E+02 -0.30298169689E+01  0.36518264873E+02  0.00000000000E+00 0. -1.
         22    1    4    4    0    0 -0.14288584962E+02  0.18593337191E+02  0.46421780869E+02  0.52008245377E+02  0.00000000000E+00 0. -1.
         22    1    4    4    0    0 -0.91360359672E+01  0.92578928139E+01  0.23734156041E+02  0.27064476635E+02  0.00000000000E+00 0. -1.
<mgrwt>
<rscale>  0 0.94102924E+02</rscale>
<asrwt>0</asrwt>
<pdfrwt beam="2">  1        1 0.37280667E-02 0.94102924E+02</pdfrwt>
<pdfrwt beam="1">  1       -1 0.14055162E-01 0.94102924E+02</pdfrwt>
<totfact> 0.76264379E+04</totfact>
</mgrwt>
</event>
<event>
 7    1  0.3301067E-009  0.8924089E+02  0.7818608E-02  0.1304700E+00
          1   -1    0    0  501    0  0.00000000000E+00  0.00000000000E+00  0.29072337931E+03  0.29072337935E+03  0.50400000000E-02 0. -1.
         -1   -1    0    0    0  501 -0.00000000000E+00 -0.00000000000E+00 -0.68483781370E+01  0.68483799916E+01  0.50400000000E-02 0.  1.
         23    2    1    2    0    0  0.00000000000E+00  0.00000000000E+00  0.28387500117E+03  0.29757175935E+03  0.89240885635E+02 0.  0.
    9000005    2    3    3    0    0 -0.13671645197E+02  0.35071757171E+02  0.67221665338E+02  0.77672668939E+02  0.98665685892E+01 0.  0.
         22    1    3    3    0    0  0.13671645197E+02 -0.35071757171E+02  0.21665333583E+03  0.21989909041E+03  0.00000000000E+00 0. -1.
         22    1    4    4    0    0 -0.12523426617E+02  0.21212404826E+02  0.47947902092E+02  0.53905506655E+02  0.00000000000E+00 0.  1.
         22    1    4    4    0    0 -0.11482185801E+01  0.13859352345E+02  0.19273763247E+02  0.23767162284E+02  0.00000000000E+00 0.  1.
<mgrwt>
<rscale>  0 0.89240886E+02</rscale>
<asrwt>0</asrwt>
<pdfrwt beam="1">  1        1 0.44726664E-01 0.89240886E+02</pdfrwt>
<pdfrwt beam="2">  1       -1 0.10535970E-02 0.89240886E+02</pdfrwt>
<totfact> 0.13483931E+05</totfact>
</mgrwt>
</event>
<event>
 7    1  0.3301067E-009  0.9034790E+02  0.7818608E-02  0.1302011E+00
          1   -1    0    0  501    0  0.00000000000E+00  0.00000000000E+00  0.29189611164E+02  0.29189611599E+02  0.50400000000E-02 0. -1.
         -1   -1    0    0    0  501 -0.00000000000E+00 -0.00000000000E+00 -0.69911372791E+02  0.69911372972E+02  0.50400000000E-02 0.  1.
         23    2    1    2    0    0 -0.22204460493E-15  0.00000000000E+00 -0.40721761626E+02  0.99100984572E+02  0.90347901321E+02 0.  0.
    9000005    2    3    3    0    0  0.13781489978E+01 -0.19763719037E+02 -0.64777191312E+02  0.67937422801E+02  0.51870046960E+01 0.  0.
         22    1    3    3    0    0 -0.13781489978E+01  0.19763719037E+02  0.24055429686E+02  0.31163561771E+02  0.00000000000E+00 0. -1.
         22    1    4    4    0    0 -0.96212527026E+00 -0.13751565467E+02 -0.38980876192E+02  0.41346583251E+02  0.00000000000E+00 0.  1.
         22    1    4    4    0    0  0.23402742680E+01 -0.60121535700E+01 -0.25796315120E+02  0.26590839550E+02  0.00000000000E+00 0.  1.
<mgrwt>
<rscale>  0 0.90347901E+02</rscale>
<asrwt>0</asrwt>
<pdfrwt beam="1">  1        1 0.44907095E-02 0.90347901E+02</pdfrwt>
<pdfrwt beam="2">  1       -1 0.10755596E-01 0.90347901E+02</pdfrwt>
<totfact> 0.88594298E+04</totfact>
</mgrwt>
</event>
<event>
 7    1  0.3301067E-009  0.8614966E+02  0.7818608E-02  0.1312453E+00
         -1   -1    0    0    0  501 -0.00000000000E+00  0.00000000000E+00  0.46148114611E+03  0.46148114614E+03  0.50400000000E-02 0.  1.
          1   -1    0    0  501    0  0.00000000000E+00 -0.00000000000E+00 -0.40206193501E+01  0.40206225090E+01  0.50400000000E-02 0. -1.
         23    2    1    2    0    0 -0.71054273576E-14  0.00000000000E+00  0.45746052676E+03  0.46550176864E+03  0.86149655075E+02 0.  0.
    9000005    2    3    3    0    0 -0.41461434577E+02 -0.85559979993E+01  0.25694088943E+03  0.26056182473E+03  0.90326178314E+01 0.  0.
         22    1    3    3    0    0  0.41461434577E+02  0.85559979993E+01  0.20051963732E+03  0.20493994391E+03  0.00000000000E+00 0.  1.
         22    1    4    4    0    0 -0.32636331276E+02 -0.10248096371E+02  0.19616563444E+03  0.19912586405E+03  0.00000000000E+00 0.  1.
         22    1    4    4    0    0 -0.88251033011E+01  0.16920983721E+01  0.60775254996E+02  0.61435960683E+02  0.00000000000E+00 0.  1.
<mgrwt>
<rscale>  0 0.86149655E+02</rscale>
<asrwt>0</asrwt>
<pdfrwt beam="2">  1        1 0.61855684E-03 0.86149655E+02</pdfrwt>
<pdfrwt beam="1">  1       -1 0.70997126E-01 0.86149655E+02</pdfrwt>
<totfact> 0.57229854E+04</totfact>
</mgrwt>
</event>
<event>
 7    1  0.3301067E-009  0.9138324E+02  0.7818608E-02  0.1299536E+00
         -1   -1    0    0    0  501 -0.00000000000E+00  0.00000000000E+00  0.34159972558E+02  0.34159972929E+02  0.50400000000E-02 0.  1.
          1   -1    0    0  501    0  0.00000000000E+00 -0.00000000000E+00 -0.61116099036E+02  0.61116099243E+02  0.50400000000E-02 0. -1.
         23    2    1    2    0    0 -0.17763568394E-14 -0.35527136788E-14 -0.26956126478E+02  0.95276072173E+02  0.91383243398E+02 0.  0.
    9000005    2    3    3    0    0  0.14787876386E+02  0.25543675300E+02  0.22380800216E+02  0.37784394762E+02  0.74565161713E+01 0.  0.
         22    1    3    3    0    0 -0.14787876386E+02 -0.25543675300E+02 -0.49336926694E+02  0.57491677410E+02  0.00000000000E+00 0. -1.
         22    1    4    4    0    0  0.14136104930E+02  0.25903907626E+02  0.22385182052E+02  0.37039685048E+02  0.00000000000E+00 0. -1.
         22    1    4    4    0    0  0.65177145557E+00 -0.36023232614E+00 -0.43818360826E-02  0.74470971497E+00  0.00000000000E+00 0. -1.
<mgrwt>
<rscale>  0 0.91383243E+02</rscale>
<asrwt>0</asrwt>
<pdfrwt beam="2">  1        1 0.94024768E-02 0.91383243E+02</pdfrwt>
<pdfrwt beam="1">  1       -1 0.52553804E-02 0.91383243E+02</pdfrwt>
<totfact> 0.96036175E+04</totfact>
</mgrwt>
</event>
<event>
 7    1  0.3301067E-009  0.9261518E+02  0.7818608E-02  0.1296639E+00
         -1   -1    0    0    0  501 -0.00000000000E+00  0.00000000000E+00  0.11593260948E+03  0.11593260958E+03  0.50400000000E-02 0.  1.
          1   -1    0    0  501    0  0.00000000000E+00 -0.00000000000E+00 -0.18496890440E+02  0.18496891127E+02  0.50400000000E-02 0. -1.
         23    2    1    2    0    0  0.00000000000E+00 -0.22204460493E-15  0.97435719035E+02  0.13442950071E+03  0.92615178658E+02 0.  0.
    9000005    2    3    3    0    0 -0.42816939334E+02 -0.17513056862E+01  0.72412757755E+02  0.84805857590E+02  0.10586247229E+02 0.  0.
         22    1    3    3    0    0  0.42816939334E+02  0.17513056862E+01  0.25022961280E+02  0.49623643122E+02  0.00000000000E+00 0. -1.
         22    1    4    4    0    0 -0.38656167289E+02 -0.18023455602E+01  0.70029775360E+02  0.80010731505E+02  0.00000000000E+00 0. -1.
         22    1    4    4    0    0 -0.41607720443E+01  0.51039874065E-01  0.23829823946E+01  0.47951260845E+01  0.00000000000E+00 0. -1.
<mgrwt>
<rscale>  0 0.92615179E+02</rscale>
<asrwt>0</asrwt>
<pdfrwt beam="2">  1        1 0.28456756E-02 0.92615179E+02</pdfrwt>
<pdfrwt beam="1">  1       -1 0.17835786E-01 0.92615179E+02</pdfrwt>
<totfact> 0.75943403E+04</totfact>
</mgrwt>
</event>
<event>
 7    1  0.4506857E-009  0.9085216E+02  0.7818608E-02  0.1300801E+00
          1   -1    0    0  501    0  0.00000000000E+00  0.00000000000E+00  0.10401535677E+03  0.10401535689E+03  0.50400000000E-02 0. -1.
         -1   -1    0    0    0  501 -0.00000000000E+00 -0.00000000000E+00 -0.19838694389E+02  0.19838695029E+02  0.50400000000E-02 0.  1.
         23    2    1    2    0    0  0.00000000000E+00  0.00000000000E+00  0.84176662380E+02  0.12385405192E+03  0.90852163914E+02 0.  0.
    9000005    2    3    3    0    0  0.36636147862E+02 -0.24019389099E+02  0.37229359651E+02  0.59641999965E+02  0.15874651398E+02 0.  0.
         22    1    3    3    0    0 -0.36636147862E+02  0.24019389099E+02  0.46947302729E+02  0.64212051956E+02  0.00000000000E+00 0. -1.
         22    1    4    4    0    0  0.28741954266E+02 -0.98777689508E+01  0.23765740692E+02  0.38580833131E+02  0.00000000000E+00 0. -1.
         22    1    4    4    0    0  0.78941935958E+01 -0.14141620148E+02  0.13463618959E+02  0.21061166834E+02  0.00000000000E+00 0. -1.
<mgrwt>
<rscale>  0 0.90852164E+02</rscale>
<asrwt>0</asrwt>
<pdfrwt beam="1">  1        1 0.16002362E-01 0.90852164E+02</pdfrwt>
<pdfrwt beam="2">  1       -1 0.30521069E-02 0.90852164E+02</pdfrwt>
<totfact> 0.10616691E+05</totfact>
</mgrwt>
</event>
<event>
 7    1  0.3301067E-009  0.8867296E+02  0.7818608E-02  0.1306098E+00
         -1   -1    0    0    0  501 -0.00000000000E+00  0.00000000000E+00  0.17820044139E+02  0.17820044852E+02  0.50400000000E-02 0.  1.
          1   -1    0    0  501    0  0.00000000000E+00 -0.00000000000E+00 -0.11030967442E+03  0.11030967453E+03  0.50400000000E-02 0. -1.
         23    2    1    2    0    0  0.00000000000E+00  0.00000000000E+00 -0.92489630279E+02  0.12812971939E+03  0.88672956873E+02 0.  0.
    9000005    2    3    3    0    0 -0.10146662739E+02  0.34341169124E+02 -0.82102691600E+02  0.90844881225E+02  0.15154861106E+02 0.  0.
         22    1    3    3    0    0  0.10146662739E+02 -0.34341169124E+02 -0.10386938679E+02  0.37284838161E+02  0.00000000000E+00 0.  1.
         22    1    4    4    0    0  0.60376078478E+00  0.23824260564E+02 -0.51457001595E+02  0.56707873630E+02  0.00000000000E+00 0.  1.
         22    1    4    4    0    0 -0.10750423524E+02  0.10516908561E+02 -0.30645690005E+02  0.34137007594E+02  0.00000000000E+00 0.  1.
<mgrwt>
<rscale>  0 0.88672957E+02</rscale>
<asrwt>0</asrwt>
<pdfrwt beam="2">  1        1 0.16970719E-01 0.88672957E+02</pdfrwt>
<pdfrwt beam="1">  1       -1 0.27415454E-02 0.88672957E+02</pdfrwt>
<totfact> 0.11451795E+05</totfact>
</mgrwt>
</event>
<event>
 7    1  0.3301067E-009  0.9222802E+02  0.7818608E-02  0.1297544E+00
         -1   -1    0    0    0  501 -0.00000000000E+00  0.00000000000E+00  0.75632901030E+02  0.75632901198E+02  0.50400000000E-02 0.  1.
          1   -1    0    0  501    0  0.00000000000E+00 -0.00000000000E+00 -0.28116097029E+02  0.28116097481E+02  0.50400000000E-02 0. -1.
         23    2    1    2    0    0  0.00000000000E+00  0.00000000000E+00  0.47516804001E+02  0.10374899868E+03  0.92228022122E+02 0.  0.
    9000005    2    3    3    0    0  0.21527139702E+02 -0.22449577777E+02 -0.12555826966E+02  0.36101956782E+02  0.13352947487E+02 0.  0.
         22    1    3    3    0    0 -0.21527139702E+02  0.22449577777E+02  0.60072630967E+02  0.67647041897E+02  0.00000000000E+00 0.  1.
         22    1    4    4    0    0  0.13125537690E+02 -0.62348935705E+01 -0.11630596262E+01  0.14577597374E+02  0.00000000000E+00 0. -1.
         22    1    4    4    0    0  0.84016020113E+01 -0.16214684207E+02 -0.11392767340E+02  0.21524359408E+02  0.00000000000E+00 0. -1.
<mgrwt>
<rscale>  0 0.92228022E+02</rscale>
<asrwt>0</asrwt>
<pdfrwt beam="2">  1        1 0.43255535E-02 0.92228022E+02</pdfrwt>
<pdfrwt beam="1">  1       -1 0.11635831E-01 0.92228022E+02</pdfrwt>
<totfact> 0.82980097E+04</totfact>
</mgrwt>
</event>
<event>
 7    1  0.3301067E-009  0.9061945E+02  0.7818608E-02  0.1301359E+00
          1   -1    0    0  501    0  0.00000000000E+00  0.00000000000E+00  0.58368014867E+02  0.58368015085E+02  0.50400000000E-02 0. -1.
         -1   -1    0    0    0  501 -0.00000000000E+00 -0.00000000000E+00 -0.35172877190E+02  0.35172877551E+02  0.50400000000E-02 0.  1.
         23    2    1    2    0    0  0.00000000000E+00  0.00000000000E+00  0.23195137678E+02  0.93540892636E+02  0.90619447048E+02 0.  0.
    9000005    2    3    3    0    0  0.23250707444E+02  0.34243758039E+02  0.28485622264E+02  0.51812969270E+02  0.12646056600E+02 0.  0.
         22    1    3    3    0    0 -0.23250707444E+02 -0.34243758039E+02 -0.52904845861E+01  0.41727923366E+02  0.00000000000E+00 0.  1.
         22    1    4    4    0    0  0.16928420993E+02  0.31837193349E+02  0.21016499958E+02  0.41735735145E+02  0.00000000000E+00 0. -1.
         22    1    4    4    0    0  0.63222864509E+01  0.24065646902E+01  0.74691223062E+01  0.10077234124E+02  0.00000000000E+00 0. -1.
<mgrwt>
<rscale>  0 0.90619447E+02</rscale>
<asrwt>0</asrwt>
<pdfrwt beam="1">  1        1 0.89796946E-02 0.90619447E+02</pdfrwt>
<pdfrwt beam="2">  1       -1 0.54112120E-02 0.90619447E+02</pdfrwt>
<totfact> 0.97616937E+04</totfact>
</mgrwt>
</event>
<event>
 7    1  0.3301067E-009  0.9128030E+02  0.7818608E-02  0.1299781E+00
          1   -1    0    0  501    0  0.00000000000E+00  0.00000000000E+00  0.49312976079E+02  0.49312976337E+02  0.50400000000E-02 0. -1.
         -1   -1    0    0    0  501 -0.00000000000E+00 -0.00000000000E+00 -0.42240874223E+02  0.42240874524E+02  0.50400000000E-02 0.  1.
         23    2    1    2    0    0  0.00000000000E+00  0.00000000000E+00  0.70721018562E+01  0.91553850860E+02  0.91280298984E+02 0.  0.
    9000005    2    3    3    0    0 -0.28803232923E+02 -0.97287540932E+01 -0.30488370860E+02  0.43231350990E+02  0.38902529110E+01 0.  0.
         22    1    3    3    0    0  0.28803232923E+02  0.97287540932E+01  0.37560472716E+02  0.48322499870E+02  0.00000000000E+00 0. -1.
         22    1    4    4    0    0 -0.24139917299E+02 -0.67720941817E+01 -0.23941212127E+02  0.34666677154E+02  0.00000000000E+00 0.  1.
         22    1    4    4    0    0 -0.46633156249E+01 -0.29566599115E+01 -0.65471587329E+01  0.85646738364E+01  0.00000000000E+00 0.  1.
<mgrwt>
<rscale>  0 0.91280299E+02</rscale>
<asrwt>0</asrwt>
<pdfrwt beam="1">  1        1 0.75866117E-02 0.91280299E+02</pdfrwt>
<pdfrwt beam="2">  1       -1 0.64985961E-02 0.91280299E+02</pdfrwt>
<totfact> 0.93272743E+04</totfact>
</mgrwt>
</event>
<event>
 7    1  0.3301067E-009  0.8808682E+02  0.7818608E-02  0.1307552E+00
          1   -1    0    0  501    0  0.00000000000E+00  0.00000000000E+00  0.16147506078E+02  0.16147506864E+02  0.50400000000E-02 0. -1.
         -1   -1    0    0    0  501 -0.00000000000E+00 -0.00000000000E+00 -0.12013136898E+03  0.12013136909E+03  0.50400000000E-02 0.  1.
         23    2    1    2    0    0 -0.35527136788E-14  0.00000000000E+00 -0.10398386290E+03  0.13627887595E+03  0.88086822432E+02 0.  0.
    9000005    2    3    3    0    0  0.24880893516E+02  0.33527421578E+02 -0.37000024713E+02  0.57348644490E+02  0.13293544907E+02 0.  0.
         22    1    3    3    0    0 -0.24880893516E+02 -0.33527421578E+02 -0.66983838189E+02  0.78930231460E+02  0.00000000000E+00 0.  1.
         22    1    4    4    0    0  0.23127068803E+02  0.30806768049E+02 -0.27549657332E+02  0.47359285132E+02  0.00000000000E+00 0. -1.
         22    1    4    4    0    0  0.17538247131E+01  0.27206535289E+01 -0.94503673811E+01  0.99893593581E+01  0.00000000000E+00 0. -1.
<mgrwt>
<rscale>  0 0.88086822E+02</rscale>
<asrwt>0</asrwt>
<pdfrwt beam="1">  1        1 0.24842318E-02 0.88086822E+02</pdfrwt>
<pdfrwt beam="2">  1       -1 0.18481749E-01 0.88086822E+02</pdfrwt>
<totfact> 0.85820732E+04</totfact>
</mgrwt>
</event>
<event>
 7    1  0.3301067E-009  0.9019099E+02  0.7818608E-02  0.1302390E+00
          1   -1    0    0  501    0  0.00000000000E+00  0.00000000000E+00  0.12653014874E+02  0.12653015878E+02  0.50400000000E-02 0. -1.
         -1   -1    0    0    0  501 -0.00000000000E+00 -0.00000000000E+00 -0.16072088223E+03  0.16072088231E+03  0.50400000000E-02 0.  1.
         23    2    1    2    0    0  0.00000000000E+00  0.35527136788E-14 -0.14806786735E+03  0.17337389819E+03  0.90190993060E+02 0.  0.
    9000005    2    3    3    0    0  0.33713836368E+02 -0.22910536626E+02 -0.43902860653E+02  0.61517454150E+02  0.13979289696E+02 0.  0.
         22    1    3    3    0    0 -0.33713836368E+02  0.22910536626E+02 -0.10416500670E+03  0.11185644404E+03  0.00000000000E+00 0.  1.
         22    1    4    4    0    0  0.62128868898E+01 -0.11654398765E+02 -0.11055256784E+02  0.17223346848E+02  0.00000000000E+00 0. -1.
         22    1    4    4    0    0  0.27500949478E+02 -0.11256137861E+02 -0.32847603869E+02  0.44294107302E+02  0.00000000000E+00 0. -1.
<mgrwt>
<rscale>  0 0.90190993E+02</rscale>
<asrwt>0</asrwt>
<pdfrwt beam="1">  1        1 0.19466179E-02 0.90190993E+02</pdfrwt>
<pdfrwt beam="2">  1       -1 0.24726288E-01 0.90190993E+02</pdfrwt>
<totfact> 0.75667506E+04</totfact>
</mgrwt>
</event>
<event>
 7    1  0.3301067E-009  0.7759899E+02  0.7818608E-02  0.1336007E+00
         -1   -1    0    0    0  501 -0.00000000000E+00  0.00000000000E+00  0.44547260113E+02  0.44547260398E+02  0.50400000000E-02 0.  1.
          1   -1    0    0  501    0  0.00000000000E+00 -0.00000000000E+00 -0.33793344585E+02  0.33793344961E+02  0.50400000000E-02 0. -1.
         23    2    1    2    0    0  0.00000000000E+00  0.00000000000E+00  0.10753915528E+02  0.78340605359E+02  0.77598993220E+02 0.  0.
    9000005    2    3    3    0    0  0.53512049801E+01  0.32365027712E+02 -0.15507421116E+02  0.36319322467E+02  0.15756462871E+01 0.  0.
         22    1    3    3    0    0 -0.53512049801E+01 -0.32365027712E+02  0.26261336644E+02  0.42021282892E+02  0.00000000000E+00 0.  1.
         22    1    4    4    0    0  0.23272319557E+01  0.13844106992E+02 -0.57776598394E+01  0.15180799063E+02  0.00000000000E+00 0. -1.
         22    1    4    4    0    0  0.30239730244E+01  0.18520920721E+02 -0.97297612766E+01  0.21138523404E+02  0.00000000000E+00 0. -1.
<mgrwt>
<rscale>  0 0.77598993E+02</rscale>
<asrwt>0</asrwt>
<pdfrwt beam="2">  1        1 0.51989762E-02 0.77598993E+02</pdfrwt>
<pdfrwt beam="1">  1       -1 0.68534247E-02 0.77598993E+02</pdfrwt>
<totfact> 0.13894124E+05</totfact>
</mgrwt>
</event>
<event>
 7    1  0.3301067E-009  0.9100177E+02  0.7818608E-02  0.1300444E+00
          1   -1    0    0  501    0  0.00000000000E+00  0.00000000000E+00  0.55856773359E+01  0.55856796097E+01  0.50400000000E-02 0. -1.
         -1   -1    0    0    0  501 -0.00000000000E+00 -0.00000000000E+00 -0.37064977012E+03  0.37064977015E+03  0.50400000000E-02 0.  1.
         23    2    1    2    0    0 -0.17763568394E-14  0.00000000000E+00 -0.36506409278E+03  0.37623544976E+03  0.91001768218E+02 0.  0.
    9000005    2    3    3    0    0  0.12799878369E+02 -0.42753068468E+02 -0.20222891284E+03  0.20739541430E+03  0.11165255598E+02 0.  0.
         22    1    3    3    0    0 -0.12799878369E+02  0.42753068468E+02 -0.16283517994E+03  0.16884003546E+03  0.00000000000E+00 0.  1.
         22    1    4    4    0    0  0.51600785222E+01 -0.47465234201E+01 -0.24237127527E+02  0.25230819362E+02  0.00000000000E+00 0.  1.
         22    1    4    4    0    0  0.76397998465E+01 -0.38006545048E+02 -0.17799178532E+03  0.18216459494E+03  0.00000000000E+00 0.  1.
<mgrwt>
<rscale>  0 0.91001768E+02</rscale>
<asrwt>0</asrwt>
<pdfrwt beam="1">  1        1 0.85933544E-03 0.91001768E+02</pdfrwt>
<pdfrwt beam="2">  1       -1 0.57023023E-01 0.91001768E+02</pdfrwt>
<totfact> 0.55590566E+04</totfact>
</mgrwt>
</event>
<event>
 7    1  0.3301067E-009  0.9379017E+02  0.7818608E-02  0.1293924E+00
         -1   -1    0    0    0  501 -0.00000000000E+00  0.00000000000E+00  0.17059826211E+03  0.17059826218E+03  0.50400000000E-02 0.  1.
          1   -1    0    0  501    0  0.00000000000E+00 -0.00000000000E+00 -0.12890803723E+02  0.12890804708E+02  0.50400000000E-02 0. -1.
         23    2    1    2    0    0  0.00000000000E+00  0.00000000000E+00  0.15770745839E+03  0.18348906689E+03  0.93790165999E+02 0.  0.
    9000005    2    3    3    0    0  0.23934129676E+02  0.38526448225E+02  0.97586669544E+02  0.10817878189E+03  0.11061690742E+02 0.  0.
         22    1    3    3    0    0 -0.23934129676E+02 -0.38526448225E+02  0.60120788842E+02  0.75310285003E+02  0.00000000000E+00 0. -1.
         22    1    4    4    0    0  0.61890940077E+01  0.20150498126E+02  0.46864776335E+02  0.51387301158E+02  0.00000000000E+00 0.  1.
         22    1    4    4    0    0  0.17745035668E+02  0.18375950100E+02  0.50721893209E+02  0.56791480731E+02  0.00000000000E+00 0.  1.
<mgrwt>
<rscale>  0 0.93790166E+02</rscale>
<asrwt>0</asrwt>
<pdfrwt beam="2">  1        1 0.19832007E-02 0.93790166E+02</pdfrwt>
<pdfrwt beam="1">  1       -1 0.26245886E-01 0.93790166E+02</pdfrwt>
<totfact> 0.67331449E+04</totfact>
</mgrwt>
</event>
<event>
 7    1  0.3301067E-009  0.9129491E+02  0.7818608E-02  0.1299746E+00
         -1   -1    0    0    0  501 -0.00000000000E+00  0.00000000000E+00  0.18786304244E+03  0.18786304251E+03  0.50400000000E-02 0.  1.
          1   -1    0    0  501    0  0.00000000000E+00 -0.00000000000E+00 -0.11091537490E+02  0.11091538635E+02  0.50400000000E-02 0. -1.
         23    2    1    2    0    0  0.00000000000E+00  0.00000000000E+00  0.17677150495E+03  0.19895458114E+03  0.91294908923E+02 0.  0.
    9000005    2    3    3    0    0  0.33337356384E+02  0.91997563804E+01  0.25462344257E+02  0.43743508864E+02  0.83155724129E+01 0.  0.
         22    1    3    3    0    0 -0.33337356384E+02 -0.91997563804E+01  0.15130916069E+03  0.15521107228E+03  0.00000000000E+00 0.  1.
         22    1    4    4    0    0  0.20440403825E+01 -0.54038927586E+00 -0.19169616789E+00  0.21229387828E+01  0.00000000000E+00 0. -1.
         22    1    4    4    0    0  0.31293316001E+02  0.97401456562E+01  0.25654040425E+02  0.41620570081E+02  0.00000000000E+00 0. -1.
<mgrwt>
<rscale>  0 0.91294909E+02</rscale>
<asrwt>0</asrwt>
<pdfrwt beam="2">  1        1 0.17063906E-02 0.91294909E+02</pdfrwt>
<pdfrwt beam="1">  1       -1 0.28902004E-01 0.91294909E+02</pdfrwt>
<totfact> 0.70413074E+04</totfact>
</mgrwt>
</event>
<event>
 7    1  0.3301067E-009  0.9163509E+02  0.7818608E-02  0.1298940E+00
          1   -1    0    0  501    0  0.00000000000E+00  0.00000000000E+00  0.12926851694E+03  0.12926851704E+03  0.50400000000E-02 0. -1.
         -1   -1    0    0    0  501 -0.00000000000E+00 -0.00000000000E+00 -0.16239430833E+02  0.16239431615E+02  0.50400000000E-02 0.  1.
         23    2    1    2    0    0  0.71054273576E-14  0.35527136788E-14  0.11302908611E+03  0.14550794866E+03  0.91635085067E+02 0.  0.
    9000005    2    3    3    0    0  0.38439294526E+02  0.23080729842E+02  0.67933463143E+02  0.81916167233E+02  0.92197389288E+01 0.  0.
         22    1    3    3    0    0 -0.38439294526E+02 -0.23080729842E+02  0.45095622968E+02  0.63591781423E+02  0.00000000000E+00 0.  1.
         22    1    4    4    0    0  0.23507370702E+02  0.88662523808E+01  0.35720547986E+02  0.43671094067E+02  0.00000000000E+00 0. -1.
         22    1    4    4    0    0  0.14931923824E+02  0.14214477461E+02  0.32212915157E+02  0.38245073166E+02  0.00000000000E+00 0. -1.
<mgrwt>
<rscale>  0 0.91635085E+02</rscale>
<asrwt>0</asrwt>
<pdfrwt beam="1">  1        1 0.19887463E-01 0.91635085E+02</pdfrwt>
<pdfrwt beam="2">  1       -1 0.24983742E-02 0.91635085E+02</pdfrwt>
<totfact> 0.10768442E+05</totfact>
</mgrwt>
</event>
<event>
 7    1  0.3301067E-009  0.9187245E+02  0.7818608E-02  0.1298380E+00
          1   -1    0    0  501    0  0.00000000000E+00  0.00000000000E+00  0.19719086671E+03  0.19719086677E+03  0.50400000000E-02 0. -1.
         -1   -1    0    0    0  501 -0.00000000000E+00 -0.00000000000E+00 -0.10700985478E+02  0.10700986664E+02  0.50400000000E-02 0.  1.
         23    2    1    2    0    0  0.00000000000E+00  0.17763568394E-14  0.18648988123E+03  0.20789185344E+03  0.91872449212E+02 0.  0.
    9000005    2    3    3    0    0  0.23790948189E+02 -0.14915933345E+02  0.16621209413E+02  0.35717929894E+02  0.14526239370E+02 0.  0.
         22    1    3    3    0    0 -0.23790948189E+02  0.14915933345E+02  0.16986867182E+03  0.17217392355E+03  0.00000000000E+00 0. -1.
         22    1    4    4    0    0  0.86870238811E+01  0.15811268875E+01  0.74156487415E+01  0.11530663138E+02  0.00000000000E+00 0.  1.
         22    1    4    4    0    0  0.15103924308E+02 -0.16497060233E+02  0.92055606714E+01  0.24187266756E+02  0.00000000000E+00 0.  1.
<mgrwt>
<rscale>  0 0.91872449E+02</rscale>
<asrwt>0</asrwt>
<pdfrwt beam="1">  1        1 0.30337054E-01 0.91872449E+02</pdfrwt>
<pdfrwt beam="2">  1       -1 0.16463057E-02 0.91872449E+02</pdfrwt>
<totfact> 0.11569594E+05</totfact>
</mgrwt>
</event>
<event>
 7    1  0.3301067E-009  0.9033378E+02  0.7818608E-02  0.1302045E+00
          1   -1    0    0  501    0  0.00000000000E+00  0.00000000000E+00  0.71534366832E+02  0.71534367010E+02  0.50400000000E-02 0. -1.
         -1   -1    0    0    0  501 -0.00000000000E+00 -0.00000000000E+00 -0.28518432281E+02  0.28518432726E+02  0.50400000000E-02 0.  1.
         23    2    1    2    0    0  0.00000000000E+00  0.00000000000E+00  0.43015934552E+02  0.10005279974E+03  0.90333781664E+02 0.  0.
    9000005    2    3    3    0    0 -0.28231387189E+02 -0.61266836412E+01 -0.15525304937E+02  0.34771683049E+02  0.11553673601E+02 0.  0.
         22    1    3    3    0    0  0.28231387189E+02  0.61266836412E+01  0.58541239488E+02  0.65281116687E+02  0.00000000000E+00 0. -1.
         22    1    4    4    0    0 -0.48577378087E+01 -0.10137657758E+01  0.17485294706E+01  0.52614344979E+01  0.00000000000E+00 0. -1.
         22    1    4    4    0    0 -0.23373649380E+02 -0.51129178654E+01 -0.17273834407E+02  0.29510248552E+02  0.00000000000E+00 0. -1.
<mgrwt>
<rscale>  0 0.90333782E+02</rscale>
<asrwt>0</asrwt>
<pdfrwt beam="1">  1        1 0.11005287E-01 0.90333782E+02</pdfrwt>
<pdfrwt beam="2">  1       -1 0.43874512E-02 0.90333782E+02</pdfrwt>
<totfact> 0.10156186E+05</totfact>
</mgrwt>
</event>
<event>
 7    1  0.3301067E-009  0.9135250E+02  0.7818608E-02  0.1299609E+00
         -1   -1    0    0    0  501 -0.00000000000E+00  0.00000000000E+00  0.14110855745E+02  0.14110856645E+02  0.50400000000E-02 0.  1.
          1   -1    0    0  501    0  0.00000000000E+00 -0.00000000000E+00 -0.14785209471E+03  0.14785209479E+03  0.50400000000E-02 0. -1.
         23    2    1    2    0    0  0.00000000000E+00  0.00000000000E+00 -0.13374123896E+03  0.16196295144E+03  0.91352496622E+02 0.  0.
    9000005    2    3    3    0    0 -0.20028951987E+02 -0.38940329998E+02 -0.46349927489E+02  0.64214552274E+02  0.75950462405E+01 0.  0.
         22    1    3    3    0    0  0.20028951987E+02  0.38940329998E+02 -0.87391311472E+02  0.97748399163E+02  0.00000000000E+00 0. -1.
         22    1    4    4    0    0 -0.77420978410E+01 -0.12017763641E+02 -0.20040685705E+02  0.24616982054E+02  0.00000000000E+00 0. -1.
         22    1    4    4    0    0 -0.12286854146E+02 -0.26922566357E+02 -0.26309241784E+02  0.39597570220E+02  0.00000000000E+00 0. -1.
<mgrwt>
<rscale>  0 0.91352497E+02</rscale>
<asrwt>0</asrwt>
<pdfrwt beam="2">  1        1 0.22746475E-01 0.91352497E+02</pdfrwt>
<pdfrwt beam="1">  1       -1 0.21709011E-02 0.91352497E+02</pdfrwt>
<totfact> 0.11125627E+05</totfact>
</mgrwt>
</event>
<event>
 7    1  0.3301067E-009  0.8856660E+02  0.7818608E-02  0.1306360E+00
         -1   -1    0    0    0  501 -0.00000000000E+00  0.00000000000E+00  0.36256302001E+02  0.36256302351E+02  0.50400000000E-02 0.  1.
          1   -1    0    0  501    0  0.00000000000E+00 -0.00000000000E+00 -0.54087447130E+02  0.54087447365E+02  0.50400000000E-02 0. -1.
         23    2    1    2    0    0  0.00000000000E+00  0.00000000000E+00 -0.17831145129E+02  0.90343749716E+02  0.88566604181E+02 0.  0.
    9000005    2    3    3    0    0 -0.19368396034E+02  0.13985941117E+01  0.31621700629E+02  0.37214898948E+02  0.28153015189E+01 0.  0.
         22    1    3    3    0    0  0.19368396034E+02 -0.13985941117E+01 -0.49452845758E+02  0.53128850768E+02  0.00000000000E+00 0. -1.
         22    1    4    4    0    0 -0.10529547948E+02  0.21650417133E+01  0.17323755422E+02  0.20388018234E+02  0.00000000000E+00 0.  1.
         22    1    4    4    0    0 -0.88388480862E+01 -0.76644760158E+00  0.14297945207E+02  0.16826880714E+02  0.00000000000E+00 0.  1.
<mgrwt>
<rscale>  0 0.88566604E+02</rscale>
<asrwt>0</asrwt>
<pdfrwt beam="2">  1        1 0.83211457E-02 0.88566604E+02</pdfrwt>
<pdfrwt beam="1">  1       -1 0.55778927E-02 0.88566604E+02</pdfrwt>
<totfact> 0.10284578E+05</totfact>
</mgrwt>
</event>
<event>
 7    1  0.3301067E-009  0.9354033E+02  0.7818608E-02  0.1294498E+00
         -1   -1    0    0    0  501 -0.00000000000E+00  0.00000000000E+00  0.20805366960E+02  0.20805367570E+02  0.50400000000E-02 0.  1.
          1   -1    0    0  501    0  0.00000000000E+00 -0.00000000000E+00 -0.10513865017E+03  0.10513865029E+03  0.50400000000E-02 0. -1.
         23    2    1    2    0    0  0.00000000000E+00 -0.17763568394E-14 -0.84333283211E+02  0.12594401786E+03  0.93540328084E+02 0.  0.
    9000005    2    3    3    0    0 -0.21622107754E+02 -0.11807774394E+02  0.10963334518E+02  0.27514426628E+02  0.54689934240E+01 0.  0.
         22    1    3    3    0    0  0.21622107754E+02  0.11807774394E+02 -0.95296617729E+02  0.98429591233E+02  0.00000000000E+00 0. -1.
         22    1    4    4    0    0 -0.13902921394E+02 -0.62226088491E+01  0.92880878986E+01  0.17840422108E+02  0.00000000000E+00 0.  1.
         22    1    4    4    0    0 -0.77191863604E+01 -0.55851655451E+01  0.16752466191E+01  0.96740045208E+01  0.00000000000E+00 0.  1.
<mgrwt>
<rscale>  0 0.93540328E+02</rscale>
<asrwt>0</asrwt>
<pdfrwt beam="2">  1        1 0.16175177E-01 0.93540328E+02</pdfrwt>
<pdfrwt beam="1">  1       -1 0.32008258E-02 0.93540328E+02</pdfrwt>
<totfact> 0.98225521E+04</totfact>
</mgrwt>
</event>
<event>
 7    1  0.3301067E-009  0.8977961E+02  0.7818608E-02  0.1303386E+00
          1   -1    0    0  501    0  0.00000000000E+00  0.00000000000E+00  0.21038222059E+03  0.21038222065E+03  0.50400000000E-02 0. -1.
         -1   -1    0    0    0  501 -0.00000000000E+00 -0.00000000000E+00 -0.95782536373E+01  0.95782549633E+01  0.50400000000E-02 0.  1.
         23    2    1    2    0    0  0.00000000000E+00  0.00000000000E+00  0.20080396695E+03  0.21996047561E+03  0.89779606193E+02 0.  0.
    9000005    2    3    3    0    0  0.42844430809E+02 -0.10074550023E+02  0.10457882664E+03  0.11414734109E+03  0.12479690980E+02 0.  0.
         22    1    3    3    0    0 -0.42844430809E+02  0.10074550023E+02  0.96225140311E+02  0.10581313452E+03  0.00000000000E+00 0. -1.
         22    1    4    4    0    0  0.38738825262E+02 -0.75763790970E+01  0.10000326809E+03  0.10751163533E+03  0.00000000000E+00 0.  1.
         22    1    4    4    0    0  0.41056055472E+01 -0.24981709259E+01  0.45755585542E+01  0.66357057626E+01  0.00000000000E+00 0.  1.
<mgrwt>
<rscale>  0 0.89779606E+02</rscale>
<asrwt>0</asrwt>
<pdfrwt beam="1">  1        1 0.32366495E-01 0.89779606E+02</pdfrwt>
<pdfrwt beam="2">  1       -1 0.14735776E-02 0.89779606E+02</pdfrwt>
<totfact> 0.12462074E+05</totfact>
</mgrwt>
</event>
<event>
 7    1  0.3301067E-009  0.6143978E+02  0.7818608E-02  0.1391887E+00
          1   -1    0    0  501    0  0.00000000000E+00  0.00000000000E+00  0.15517625527E+03  0.15517625535E+03  0.50400000000E-02 0. -1.
         -1   -1    0    0    0  501 -0.00000000000E+00 -0.00000000000E+00 -0.60815460786E+01  0.60815481670E+01  0.50400000000E-02 0.  1.
         23    2    1    2    0    0 -0.22204460493E-15  0.00000000000E+00  0.14909470919E+03  0.16125780352E+03  0.61439782608E+02 0.  0.
    9000005    2    3    3    0    0 -0.79677858747E+00 -0.19487641705E+02  0.13632309231E+03  0.13794434747E+03  0.80158883659E+01 0.  0.
         22    1    3    3    0    0  0.79677858747E+00  0.19487641705E+02  0.12771616886E+02  0.23313456055E+02  0.00000000000E+00 0.  1.
         22    1    4    4    0    0  0.20141394025E+01 -0.51867035456E+01  0.21855769919E+02  0.22552900700E+02  0.00000000000E+00 0. -1.
         22    1    4    4    0    0 -0.28109179900E+01 -0.14300938159E+02  0.11446732239E+03  0.11539144677E+03  0.00000000000E+00 0. -1.
<mgrwt>
<rscale>  0 0.61439783E+02</rscale>
<asrwt>0</asrwt>
<pdfrwt beam="1">  1        1 0.23873265E-01 0.61439783E+02</pdfrwt>
<pdfrwt beam="2">  1       -1 0.93562283E-03 0.61439783E+02</pdfrwt>
<totfact> 0.31910399E+05</totfact>
</mgrwt>
</event>
<event>
 7    1  0.3301067E-009  0.8963818E+02  0.7818608E-02  0.1303730E+00
         -1   -1    0    0    0  501 -0.00000000000E+00  0.00000000000E+00  0.20351079759E+03  0.20351079765E+03  0.50400000000E-02 0.  1.
          1   -1    0    0  501    0  0.00000000000E+00 -0.00000000000E+00 -0.98704867182E+01  0.98704880049E+01  0.50400000000E-02 0. -1.
         23    2    1    2    0    0  0.00000000000E+00  0.00000000000E+00  0.19364031087E+03  0.21338128566E+03  0.89638178665E+02 0.  0.
    9000005    2    3    3    0    0  0.42466050521E+02 -0.39809121834E+01  0.68472409749E+02  0.81145826796E+02  0.87727533297E+01 0.  0.
         22    1    3    3    0    0 -0.42466050521E+02  0.39809121834E+01  0.12516790113E+03  0.13223545886E+03  0.00000000000E+00 0.  1.
         22    1    4    4    0    0  0.15523346450E+02 -0.36462953046E+01  0.18937898886E+02  0.24757095319E+02  0.00000000000E+00 0.  1.
         22    1    4    4    0    0  0.26942704071E+02 -0.33461687882E+00  0.49534510863E+02  0.56388731477E+02  0.00000000000E+00 0.  1.
<mgrwt>
<rscale>  0 0.89638179E+02</rscale>
<asrwt>0</asrwt>
<pdfrwt beam="2">  1        1 0.15185366E-02 0.89638179E+02</pdfrwt>
<pdfrwt beam="1">  1       -1 0.31309353E-01 0.89638179E+02</pdfrwt>
<totfact> 0.72206611E+04</totfact>
</mgrwt>
</event>
<event>
 7    1  0.3301067E-009  0.9044280E+02  0.7818608E-02  0.1301783E+00
          1   -1    0    0  501    0  0.00000000000E+00  0.00000000000E+00  0.54915763264E+01  0.54915786392E+01  0.50400000000E-02 0. -1.
         -1   -1    0    0    0  501 -0.00000000000E+00 -0.00000000000E+00 -0.37238386716E+03  0.37238386719E+03  0.50400000000E-02 0.  1.
         23    2    1    2    0    0 -0.71054273576E-14  0.00000000000E+00 -0.36689229083E+03  0.37787544583E+03  0.90442796786E+02 0.  0.
    9000005    2    3    3    0    0 -0.36065948409E+02 -0.63915118733E+01 -0.29068098993E+03  0.29331915426E+03  0.14109723320E+02 0.  0.
         22    1    3    3    0    0  0.36065948409E+02  0.63915118733E+01 -0.76211300901E+02  0.84556291568E+02  0.00000000000E+00 0. -1.
         22    1    4    4    0    0 -0.10772322126E+02  0.20631479913E+01 -0.12774446284E+03  0.12821445819E+03  0.00000000000E+00 0.  1.
         22    1    4    4    0    0 -0.25293626283E+02 -0.84546598645E+01 -0.16293652709E+03  0.16510469607E+03  0.00000000000E+00 0.  1.
<mgrwt>
<rscale>  0 0.90442797E+02</rscale>
<asrwt>0</asrwt>
<pdfrwt beam="1">  1        1 0.84485837E-03 0.90442797E+02</pdfrwt>
<pdfrwt beam="2">  1       -1 0.57289806E-01 0.90442797E+02</pdfrwt>
<totfact> 0.56369602E+04</totfact>
</mgrwt>
</event>
<event>
 7    1  0.3301067E-009  0.9177435E+02  0.7818608E-02  0.1298611E+00
         -1   -1    0    0    0  501 -0.00000000000E+00  0.00000000000E+00  0.94470459361E+02  0.94470459496E+02  0.50400000000E-02 0.  1.
          1   -1    0    0  501    0  0.00000000000E+00 -0.00000000000E+00 -0.22288796820E+02  0.22288797390E+02  0.50400000000E-02 0. -1.
         23    2    1    2    0    0  0.00000000000E+00  0.00000000000E+00  0.72181662541E+02  0.11675925689E+03  0.91774351871E+02 0.  0.
    9000005    2    3    3    0    0 -0.24419381968E+02  0.25647180510E+01 -0.11777545833E+02  0.29283359262E+02  0.10766640583E+02 0.  0.
         22    1    3    3    0    0  0.24419381968E+02 -0.25647180510E+01  0.83959208374E+02  0.87475897624E+02  0.00000000000E+00 0.  1.
         22    1    4    4    0    0 -0.69806704822E+01 -0.26511573521E+01  0.24169564786E+00  0.74710650159E+01  0.00000000000E+00 0. -1.
         22    1    4    4    0    0 -0.17438711485E+02  0.52158754031E+01 -0.12019241481E+02  0.21812294246E+02  0.00000000000E+00 0. -1.
<mgrwt>
<rscale>  0 0.91774352E+02</rscale>
<asrwt>0</asrwt>
<pdfrwt beam="2">  1        1 0.34290457E-02 0.91774352E+02</pdfrwt>
<pdfrwt beam="1">  1       -1 0.14533917E-01 0.91774352E+02</pdfrwt>
<totfact> 0.80853368E+04</totfact>
</mgrwt>
</event>
<event>
 7    1  0.3301067E-009  0.9429725E+02  0.7818608E-02  0.1292767E+00
          1   -1    0    0  501    0  0.00000000000E+00  0.00000000000E+00  0.97088063308E+02  0.97088063438E+02  0.50400000000E-02 0. -1.
         -1   -1    0    0    0  501 -0.00000000000E+00 -0.00000000000E+00 -0.22896663135E+02  0.22896663690E+02  0.50400000000E-02 0.  1.
         23    2    1    2    0    0  0.00000000000E+00  0.00000000000E+00  0.74191400172E+02  0.11998472713E+03  0.94297247492E+02 0.  0.
    9000005    2    3    3    0    0 -0.11189753790E+02 -0.39682953941E+02  0.95859728684E+01  0.43343950381E+02  0.93198570473E+01 0.  0.
         22    1    3    3    0    0  0.11189753790E+02  0.39682953941E+02  0.64605427304E+02  0.76640776748E+02  0.00000000000E+00 0. -1.
         22    1    4    4    0    0 -0.32879847083E+01 -0.22716273552E+02  0.88902421913E+01  0.24614555323E+02  0.00000000000E+00 0. -1.
         22    1    4    4    0    0 -0.79017690813E+01 -0.16966680390E+02  0.69573067710E+00  0.18729395058E+02  0.00000000000E+00 0. -1.
<mgrwt>
<rscale>  0 0.94297247E+02</rscale>
<asrwt>0</asrwt>
<pdfrwt beam="1">  1        1 0.14936625E-01 0.94297247E+02</pdfrwt>
<pdfrwt beam="2">  1       -1 0.35225636E-02 0.94297247E+02</pdfrwt>
<totfact> 0.94796671E+04</totfact>
</mgrwt>
</event>
<event>
 7    1  0.3301067E-009  0.9070401E+02  0.7818608E-02  0.1301156E+00
         -1   -1    0    0    0  501 -0.00000000000E+00  0.00000000000E+00  0.50852078384E+02  0.50852078634E+02  0.50400000000E-02 0.  1.
          1   -1    0    0  501    0  0.00000000000E+00 -0.00000000000E+00 -0.40446809252E+02  0.40446809566E+02  0.50400000000E-02 0. -1.
         23    2    1    2    0    0  0.00000000000E+00  0.00000000000E+00  0.10405269132E+02  0.91298888200E+02  0.90704009618E+02 0.  0.
    9000005    2    3    3    0    0 -0.15089384886E+02  0.29667922000E+02  0.34343378834E+02  0.50300007383E+02  0.15580370373E+02 0.  0.
         22    1    3    3    0    0  0.15089384886E+02 -0.29667922000E+02 -0.23938109702E+02  0.40998880816E+02  0.00000000000E+00 0. -1.
         22    1    4    4    0    0 -0.14158383955E+01  0.17290916040E+02  0.10969071601E+02  0.20525615890E+02  0.00000000000E+00 0. -1.
         22    1    4    4    0    0 -0.13673546491E+02  0.12377005960E+02  0.23374307233E+02  0.29774391493E+02  0.00000000000E+00 0. -1.
<mgrwt>
<rscale>  0 0.90704010E+02</rscale>
<asrwt>0</asrwt>
<pdfrwt beam="2">  1        1 0.62225861E-02 0.90704010E+02</pdfrwt>
<pdfrwt beam="1">  1       -1 0.78233967E-02 0.90704010E+02</pdfrwt>
<totfact> 0.92158569E+04</totfact>
</mgrwt>
</event>
<event>
 7    1  0.3301067E-009  0.8940567E+02  0.7818608E-02  0.1304297E+00
          1   -1    0    0  501    0  0.00000000000E+00  0.00000000000E+00  0.18139772385E+02  0.18139773085E+02  0.50400000000E-02 0. -1.
         -1   -1    0    0    0  501 -0.00000000000E+00 -0.00000000000E+00 -0.11016365066E+03  0.11016365078E+03  0.50400000000E-02 0.  1.
         23    2    1    2    0    0  0.00000000000E+00  0.00000000000E+00 -0.92023878275E+02  0.12830342386E+03  0.89405673207E+02 0.  0.
    9000005    2    3    3    0    0 -0.29317616141E+02  0.87760700527E+00 -0.11559872068E+01  0.32819045884E+02  0.14678578136E+02 0.  0.
         22    1    3    3    0    0  0.29317616141E+02 -0.87760700527E+00 -0.90867891069E+02  0.95484377976E+02  0.00000000000E+00 0.  1.
         22    1    4    4    0    0 -0.55847524702E+01  0.59071796367E+01  0.19534443784E+01  0.83606325331E+01  0.00000000000E+00 0. -1.
         22    1    4    4    0    0 -0.23732863671E+02 -0.50295726314E+01 -0.31094315852E+01  0.24458413351E+02  0.00000000000E+00 0. -1.
<mgrwt>
<rscale>  0 0.89405673E+02</rscale>
<asrwt>0</asrwt>
<pdfrwt beam="1">  1        1 0.27907343E-02 0.89405673E+02</pdfrwt>
<pdfrwt beam="2">  1       -1 0.16948254E-01 0.89405673E+02</pdfrwt>
<totfact> 0.84027081E+04</totfact>
</mgrwt>
</event>
<event>
 7    1  0.3301067E-009  0.9092422E+02  0.7818608E-02  0.1300629E+00
         -1   -1    0    0    0  501 -0.00000000000E+00  0.00000000000E+00  0.45688792414E+01  0.45688820213E+01  0.50400000000E-02 0.  1.
          1   -1    0    0  501    0  0.00000000000E+00 -0.00000000000E+00 -0.45236538176E+03  0.45236538179E+03  0.50400000000E-02 0. -1.
         23    2    1    2    0    0  0.00000000000E+00  0.00000000000E+00 -0.44779650252E+03  0.45693426381E+03  0.90924219959E+02 0.  0.
    9000005    2    3    3    0    0 -0.26377844303E+02  0.21431876944E+02 -0.37344717480E+03  0.37518502191E+03  0.12078587601E+02 0.  0.
         22    1    3    3    0    0  0.26377844303E+02 -0.21431876944E+02 -0.74349327725E+02  0.81749241908E+02  0.00000000000E+00 0.  1.
         22    1    4    4    0    0 -0.24766211747E+02  0.22421812351E+02 -0.36514552244E+03  0.36667063623E+03  0.00000000000E+00 0.  1.
         22    1    4    4    0    0 -0.16116325561E+01 -0.98993540797E+00 -0.83016523599E+01  0.85143856803E+01  0.00000000000E+00 0.  1.
<mgrwt>
<rscale>  0 0.90924220E+02</rscale>
<asrwt>0</asrwt>
<pdfrwt beam="2">  1        1 0.69594639E-01 0.90924220E+02</pdfrwt>
<pdfrwt beam="1">  1       -1 0.70290507E-03 0.90924220E+02</pdfrwt>
<totfact> 0.13847506E+05</totfact>
</mgrwt>
</event>
<event>
 7    1  0.3301067E-009  0.9066138E+02  0.7818608E-02  0.1301258E+00
          1   -1    0    0  501    0  0.00000000000E+00  0.00000000000E+00  0.14972794398E+03  0.14972794406E+03  0.50400000000E-02 0. -1.
         -1   -1    0    0    0  501 -0.00000000000E+00 -0.00000000000E+00 -0.13724034967E+02  0.13724035892E+02  0.50400000000E-02 0.  1.
         23    2    1    2    0    0  0.22204460493E-15  0.35527136788E-14  0.13600390901E+03  0.16345197995E+03  0.90661383647E+02 0.  0.
    9000005    2    3    3    0    0  0.14867677694E+01  0.21077607927E+02  0.14029933272E+03  0.14188982099E+03  0.15305245631E+01 0.  0.
         22    1    3    3    0    0 -0.14867677694E+01 -0.21077607927E+02 -0.42954237073E+01  0.21562158963E+02  0.00000000000E+00 0.  1.
         22    1    4    4    0    0  0.98817283337E+00  0.18147984732E+02  0.11741290790E+03  0.11881126536E+03  0.00000000000E+00 0. -1.
         22    1    4    4    0    0  0.49859493605E+00  0.29296231953E+01  0.22886424821E+02  0.23078555632E+02  0.00000000000E+00 0. -1.
<mgrwt>
<rscale>  0 0.90661384E+02</rscale>
<asrwt>0</asrwt>
<pdfrwt beam="1">  1        1 0.23035069E-01 0.90661384E+02</pdfrwt>
<pdfrwt beam="2">  1       -1 0.21113900E-02 0.90661384E+02</pdfrwt>
<totfact> 0.11382176E+05</totfact>
</mgrwt>
</event>
<event>
 7    1  0.3301067E-009  0.9048875E+02  0.7818608E-02  0.1301672E+00
         -1   -1    0    0    0  501 -0.00000000000E+00  0.00000000000E+00  0.15687292725E+02  0.15687293535E+02  0.50400000000E-02 0.  1.
          1   -1    0    0  501    0  0.00000000000E+00 -0.00000000000E+00 -0.13049117005E+03  0.13049117015E+03  0.50400000000E-02 0. -1.
         23    2    1    2    0    0  0.17763568394E-14  0.00000000000E+00 -0.11480387733E+03  0.14617846368E+03  0.90488745133E+02 0.  0.
    9000005    2    3    3    0    0  0.15527304941E+02  0.38373958060E+02 -0.84891494639E+02  0.95105883037E+02  0.11176102646E+02 0.  0.
         22    1    3    3    0    0 -0.15527304941E+02 -0.38373958060E+02 -0.29912382688E+02  0.51072580647E+02  0.00000000000E+00 0. -1.
         22    1    4    4    0    0  0.85342614902E+01  0.24843006044E+02 -0.64580588336E+02  0.69718440590E+02  0.00000000000E+00 0.  1.
         22    1    4    4    0    0  0.69930434508E+01  0.13530952016E+02 -0.20310906303E+02  0.25387442447E+02  0.00000000000E+00 0.  1.
<mgrwt>
<rscale>  0 0.90488745E+02</rscale>
<asrwt>0</asrwt>
<pdfrwt beam="2">  1        1 0.20075564E-01 0.90488745E+02</pdfrwt>
<pdfrwt beam="1">  1       -1 0.24134298E-02 0.90488745E+02</pdfrwt>
<totfact> 0.11160316E+05</totfact>
</mgrwt>
</event>
<event>
 7    1  0.3301067E-009  0.1040060E+03  0.7818608E-02  0.1272091E+00
         -1   -1    0    0    0  501 -0.00000000000E+00  0.00000000000E+00  0.52272825975E+01  0.52272850272E+01  0.50400000000E-02 0.  1.
          1   -1    0    0  501    0  0.00000000000E+00 -0.00000000000E+00 -0.51734514637E+03  0.51734514640E+03  0.50400000000E-02 0. -1.
         23    2    1    2    0    0 -0.71054273576E-14  0.00000000000E+00 -0.51211786378E+03  0.52257243143E+03  0.10400595986E+03 0.  0.
    9000005    2    3    3    0    0 -0.43186233517E+02  0.16673707721E+02 -0.37180192267E+03  0.37481713838E+03  0.10399722475E+02 0.  0.
         22    1    3    3    0    0  0.43186233517E+02 -0.16673707721E+02 -0.14031594111E+03  0.14775529305E+03  0.00000000000E+00 0.  1.
         22    1    4    4    0    0 -0.40524259788E+02  0.12663194887E+02 -0.32300289275E+03  0.32578127764E+03  0.00000000000E+00 0. -1.
         22    1    4    4    0    0 -0.26619737289E+01  0.40105128336E+01 -0.48799029920E+02  0.49035860740E+02  0.00000000000E+00 0. -1.
<mgrwt>
<rscale>  0 0.10400596E+03</rscale>
<asrwt>0</asrwt>
<pdfrwt beam="2">  1        1 0.79591521E-01 0.10400596E+03</pdfrwt>
<pdfrwt beam="1">  1       -1 0.80419792E-03 0.10400596E+03</pdfrwt>
<totfact> 0.98411808E+04</totfact>
</mgrwt>
</event>
<event>
 7    1  0.3301067E-009  0.9274486E+02  0.7818608E-02  0.1296338E+00
         -1   -1    0    0    0  501 -0.00000000000E+00  0.00000000000E+00  0.10121786823E+03  0.10121786836E+03  0.50400000000E-02 0. -1.
          1   -1    0    0  501    0  0.00000000000E+00 -0.00000000000E+00 -0.21245283234E+02  0.21245283832E+02  0.50400000000E-02 0.  1.
         23    2    1    2    0    0  0.00000000000E+00  0.00000000000E+00  0.79972585000E+02  0.12246315219E+03  0.92744861277E+02 0.  0.
    9000005    2    3    3    0    0  0.23239300138E+02 -0.24788689095E+02 -0.34877276275E-01  0.35539402861E+02  0.10416513874E+02 0.  0.
         22    1    3    3    0    0 -0.23239300138E+02  0.24788689095E+02  0.80007462276E+02  0.86923749331E+02  0.00000000000E+00 0. -1.
         22    1    4    4    0    0  0.21902001055E+02 -0.17241028866E+02  0.35959082100E-01  0.27873859073E+02  0.00000000000E+00 0. -1.
         22    1    4    4    0    0  0.13372990834E+01 -0.75476602289E+01 -0.70836358375E-01  0.76655437875E+01  0.00000000000E+00 0. -1.
<mgrwt>
<rscale>  0 0.92744861E+02</rscale>
<asrwt>0</asrwt>
<pdfrwt beam="2">  1        1 0.32685052E-02 0.92744861E+02</pdfrwt>
<pdfrwt beam="1">  1       -1 0.15571980E-01 0.92744861E+02</pdfrwt>
<totfact> 0.77693997E+04</totfact>
</mgrwt>
</event>
<event>
 7    1  0.3301067E-009  0.9071823E+02  0.7818608E-02  0.1301122E+00
         -1   -1    0    0    0  501 -0.00000000000E+00  0.00000000000E+00  0.39776172635E+02  0.39776172955E+02  0.50400000000E-02 0.  1.
          1   -1    0    0  501    0  0.00000000000E+00 -0.00000000000E+00 -0.51725669626E+02  0.51725669871E+02  0.50400000000E-02 0. -1.
         23    2    1    2    0    0 -0.35527136788E-14  0.00000000000E+00 -0.11949496990E+02  0.91501842826E+02  0.90718227288E+02 0.  0.
    9000005    2    3    3    0    0  0.22474631322E+02  0.12111204376E+02  0.31528345358E+02  0.41082470559E+02  0.64763030921E+01 0.  0.
         22    1    3    3    0    0 -0.22474631322E+02 -0.12111204376E+02 -0.43477842349E+02  0.50419372267E+02  0.00000000000E+00 0. -1.
         22    1    4    4    0    0  0.16449677409E+02  0.58459258464E+01  0.23289526085E+02  0.29106163628E+02  0.00000000000E+00 0. -1.
         22    1    4    4    0    0  0.60249539122E+01  0.62652785292E+01  0.82388192738E+01  0.11976306932E+02  0.00000000000E+00 0. -1.
<mgrwt>
<rscale>  0 0.90718227E+02</rscale>
<asrwt>0</asrwt>
<pdfrwt beam="2">  1        1 0.79577954E-02 0.90718227E+02</pdfrwt>
<pdfrwt beam="1">  1       -1 0.61194112E-02 0.90718227E+02</pdfrwt>
<totfact> 0.95577392E+04</totfact>
</mgrwt>
</event>
<event>
 7    1  0.3301067E-009  0.9149986E+02  0.7818608E-02  0.1299260E+00
          1   -1    0    0  501    0  0.00000000000E+00  0.00000000000E+00  0.42607568043E+03  0.42607568046E+03  0.50400000000E-02 0. -1.
         -1   -1    0    0    0  501 -0.00000000000E+00 -0.00000000000E+00 -0.49124031641E+01  0.49124057495E+01  0.50400000000E-02 0.  1.
         23    2    1    2    0    0  0.00000000000E+00  0.00000000000E+00  0.42116327726E+03  0.43098808621E+03  0.91499859765E+02 0.  0.
    9000005    2    3    3    0    0 -0.12948053667E+02  0.27288617106E+02  0.37105894714E+03  0.37248368796E+03  0.12125791710E+02 0.  0.
         22    1    3    3    0    0  0.12948053667E+02 -0.27288617106E+02  0.50104330120E+02  0.58504398246E+02  0.00000000000E+00 0.  1.
         22    1    4    4    0    0 -0.11850137828E+02  0.25918732684E+02  0.36637149542E+03  0.36747827028E+03  0.00000000000E+00 0.  1.
         22    1    4    4    0    0 -0.10979158390E+01  0.13698844224E+01  0.46874517247E+01  0.50054176840E+01  0.00000000000E+00 0.  1.
<mgrwt>
<rscale>  0 0.91499860E+02</rscale>
<asrwt>0</asrwt>
<pdfrwt beam="1">  1        1 0.65550105E-01 0.91499860E+02</pdfrwt>
<pdfrwt beam="2">  1       -1 0.75575453E-03 0.91499860E+02</pdfrwt>
<totfact> 0.13497657E+05</totfact>
</mgrwt>
</event>
<event>
 7    1  0.3301067E-009  0.1010218E+03  0.7818608E-02  0.1278162E+00
         -1   -1    0    0    0  501 -0.00000000000E+00  0.00000000000E+00  0.35442031895E+02  0.35442032253E+02  0.50400000000E-02 0.  1.
          1   -1    0    0  501    0  0.00000000000E+00 -0.00000000000E+00 -0.71986608005E+02  0.71986608181E+02  0.50400000000E-02 0. -1.
         23    2    1    2    0    0  0.00000000000E+00  0.00000000000E+00 -0.36544576110E+02  0.10742864043E+03  0.10102181320E+03 0.  0.
    9000005    2    3    3    0    0 -0.37168399236E+02 -0.29610581436E+02 -0.85842600050E+00  0.47999878506E+02  0.67063407761E+01 0.  0.
         22    1    3    3    0    0  0.37168399236E+02  0.29610581436E+02 -0.35686150110E+02  0.59428761929E+02  0.00000000000E+00 0. -1.
         22    1    4    4    0    0 -0.32276484657E+02 -0.22576769916E+02 -0.14136485367E+01  0.39414215759E+02  0.00000000000E+00 0. -1.
         22    1    4    4    0    0 -0.48919145791E+01 -0.70338115196E+01  0.55522253623E+00  0.85856627471E+01  0.00000000000E+00 0. -1.
<mgrwt>
<rscale>  0 0.10102181E+03</rscale>
<asrwt>0</asrwt>
<pdfrwt beam="2">  1        1 0.11074863E-01 0.10102181E+03</pdfrwt>
<pdfrwt beam="1">  1       -1 0.54526203E-02 0.10102181E+03</pdfrwt>
<totfact> 0.74537370E+04</totfact>
</mgrwt>
</event>
<event>
 7    1  0.3301067E-009  0.9181054E+02  0.7818608E-02  0.1298526E+00
          1   -1    0    0  501    0  0.00000000000E+00  0.00000000000E+00  0.95506994976E+02  0.95506995109E+02  0.50400000000E-02 0. -1.
         -1   -1    0    0    0  501 -0.00000000000E+00 -0.00000000000E+00 -0.22064288407E+02  0.22064288983E+02  0.50400000000E-02 0.  1.
         23    2    1    2    0    0  0.00000000000E+00 -0.35527136788E-14  0.73442706569E+02  0.11757128409E+03  0.91810542395E+02 0.  0.
    9000005    2    3    3    0    0 -0.29809475639E+02 -0.21367653674E+02  0.15476946419E+01  0.36861469314E+02  0.33453101393E+01 0.  0.
         22    1    3    3    0    0  0.29809475639E+02  0.21367653674E+02  0.71895011927E+02  0.80709814778E+02  0.00000000000E+00 0. -1.
         22    1    4    4    0    0 -0.14834509162E+02 -0.10074827926E+02  0.23674428264E+01  0.18087830311E+02  0.00000000000E+00 0.  1.
         22    1    4    4    0    0 -0.14974966477E+02 -0.11292825748E+02 -0.81974818449E+00  0.18773639003E+02  0.00000000000E+00 0.  1.
<mgrwt>
<rscale>  0 0.91810542E+02</rscale>
<asrwt>0</asrwt>
<pdfrwt beam="1">  1        1 0.14693384E-01 0.91810542E+02</pdfrwt>
<pdfrwt beam="2">  1       -1 0.33945059E-02 0.91810542E+02</pdfrwt>
<totfact> 0.10171665E+05</totfact>
</mgrwt>
</event>
<event>
 7    1  0.3301067E-009  0.9050794E+02  0.7818608E-02  0.1301626E+00
          1   -1    0    0  501    0  0.00000000000E+00  0.00000000000E+00  0.36388932543E+01  0.36388967446E+01  0.50400000000E-02 0. -1.
         -1   -1    0    0    0  501 -0.00000000000E+00 -0.00000000000E+00 -0.56278668830E+03  0.56278668832E+03  0.50400000000E-02 0.  1.
         23    2    1    2    0    0  0.00000000000E+00  0.00000000000E+00 -0.55914779504E+03  0.56642558507E+03  0.90507937299E+02 0.  0.
    9000005    2    3    3    0    0  0.34344094526E+02 -0.20887688090E+02 -0.40848253343E+03  0.41049023500E+03  0.53329701910E+01 0.  0.
         22    1    3    3    0    0 -0.34344094526E+02  0.20887688090E+02 -0.15066526161E+03  0.15593535006E+03  0.00000000000E+00 0. -1.
         22    1    4    4    0    0  0.28011677113E+02 -0.16822699907E+02 -0.35091939311E+03  0.35243733875E+03  0.00000000000E+00 0. -1.
         22    1    4    4    0    0  0.63324174127E+01 -0.40649881834E+01 -0.57563140325E+02  0.58052896253E+02  0.00000000000E+00 0. -1.
<mgrwt>
<rscale>  0 0.90507937E+02</rscale>
<asrwt>0</asrwt>
<pdfrwt beam="1">  1        1 0.55983045E-03 0.90507937E+02</pdfrwt>
<pdfrwt beam="2">  1       -1 0.86582499E-01 0.90507937E+02</pdfrwt>
<totfact> 0.44400108E+04</totfact>
</mgrwt>
</event>
<event>
 7    1  0.3301067E-009  0.9077567E+02  0.7818608E-02  0.1300984E+00
         -1   -1    0    0    0  501 -0.00000000000E+00  0.00000000000E+00  0.18669915755E+02  0.18669916435E+02  0.50400000000E-02 0.  1.
          1   -1    0    0  501    0  0.00000000000E+00 -0.00000000000E+00 -0.11034090346E+03  0.11034090358E+03  0.50400000000E-02 0. -1.
         23    2    1    2    0    0  0.00000000000E+00  0.71054273576E-14 -0.91670987706E+02  0.12901082001E+03  0.90775666854E+02 0.  0.
    9000005    2    3    3    0    0  0.10488865870E+02  0.34274345899E+02 -0.83911973962E+02  0.92337268392E+02  0.14149369803E+02 0.  0.
         22    1    3    3    0    0 -0.10488865870E+02 -0.34274345899E+02 -0.77590137434E+01  0.36673551618E+02  0.00000000000E+00 0.  1.
         22    1    4    4    0    0  0.48720741749E+01  0.27043976632E+02 -0.48326482553E+02  0.55592829527E+02  0.00000000000E+00 0. -1.
         22    1    4    4    0    0  0.56167916952E+01  0.72303692664E+01 -0.35585491410E+02  0.36744438865E+02  0.00000000000E+00 0. -1.
<mgrwt>
<rscale>  0 0.90775667E+02</rscale>
<asrwt>0</asrwt>
<pdfrwt beam="2">  1        1 0.16975523E-01 0.90775667E+02</pdfrwt>
<pdfrwt beam="1">  1       -1 0.28722949E-02 0.90775667E+02</pdfrwt>
<totfact> 0.10747545E+05</totfact>
</mgrwt>
</event>
<event>
 7    1  0.3301067E-009  0.7795544E+02  0.7818608E-02  0.1334956E+00
         -1   -1    0    0    0  501 -0.00000000000E+00  0.00000000000E+00  0.78630582976E+01  0.78630599128E+01  0.50400000000E-02 0.  1.
          1   -1    0    0  501    0  0.00000000000E+00 -0.00000000000E+00 -0.19321520734E+03  0.19321520740E+03  0.50400000000E-02 0. -1.
         23    2    1    2    0    0  0.35527136788E-14  0.17763568394E-14 -0.18535214904E+03  0.20107826731E+03  0.77955438765E+02 0.  0.
    9000005    2    3    3    0    0  0.16430357386E+02  0.13578935843E+02 -0.17623875443E+03  0.17789641873E+03  0.11519248715E+02 0.  0.
         22    1    3    3    0    0 -0.16430357386E+02 -0.13578935843E+02 -0.91133946046E+01  0.23181848582E+02  0.00000000000E+00 0.  1.
         22    1    4    4    0    0  0.10737142305E+02  0.14547322697E+02 -0.11878898750E+03  0.12015712369E+03  0.00000000000E+00 0. -1.
         22    1    4    4    0    0  0.56932150815E+01 -0.96838685460E+00 -0.57449766936E+02  0.57739295043E+02  0.00000000000E+00 0. -1.
<mgrwt>
<rscale>  0 0.77955439E+02</rscale>
<asrwt>0</asrwt>
<pdfrwt beam="2">  1        1 0.29725413E-01 0.77955439E+02</pdfrwt>
<pdfrwt beam="1">  1       -1 0.12097016E-02 0.77955439E+02</pdfrwt>
<totfact> 0.17840686E+05</totfact>
</mgrwt>
</event>
<event>
 7    1  0.3301067E-009  0.9077595E+02  0.7818608E-02  0.1300983E+00
          1   -1    0    0  501    0  0.00000000000E+00  0.00000000000E+00  0.10234071453E+03  0.10234071465E+03  0.50400000000E-02 0. -1.
         -1   -1    0    0    0  501 -0.00000000000E+00 -0.00000000000E+00 -0.20129509075E+02  0.20129509706E+02  0.50400000000E-02 0.  1.
         23    2    1    2    0    0 -0.88817841970E-15 -0.35527136788E-14  0.82211205451E+02  0.12247022436E+03  0.90775952500E+02 0.  0.
    9000005    2    3    3    0    0 -0.67270128028E+01 -0.28203710618E+02 -0.54862551402E+01  0.30103852836E+02  0.59532315797E+01 0.  0.
         22    1    3    3    0    0  0.67270128028E+01  0.28203710618E+02  0.87697460591E+02  0.92366371521E+02  0.00000000000E+00 0. -1.
         22    1    4    4    0    0 -0.70262371337E+01 -0.24884873536E+02 -0.31828396762E+01  0.26052934721E+02  0.00000000000E+00 0.  1.
         22    1    4    4    0    0  0.29922433087E+00 -0.33188370816E+01 -0.23034154639E+01  0.40509181149E+01  0.00000000000E+00 0.  1.
<mgrwt>
<rscale>  0 0.90775953E+02</rscale>
<asrwt>0</asrwt>
<pdfrwt beam="1">  1        1 0.15744725E-01 0.90775953E+02</pdfrwt>
<pdfrwt beam="2">  1       -1 0.30968476E-02 0.90775953E+02</pdfrwt>
<totfact> 0.10612106E+05</totfact>
</mgrwt>
</event>
<event>
 7    1  0.3301067E-009  0.8963233E+02  0.7818608E-02  0.1303745E+00
          1   -1    0    0  501    0  0.00000000000E+00  0.00000000000E+00  0.29235495207E+02  0.29235495641E+02  0.50400000000E-02 0. -1.
         -1   -1    0    0    0  501 -0.00000000000E+00 -0.00000000000E+00 -0.68700341689E+02  0.68700341874E+02  0.50400000000E-02 0.  1.
         23    2    1    2    0    0  0.00000000000E+00  0.00000000000E+00 -0.39464846482E+02  0.97935837515E+02  0.89632327661E+02 0.  0.
    9000005    2    3    3    0    0 -0.15708231121E+02 -0.33083367978E+02 -0.47676238374E+02  0.60403388640E+02  0.58555863934E+01 0.  0.
         22    1    3    3    0    0  0.15708231121E+02  0.33083367978E+02  0.82113918915E+01  0.37532448875E+02  0.00000000000E+00 0. -1.
         22    1    4    4    0    0 -0.80703548558E+01 -0.10809584452E+02 -0.18914361817E+02  0.23232107663E+02  0.00000000000E+00 0.  1.
         22    1    4    4    0    0 -0.76378762654E+01 -0.22273783526E+02 -0.28761876556E+02  0.37171280977E+02  0.00000000000E+00 0.  1.
<mgrwt>
<rscale>  0 0.89632328E+02</rscale>
<asrwt>0</asrwt>
<pdfrwt beam="1">  1        1 0.44977686E-02 0.89632328E+02</pdfrwt>
<pdfrwt beam="2">  1       -1 0.10569283E-01 0.89632328E+02</pdfrwt>
<totfact> 0.90659100E+04</totfact>
</mgrwt>
</event>
<event>
 7    1  0.3301067E-009  0.9082892E+02  0.7818608E-02  0.1300857E+00
          1   -1    0    0  501    0  0.00000000000E+00  0.00000000000E+00  0.12614800161E+02  0.12614801167E+02  0.50400000000E-02 0. -1.
         -1   -1    0    0    0  501 -0.00000000000E+00 -0.00000000000E+00 -0.16349628601E+03  0.16349628609E+03  0.50400000000E-02 0.  1.
         23    2    1    2    0    0  0.00000000000E+00  0.00000000000E+00 -0.15088148585E+03  0.17611108726E+03  0.90828917653E+02 0.  0.
    9000005    2    3    3    0    0 -0.32527613648E+02  0.31576831116E+02 -0.77183194286E+02  0.89586061440E+02  0.36434888856E+01 0.  0.
         22    1    3    3    0    0  0.32527613648E+02 -0.31576831116E+02 -0.73698291564E+02  0.86525025815E+02  0.00000000000E+00 0. -1.
         22    1    4    4    0    0 -0.23628478990E+02  0.20837402522E+02 -0.52018532431E+02  0.60814719267E+02  0.00000000000E+00 0. -1.
         22    1    4    4    0    0 -0.88991346578E+01  0.10739428594E+02 -0.25164661855E+02  0.28771342173E+02  0.00000000000E+00 0. -1.
<mgrwt>
<rscale>  0 0.90828918E+02</rscale>
<asrwt>0</asrwt>
<pdfrwt beam="1">  1        1 0.19407387E-02 0.90828918E+02</pdfrwt>
<pdfrwt beam="2">  1       -1 0.25153273E-01 0.90828918E+02</pdfrwt>
<totfact> 0.73983714E+04</totfact>
</mgrwt>
</event>
<event>
 7    1  0.3301067E-009  0.9042223E+02  0.7818608E-02  0.1301832E+00
         -1   -1    0    0    0  501 -0.00000000000E+00  0.00000000000E+00  0.78080349659E+01  0.78080365926E+01  0.50400000000E-02 0.  1.
          1   -1    0    0  501    0  0.00000000000E+00 -0.00000000000E+00 -0.26178732873E+03  0.26178732878E+03  0.50400000000E-02 0. -1.
         23    2    1    2    0    0  0.00000000000E+00  0.00000000000E+00 -0.25397929376E+03  0.26959536537E+03  0.90422228289E+02 0.  0.
    9000005    2    3    3    0    0  0.84923454874E+01 -0.29190050365E+02 -0.22531372035E+03  0.22781146810E+03  0.14408797539E+02 0.  0.
         22    1    3    3    0    0 -0.84923454874E+01  0.29190050365E+02 -0.28665573413E+02  0.41783897273E+02  0.00000000000E+00 0.  1.
         22    1    4    4    0    0  0.49464318841E+01 -0.89686084749E+00 -0.40539158311E+02  0.40849662230E+02  0.00000000000E+00 0. -1.
         22    1    4    4    0    0  0.35459136033E+01 -0.28293189518E+02 -0.18477456204E+03  0.18696180587E+03  0.00000000000E+00 0. -1.
<mgrwt>
<rscale>  0 0.90422228E+02</rscale>
<asrwt>0</asrwt>
<pdfrwt beam="2">  1        1 0.40274967E-01 0.90422228E+02</pdfrwt>
<pdfrwt beam="1">  1       -1 0.12012365E-02 0.90422228E+02</pdfrwt>
<totfact> 0.12758409E+05</totfact>
</mgrwt>
</event>
<event>
 7    1  0.3301067E-009  0.9163009E+02  0.7818608E-02  0.1298952E+00
          1   -1    0    0  501    0  0.00000000000E+00  0.00000000000E+00  0.72465643075E+01  0.72465660601E+01  0.50400000000E-02 0. -1.
         -1   -1    0    0    0  501 -0.00000000000E+00 -0.00000000000E+00 -0.28965699592E+03  0.28965699596E+03  0.50400000000E-02 0.  1.
         23    2    1    2    0    0  0.00000000000E+00  0.00000000000E+00 -0.28241043161E+03  0.29690356202E+03  0.91630089266E+02 0.  0.
    9000005    2    3    3    0    0  0.52602560755E+00 -0.37935041387E+02 -0.65095652587E+02  0.76301981678E+02  0.12050076944E+02 0.  0.
         22    1    3    3    0    0 -0.52602560755E+00  0.37935041387E+02 -0.21731477902E+03  0.22060158034E+03  0.00000000000E+00 0.  1.
         22    1    4    4    0    0  0.20985820200E-01 -0.38036644458E+02 -0.59087308423E+02  0.70271592971E+02  0.00000000000E+00 0.  1.
         22    1    4    4    0    0  0.50503978735E+00  0.10160307056E+00 -0.60083441637E+01  0.60303887072E+01  0.00000000000E+00 0.  1.
<mgrwt>
<rscale>  0 0.91630089E+02</rscale>
<asrwt>0</asrwt>
<pdfrwt beam="1">  1        1 0.11148564E-02 0.91630089E+02</pdfrwt>
<pdfrwt beam="2">  1       -1 0.44562606E-01 0.91630089E+02</pdfrwt>
<totfact> 0.60625153E+04</totfact>
</mgrwt>
</event>
<event>
 7    1  0.3301067E-009  0.9319253E+02  0.7818608E-02  0.1295300E+00
          1   -1    0    0  501    0  0.00000000000E+00  0.00000000000E+00  0.34446813701E+03  0.34446813705E+03  0.50400000000E-02 0. -1.
         -1   -1    0    0    0  501 -0.00000000000E+00 -0.00000000000E+00 -0.63030836460E+01  0.63030856610E+01  0.50400000000E-02 0.  1.
         23    2    1    2    0    0  0.00000000000E+00  0.00000000000E+00  0.33816505337E+03  0.35077122271E+03  0.93192528474E+02 0.  0.
    9000005    2    3    3    0    0 -0.36476720838E+02 -0.27172088984E+02  0.15783981554E+03  0.16479793167E+03  0.13269413345E+02 0.  0.
         22    1    3    3    0    0  0.36476720838E+02  0.27172088984E+02  0.18032523783E+03  0.18597329105E+03  0.00000000000E+00 0.  1.
         22    1    4    4    0    0 -0.35250992996E+02 -0.21376175283E+02  0.14285319344E+03  0.14868291177E+03  0.00000000000E+00 0.  1.
         22    1    4    4    0    0 -0.12257278414E+01 -0.57959137017E+01  0.14986622094E+02  0.16115019893E+02  0.00000000000E+00 0.  1.
<mgrwt>
<rscale>  0 0.93192528E+02</rscale>
<asrwt>0</asrwt>
<pdfrwt beam="1">  1        1 0.52995096E-01 0.93192528E+02</pdfrwt>
<pdfrwt beam="2">  1       -1 0.96970537E-03 0.93192528E+02</pdfrwt>
<totfact> 0.12401703E+05</totfact>
</mgrwt>
</event>
<event>
 7    1  0.3301067E-009  0.8508985E+02  0.7818608E-02  0.1315198E+00
         -1   -1    0    0    0  501 -0.00000000000E+00  0.00000000000E+00  0.10047931152E+03  0.10047931165E+03  0.50400000000E-02 0.  1.
          1   -1    0    0  501    0  0.00000000000E+00 -0.00000000000E+00 -0.18014362724E+02  0.18014363429E+02  0.50400000000E-02 0. -1.
         23    2    1    2    0    0  0.00000000000E+00  0.00000000000E+00  0.82464948797E+02  0.11849367508E+03  0.85089853996E+02 0.  0.
    9000005    2    3    3    0    0  0.21170240214E+02  0.31852603966E+02  0.21525982531E+02  0.46546993015E+02  0.15507649232E+02 0.  0.
         22    1    3    3    0    0 -0.21170240214E+02 -0.31852603966E+02  0.60938966266E+02  0.71946682062E+02  0.00000000000E+00 0.  1.
         22    1    4    4    0    0  0.13442034456E+02  0.28784441334E+02  0.12143477616E+02  0.34010239662E+02  0.00000000000E+00 0. -1.
         22    1    4    4    0    0  0.77282057575E+01  0.30681626319E+01  0.93825049148E+01  0.12536753353E+02  0.00000000000E+00 0. -1.
<mgrwt>
<rscale>  0 0.85089854E+02</rscale>
<asrwt>0</asrwt>
<pdfrwt beam="2">  1        1 0.27714405E-02 0.85089854E+02</pdfrwt>
<pdfrwt beam="1">  1       -1 0.15458356E-01 0.85089854E+02</pdfrwt>
<totfact> 0.97096637E+04</totfact>
</mgrwt>
</event>
<event>
 7    1  0.3301067E-009  0.8655854E+02  0.7818608E-02  0.1311406E+00
         -1   -1    0    0    0  501 -0.00000000000E+00  0.00000000000E+00  0.57469912943E+01  0.57469935043E+01  0.50400000000E-02 0.  1.
          1   -1    0    0  501    0  0.00000000000E+00 -0.00000000000E+00 -0.32592613087E+03  0.32592613091E+03  0.50400000000E-02 0. -1.
         23    2    1    2    0    0  0.00000000000E+00  0.00000000000E+00 -0.32017913957E+03  0.33167312441E+03  0.86558535331E+02 0.  0.
    9000005    2    3    3    0    0  0.24565266513E+02  0.32468294962E+02 -0.20280566437E+03  0.20743876854E+03  0.15590468166E+02 0.  0.
         22    1    3    3    0    0 -0.24565266513E+02 -0.32468294962E+02 -0.11737347521E+03  0.12423435587E+03  0.00000000000E+00 0.  1.
         22    1    4    4    0    0  0.13068248665E+02  0.26790887944E+02 -0.16003595096E+03  0.16278831776E+03  0.00000000000E+00 0. -1.
         22    1    4    4    0    0  0.11497017847E+02  0.56774070179E+01 -0.42769713410E+02  0.44650450782E+02  0.00000000000E+00 0. -1.
<mgrwt>
<rscale>  0 0.86558535E+02</rscale>
<asrwt>0</asrwt>
<pdfrwt beam="2">  1        1 0.50142467E-01 0.86558535E+02</pdfrwt>
<pdfrwt beam="1">  1       -1 0.88415293E-03 0.86558535E+02</pdfrwt>
<totfact> 0.14937795E+05</totfact>
</mgrwt>
</event>
<event>
 7    1  0.3301067E-009  0.8982541E+02  0.7818608E-02  0.1303275E+00
          1   -1    0    0  501    0  0.00000000000E+00  0.00000000000E+00  0.23715168677E+03  0.23715168683E+03  0.50400000000E-02 0. -1.
         -1   -1    0    0    0  501 -0.00000000000E+00 -0.00000000000E+00 -0.85057419656E+01  0.85057434588E+01  0.50400000000E-02 0.  1.
         23    2    1    2    0    0 -0.22204460493E-15  0.00000000000E+00  0.22864594481E+03  0.24565743029E+03  0.89825413874E+02 0.  0.
    9000005    2    3    3    0    0 -0.95817725661E+00  0.30124430471E+02  0.20466504806E+03  0.20714142291E+03  0.10554040753E+02 0.  0.
         22    1    3    3    0    0  0.95817725661E+00 -0.30124430471E+02  0.23980896753E+02  0.38516007373E+02  0.00000000000E+00 0.  1.
         22    1    4    4    0    0 -0.28393306209E+01  0.19116621510E+02  0.15703242717E+03  0.15821722472E+03  0.00000000000E+00 0. -1.
         22    1    4    4    0    0  0.18811533643E+01  0.11007808961E+02  0.47632620884E+02  0.48924198189E+02  0.00000000000E+00 0. -1.
<mgrwt>
<rscale>  0 0.89825414E+02</rscale>
<asrwt>0</asrwt>
<pdfrwt beam="1">  1        1 0.36484868E-01 0.89825414E+02</pdfrwt>
<pdfrwt beam="2">  1       -1 0.13085761E-02 0.89825414E+02</pdfrwt>
<totfact> 0.12738348E+05</totfact>
</mgrwt>
</event>
<event>
 7    1  0.3301067E-009  0.9011818E+02  0.7818608E-02  0.1302566E+00
          1   -1    0    0  501    0  0.00000000000E+00  0.00000000000E+00  0.13884138219E+02  0.13884139134E+02  0.50400000000E-02 0. -1.
         -1   -1    0    0    0  501 -0.00000000000E+00 -0.00000000000E+00 -0.14623316649E+03  0.14623316658E+03  0.50400000000E-02 0.  1.
         23    2    1    2    0    0  0.00000000000E+00  0.00000000000E+00 -0.13234902827E+03  0.16011730571E+03  0.90118179652E+02 0.  0.
    9000005    2    3    3    0    0  0.26455469963E+02 -0.16974558832E+02 -0.12302973218E+03  0.12733199165E+03  0.94389383979E+01 0.  0.
         22    1    3    3    0    0 -0.26455469963E+02  0.16974558832E+02 -0.93192960896E+01  0.32785314062E+02  0.00000000000E+00 0. -1.
         22    1    4    4    0    0  0.18211286463E+02 -0.12190503440E+02 -0.66878740920E+02  0.70377733097E+02  0.00000000000E+00 0. -1.
         22    1    4    4    0    0  0.82441834995E+01 -0.47840553923E+01 -0.56150991264E+02  0.56954258555E+02  0.00000000000E+00 0. -1.
<mgrwt>
<rscale>  0 0.90118180E+02</rscale>
<asrwt>0</asrwt>
<pdfrwt beam="1">  1        1 0.21360214E-02 0.90118180E+02</pdfrwt>
<pdfrwt beam="2">  1       -1 0.22497409E-01 0.90118180E+02</pdfrwt>
<totfact> 0.77543731E+04</totfact>
</mgrwt>
</event>
<event>
 7    1  0.3301067E-009  0.9207688E+02  0.7818608E-02  0.1297899E+00
          1   -1    0    0  501    0  0.00000000000E+00  0.00000000000E+00  0.88175971707E+02  0.88175971851E+02  0.50400000000E-02 0.  1.
         -1   -1    0    0    0  501 -0.00000000000E+00 -0.00000000000E+00 -0.24037592646E+02  0.24037593174E+02  0.50400000000E-02 0. -1.
         23    2    1    2    0    0  0.00000000000E+00  0.00000000000E+00  0.64138379061E+02  0.11221356502E+03  0.92076883673E+02 0.  0.
    9000005    2    3    3    0    0 -0.32554581102E+02 -0.95914193988E+01 -0.43650996326E+01  0.35764087133E+02  0.10402872528E+02 0.  0.
         22    1    3    3    0    0  0.32554581102E+02  0.95914193988E+01  0.68503478694E+02  0.76449477892E+02  0.00000000000E+00 0.  1.
         22    1    4    4    0    0 -0.58363189635E+01  0.18629818199E+01 -0.25545268867E+01  0.66376899536E+01  0.00000000000E+00 0.  1.
         22    1    4    4    0    0 -0.26718262138E+02 -0.11454401219E+02 -0.18105727459E+01  0.29126397179E+02  0.00000000000E+00 0.  1.
<mgrwt>
<rscale>  0 0.92076884E+02</rscale>
<asrwt>0</asrwt>
<pdfrwt beam="1">  1        1 0.13565534E-01 0.92076884E+02</pdfrwt>
<pdfrwt beam="2">  1       -1 0.36980913E-02 0.92076884E+02</pdfrwt>
<totfact> 0.99602947E+04</totfact>
</mgrwt>
</event>
<event>
 7    1  0.3301067E-009  0.9440428E+02  0.7818608E-02  0.1292523E+00
          1   -1    0    0  501    0  0.00000000000E+00  0.00000000000E+00  0.38528116783E+02  0.38528117113E+02  0.50400000000E-02 0. -1.
         -1   -1    0    0    0  501 -0.00000000000E+00 -0.00000000000E+00 -0.57828984100E+02  0.57828984319E+02  0.50400000000E-02 0.  1.
         23    2    1    2    0    0  0.00000000000E+00  0.00000000000E+00 -0.19300867317E+02  0.96357101432E+02  0.94404277007E+02 0.  0.
    9000005    2    3    3    0    0 -0.86933110873E+00  0.33945775252E+02  0.22221242967E+02  0.42717964261E+02  0.13340518636E+02 0.  0.
         22    1    3    3    0    0  0.86933110873E+00 -0.33945775252E+02 -0.41522110284E+02  0.53639137172E+02  0.00000000000E+00 0.  1.
         22    1    4    4    0    0  0.21686696270E+01  0.33026562581E+02  0.21485147148E+02  0.39459707447E+02  0.00000000000E+00 0.  1.
         22    1    4    4    0    0 -0.30380007357E+01  0.91921267170E+00  0.73609581940E+00  0.32582568133E+01  0.00000000000E+00 0.  1.
<mgrwt>
<rscale>  0 0.94404277E+02</rscale>
<asrwt>0</asrwt>
<pdfrwt beam="1">  1        1 0.59274026E-02 0.94404277E+02</pdfrwt>
<pdfrwt beam="2">  1       -1 0.88967668E-02 0.94404277E+02</pdfrwt>
<totfact> 0.81663362E+04</totfact>
</mgrwt>
</event>
<event>
 7    1  0.3301067E-009  0.8778907E+02  0.7818608E-02  0.1308296E+00
         -1   -1    0    0    0  501 -0.00000000000E+00  0.00000000000E+00  0.53450404351E+02  0.53450404589E+02  0.50400000000E-02 0.  1.
          1   -1    0    0  501    0  0.00000000000E+00 -0.00000000000E+00 -0.36047066022E+02  0.36047066374E+02  0.50400000000E-02 0. -1.
         23    2    1    2    0    0  0.88817841970E-15  0.00000000000E+00  0.17403338330E+02  0.89497470963E+02  0.87789071779E+02 0.  0.
    9000005    2    3    3    0    0  0.66721396580E+01 -0.10158384594E+02 -0.33693139116E+02  0.36975473357E+02  0.91786590172E+01 0.  0.
         22    1    3    3    0    0 -0.66721396580E+01  0.10158384594E+02  0.51096477445E+02  0.52521997606E+02  0.00000000000E+00 0.  1.
         22    1    4    4    0    0 -0.50444684400E-01 -0.81524739702E+01 -0.19762024945E+02  0.21377628644E+02  0.00000000000E+00 0.  1.
         22    1    4    4    0    0  0.67225843424E+01 -0.20059106233E+01 -0.13931114171E+02  0.15597844713E+02  0.00000000000E+00 0.  1.
<mgrwt>
<rscale>  0 0.87789072E+02</rscale>
<asrwt>0</asrwt>
<pdfrwt beam="2">  1        1 0.55457026E-02 0.87789072E+02</pdfrwt>
<pdfrwt beam="1">  1       -1 0.82231391E-02 0.87789072E+02</pdfrwt>
<totfact> 0.99316746E+04</totfact>
</mgrwt>
</event>
<event>
 7    1  0.3301067E-009  0.9155047E+02  0.7818608E-02  0.1299140E+00
         -1   -1    0    0    0  501 -0.00000000000E+00  0.00000000000E+00  0.19505583381E+02  0.19505584032E+02  0.50400000000E-02 0.  1.
          1   -1    0    0  501    0  0.00000000000E+00 -0.00000000000E+00 -0.10742422190E+03  0.10742422202E+03  0.50400000000E-02 0. -1.
         23    2    1    2    0    0  0.00000000000E+00  0.00000000000E+00 -0.87918638521E+02  0.12692980605E+03  0.91550470590E+02 0.  0.
    9000005    2    3    3    0    0  0.10735394556E+02 -0.28417226110E+02 -0.90554821183E+02  0.96438218769E+02  0.13317918899E+02 0.  0.
         22    1    3    3    0    0 -0.10735394556E+02  0.28417226110E+02  0.26361826621E+01  0.30491587284E+02  0.00000000000E+00 0.  1.
         22    1    4    4    0    0  0.64453015240E+01 -0.17358505443E+02 -0.72562260162E+02  0.74887523813E+02  0.00000000000E+00 0. -1.
         22    1    4    4    0    0  0.42900930324E+01 -0.11058720667E+02 -0.17992561021E+02  0.21550694956E+02  0.00000000000E+00 0. -1.
<mgrwt>
<rscale>  0 0.91550471E+02</rscale>
<asrwt>0</asrwt>
<pdfrwt beam="2">  1        1 0.16526803E-01 0.91550471E+02</pdfrwt>
<pdfrwt beam="1">  1       -1 0.30008591E-02 0.91550471E+02</pdfrwt>
<totfact> 0.10454289E+05</totfact>
</mgrwt>
</event>
<event>
 7    1  0.3301067E-009  0.8609828E+02  0.7818608E-02  0.1312585E+00
          1   -1    0    0  501    0  0.00000000000E+00  0.00000000000E+00  0.12971525768E+02  0.12971526747E+02  0.50400000000E-02 0. -1.
         -1   -1    0    0    0  501 -0.00000000000E+00 -0.00000000000E+00 -0.14286897269E+03  0.14286897277E+03  0.50400000000E-02 0.  1.
         23    2    1    2    0    0  0.71054273576E-14  0.00000000000E+00 -0.12989744692E+03  0.15584049952E+03  0.86098284392E+02 0.  0.
    9000005    2    3    3    0    0 -0.34488562416E+02  0.22696636743E+02 -0.49419490544E+02  0.65389962104E+02  0.11356180753E+02 0.  0.
         22    1    3    3    0    0  0.34488562416E+02 -0.22696636743E+02 -0.80477956374E+02  0.90450537418E+02  0.00000000000E+00 0.  1.
         22    1    4    4    0    0 -0.19482134164E+02  0.18303142049E+02 -0.26465724741E+02  0.37616394651E+02  0.00000000000E+00 0. -1.
         22    1    4    4    0    0 -0.15006428252E+02  0.43934946938E+01 -0.22953765803E+02  0.27773567453E+02  0.00000000000E+00 0. -1.
<mgrwt>
<rscale>  0 0.86098284E+02</rscale>
<asrwt>0</asrwt>
<pdfrwt beam="1">  1        1 0.19956195E-02 0.86098284E+02</pdfrwt>
<pdfrwt beam="2">  1       -1 0.21979841E-01 0.86098284E+02</pdfrwt>
<totfact> 0.87725057E+04</totfact>
</mgrwt>
</event>
<event>
 7    1  0.3301067E-009  0.9062513E+02  0.7818608E-02  0.1301345E+00
          1   -1    0    0  501    0  0.00000000000E+00  0.00000000000E+00  0.30790522318E+01  0.30790563567E+01  0.50400000000E-02 0. -1.
         -1   -1    0    0    0  501 -0.00000000000E+00 -0.00000000000E+00 -0.66683737090E+03  0.66683737091E+03  0.50400000000E-02 0.  1.
         23    2    1    2    0    0  0.00000000000E+00  0.17763568394E-14 -0.66375831866E+03  0.66991642727E+03  0.90625128594E+02 0.  0.
    9000005    2    3    3    0    0  0.16638492902E+02 -0.13951636600E+02 -0.62555570257E+03  0.62597410728E+03  0.72220742195E+01 0.  0.
         22    1    3    3    0    0 -0.16638492902E+02  0.13951636600E+02 -0.38202616091E+02  0.43942319989E+02  0.00000000000E+00 0. -1.
         22    1    4    4    0    0  0.39409052615E+01 -0.69770773455E+01 -0.17106563773E+03  0.17125321239E+03  0.00000000000E+00 0. -1.
         22    1    4    4    0    0  0.12697587641E+02 -0.69745592543E+01 -0.45449006484E+03  0.45472089489E+03  0.00000000000E+00 0. -1.
<mgrwt>
<rscale>  0 0.90625129E+02</rscale>
<asrwt>0</asrwt>
<pdfrwt beam="1">  1        1 0.47370119E-03 0.90625129E+02</pdfrwt>
<pdfrwt beam="2">  1       -1 0.10259025E+00 0.90625129E+02</pdfrwt>
<totfact> 0.38979313E+04</totfact>
</mgrwt>
</event>
<event>
 7    1  0.3301067E-009  0.9463161E+02  0.7818608E-02  0.1292008E+00
          1   -1    0    0  501    0  0.00000000000E+00  0.00000000000E+00  0.22260852429E+02  0.22260853000E+02  0.50400000000E-02 0. -1.
         -1   -1    0    0    0  501 -0.00000000000E+00 -0.00000000000E+00 -0.10057051749E+03  0.10057051762E+03  0.50400000000E-02 0.  1.
         23    2    1    2    0    0  0.17763568394E-14 -0.71054273576E-14 -0.78309665064E+02  0.12283137062E+03  0.94631611873E+02 0.  0.
    9000005    2    3    3    0    0  0.15479056009E+02 -0.33685060442E+02 -0.30915252782E+01  0.38974033285E+02  0.11624683656E+02 0.  0.
         22    1    3    3    0    0 -0.15479056009E+02  0.33685060442E+02 -0.75218139786E+02  0.83857337334E+02  0.00000000000E+00 0.  1.
         22    1    4    4    0    0  0.61173516777E+01 -0.31801924627E+01 -0.12892291161E+01  0.70141091639E+01  0.00000000000E+00 0. -1.
         22    1    4    4    0    0  0.93617043309E+01 -0.30504867979E+02 -0.18022961621E+01  0.31959924121E+02  0.00000000000E+00 0. -1.
<mgrwt>
<rscale>  0 0.94631612E+02</rscale>
<asrwt>0</asrwt>
<pdfrwt beam="1">  1        1 0.34247466E-02 0.94631612E+02</pdfrwt>
<pdfrwt beam="2">  1       -1 0.15472387E-01 0.94631612E+02</pdfrwt>
<totfact> 0.73849357E+04</totfact>
</mgrwt>
</event>
<event>
 7    1  0.3301067E-009  0.8851602E+02  0.7818608E-02  0.1306486E+00
          1   -1    0    0  501    0  0.00000000000E+00  0.00000000000E+00  0.33359069727E+02  0.33359070108E+02  0.50400000000E-02 0. -1.
         -1   -1    0    0    0  501 -0.00000000000E+00 -0.00000000000E+00 -0.58717802026E+02  0.58717802242E+02  0.50400000000E-02 0.  1.
         23    2    1    2    0    0  0.00000000000E+00  0.35527136788E-14 -0.25358732298E+02  0.92076872350E+02  0.88516016166E+02 0.  0.
    9000005    2    3    3    0    0 -0.19955682293E+02 -0.22553276418E+02 -0.45786464148E+02  0.55687701413E+02  0.98914233812E+01 0.  0.
         22    1    3    3    0    0  0.19955682293E+02  0.22553276418E+02  0.20427731850E+02  0.36389170937E+02  0.00000000000E+00 0. -1.
         22    1    4    4    0    0 -0.20073361019E+02 -0.20014852414E+02 -0.44685896548E+02  0.52918460768E+02  0.00000000000E+00 0.  1.
         22    1    4    4    0    0  0.11767872539E+00 -0.25384240043E+01 -0.11005675996E+01  0.27692406449E+01  0.00000000000E+00 0.  1.
<mgrwt>
<rscale>  0 0.88516016E+02</rscale>
<asrwt>0</asrwt>
<pdfrwt beam="1">  1        1 0.51321646E-02 0.88516016E+02</pdfrwt>
<pdfrwt beam="2">  1       -1 0.90335080E-02 0.88516016E+02</pdfrwt>
<totfact> 0.95904368E+04</totfact>
</mgrwt>
</event>
<event>
 7    1  0.3301067E-009  0.8529566E+02  0.7818608E-02  0.1314661E+00
         -1   -1    0    0    0  501 -0.00000000000E+00  0.00000000000E+00  0.14436798085E+02  0.14436798964E+02  0.50400000000E-02 0.  1.
          1   -1    0    0  501    0  0.00000000000E+00 -0.00000000000E+00 -0.12598619079E+03  0.12598619089E+03  0.50400000000E-02 0. -1.
         23    2    1    2    0    0  0.00000000000E+00  0.00000000000E+00 -0.11154939271E+03  0.14042298986E+03  0.85295656789E+02 0.  0.
    9000005    2    3    3    0    0 -0.37388697002E+02  0.71107511223E+01 -0.31759417001E+02  0.52020966870E+02  0.15781095678E+02 0.  0.
         22    1    3    3    0    0  0.37388697002E+02 -0.71107511223E+01 -0.79789975707E+02  0.88402022988E+02  0.00000000000E+00 0. -1.
         22    1    4    4    0    0 -0.29453340588E+02 -0.14871062511E+01 -0.22218421491E+02  0.36923827136E+02  0.00000000000E+00 0.  1.
         22    1    4    4    0    0 -0.79353564137E+01  0.85978573735E+01 -0.95409955103E+01  0.15097139734E+02  0.00000000000E+00 0.  1.
<mgrwt>
<rscale>  0 0.85295657E+02</rscale>
<asrwt>0</asrwt>
<pdfrwt beam="2">  1        1 0.19382490E-01 0.85295657E+02</pdfrwt>
<pdfrwt beam="1">  1       -1 0.22210460E-02 0.85295657E+02</pdfrwt>
<totfact> 0.13006065E+05</totfact>
</mgrwt>
</event>
<event>
 7    1  0.3301067E-009  0.9088976E+02  0.7818608E-02  0.1300711E+00
         -1   -1    0    0    0  501 -0.00000000000E+00  0.00000000000E+00  0.35918933136E+03  0.35918933140E+03  0.50400000000E-02 0.  1.
          1   -1    0    0  501    0  0.00000000000E+00 -0.00000000000E+00 -0.57497162719E+01  0.57497184809E+01  0.50400000000E-02 0. -1.
         23    2    1    2    0    0  0.00000000000E+00  0.00000000000E+00  0.35343961509E+03  0.36493904988E+03  0.90889760760E+02 0.  0.
    9000005    2    3    3    0    0  0.31269815984E+02  0.17975160012E+02  0.28592515632E+03  0.28839422698E+03  0.10822539964E+02 0.  0.
         22    1    3    3    0    0 -0.31269815984E+02 -0.17975160012E+02  0.67514458773E+02  0.76544822898E+02  0.00000000000E+00 0. -1.
         22    1    4    4    0    0  0.25235503576E+02  0.89957556106E+01  0.21006406086E+03  0.21176558720E+03  0.00000000000E+00 0.  1.
         22    1    4    4    0    0  0.60343124074E+01  0.89794044014E+01  0.75861095461E+02  0.76628639778E+02  0.00000000000E+00 0.  1.
<mgrwt>
<rscale>  0 0.90889761E+02</rscale>
<asrwt>0</asrwt>
<pdfrwt beam="2">  1        1 0.88457189E-03 0.90889761E+02</pdfrwt>
<pdfrwt beam="1">  1       -1 0.55259898E-01 0.90889761E+02</pdfrwt>
<totfact> 0.56589374E+04</totfact>
</mgrwt>
</event>
<event>
 7    1  0.3301067E-009  0.9098746E+02  0.7818608E-02  0.1300478E+00
         -1   -1    0    0    0  501 -0.00000000000E+00  0.00000000000E+00  0.48819609373E+01  0.48819635389E+01  0.50400000000E-02 0.  1.
          1   -1    0    0  501    0  0.00000000000E+00 -0.00000000000E+00 -0.42394415137E+03  0.42394415140E+03  0.50400000000E-02 0. -1.
         23    2    1    2    0    0 -0.35527136788E-14  0.00000000000E+00 -0.41906219043E+03  0.42882611494E+03  0.90987457396E+02 0.  0.
    9000005    2    3    3    0    0  0.25174181440E+02  0.35304379440E+02 -0.25657692554E+03  0.26065477396E+03  0.15134525122E+02 0.  0.
         22    1    3    3    0    0 -0.25174181440E+02 -0.35304379440E+02 -0.16248526489E+03  0.16817134098E+03  0.00000000000E+00 0. -1.
         22    1    4    4    0    0  0.10376912086E+02  0.20131012261E+02 -0.93374109804E+02  0.96081540063E+02  0.00000000000E+00 0.  1.
         22    1    4    4    0    0  0.14797269354E+02  0.15173367179E+02 -0.16320281574E+03  0.16457323390E+03  0.00000000000E+00 0.  1.
<mgrwt>
<rscale>  0 0.90987457E+02</rscale>
<asrwt>0</asrwt>
<pdfrwt beam="2">  1        1 0.65222148E-01 0.90987457E+02</pdfrwt>
<pdfrwt beam="1">  1       -1 0.75107145E-03 0.90987457E+02</pdfrwt>
<totfact> 0.13689850E+05</totfact>
</mgrwt>
</event>
<event>
 7    1  0.3301067E-009  0.9061110E+02  0.7818608E-02  0.1301379E+00
         -1   -1    0    0    0  501 -0.00000000000E+00  0.00000000000E+00  0.10427775294E+02  0.10427776512E+02  0.50400000000E-02 0.  1.
          1   -1    0    0  501    0  0.00000000000E+00 -0.00000000000E+00 -0.19683897627E+03  0.19683897634E+03  0.50400000000E-02 0. -1.
         23    2    1    2    0    0  0.00000000000E+00  0.00000000000E+00 -0.18641120098E+03  0.20726675285E+03  0.90611097481E+02 0.  0.
    9000005    2    3    3    0    0  0.43574226928E+02  0.10628372387E+02 -0.94469239667E+02  0.10496817123E+03  0.90666518518E+01 0.  0.
         22    1    3    3    0    0 -0.43574226928E+02 -0.10628372387E+02 -0.91941961311E+02  0.10229858162E+03  0.00000000000E+00 0. -1.
         22    1    4    4    0    0  0.13868713899E+02  0.17890330917E+01 -0.21004916441E+02  0.25233873648E+02  0.00000000000E+00 0. -1.
         22    1    4    4    0    0  0.29705513029E+02  0.88393392951E+01 -0.73464323227E+02  0.79734297580E+02  0.00000000000E+00 0. -1.
<mgrwt>
<rscale>  0 0.90611097E+02</rscale>
<asrwt>0</asrwt>
<pdfrwt beam="2">  1        1 0.30282917E-01 0.90611097E+02</pdfrwt>
<pdfrwt beam="1">  1       -1 0.16042734E-02 0.90611097E+02</pdfrwt>
<totfact> 0.12002708E+05</totfact>
</mgrwt>
</event>
<event>
 7    1  0.3301067E-009  0.8982562E+02  0.7818608E-02  0.1303275E+00
          1   -1    0    0  501    0  0.00000000000E+00  0.00000000000E+00  0.23805421670E+03  0.23805421675E+03  0.50400000000E-02 0. -1.
         -1   -1    0    0    0  501 -0.00000000000E+00 -0.00000000000E+00 -0.84735324710E+01  0.84735339699E+01  0.50400000000E-02 0.  1.
         23    2    1    2    0    0  0.00000000000E+00  0.00000000000E+00  0.22958068423E+03  0.24652775072E+03  0.89825616087E+02 0.  0.
    9000005    2    3    3    0    0  0.36712925659E+02  0.24285940864E+02  0.10844486816E+03  0.11764201929E+03  0.11904177277E+02 0.  0.
         22    1    3    3    0    0 -0.36712925659E+02 -0.24285940864E+02  0.12113581606E+03  0.12888573144E+03  0.00000000000E+00 0. -1.
         22    1    4    4    0    0  0.35980956164E+02  0.21215916461E+02  0.10481805503E+03  0.11283425446E+03  0.00000000000E+00 0. -1.
         22    1    4    4    0    0  0.73196949558E+00  0.30700244033E+01  0.36268131299E+01  0.48077648298E+01  0.00000000000E+00 0. -1.
<mgrwt>
<rscale>  0 0.89825616E+02</rscale>
<asrwt>0</asrwt>
<pdfrwt beam="1">  1        1 0.36623725E-01 0.89825616E+02</pdfrwt>
<pdfrwt beam="2">  1       -1 0.13036205E-02 0.89825616E+02</pdfrwt>
<totfact> 0.12747687E+05</totfact>
</mgrwt>
</event>
<event>
 7    1  0.3301067E-009  0.9354665E+02  0.7818608E-02  0.1294483E+00
          1   -1    0    0  501    0  0.00000000000E+00  0.00000000000E+00  0.55781971912E+03  0.55781971914E+03  0.50400000000E-02 0. -1.
         -1   -1    0    0    0  501 -0.00000000000E+00 -0.00000000000E+00 -0.39219532345E+01  0.39219564729E+01  0.50400000000E-02 0.  1.
         23    2    1    2    0    0  0.35527136788E-14  0.00000000000E+00  0.55389776589E+03  0.56174167562E+03  0.93546646495E+02 0.  0.
    9000005    2    3    3    0    0 -0.16062107791E+02 -0.21880618731E+02  0.50558155690E+03  0.50632318743E+03  0.37022510265E+01 0.  0.
         22    1    3    3    0    0  0.16062107791E+02  0.21880618731E+02  0.48316208985E+02  0.55418488191E+02  0.00000000000E+00 0.  1.
         22    1    4    4    0    0 -0.11357231432E+02 -0.13614307822E+02  0.30266762622E+03  0.30318645756E+03  0.00000000000E+00 0. -1.
         22    1    4    4    0    0 -0.47048763583E+01 -0.82663109095E+01  0.20291393068E+03  0.20313672987E+03  0.00000000000E+00 0. -1.
<mgrwt>
<rscale>  0 0.93546646E+02</rscale>
<asrwt>0</asrwt>
<pdfrwt beam="1">  1        1 0.85818455E-01 0.93546646E+02</pdfrwt>
<pdfrwt beam="2">  1       -1 0.60337741E-03 0.93546646E+02</pdfrwt>
<totfact> 0.13157073E+05</totfact>
</mgrwt>
</event>
<event>
 7    1  0.3301067E-009  0.9079959E+02  0.7818608E-02  0.1300927E+00
          1   -1    0    0  501    0  0.00000000000E+00  0.00000000000E+00  0.87533485640E+01  0.87533500149E+01  0.50400000000E-02 0. -1.
         -1   -1    0    0    0  501 -0.00000000000E+00 -0.00000000000E+00 -0.23546888408E+03  0.23546888414E+03  0.50400000000E-02 0.  1.
         23    2    1    2    0    0 -0.35527136788E-14  0.71054273576E-14 -0.22671553552E+03  0.24422223415E+03  0.90799590354E+02 0.  0.
    9000005    2    3    3    0    0  0.21039566300E+02 -0.36425066892E+02 -0.15591337689E+03  0.16186693976E+03  0.11066898619E+02 0.  0.
         22    1    3    3    0    0 -0.21039566300E+02  0.36425066892E+02 -0.70802158624E+02  0.82355294389E+02  0.00000000000E+00 0.  1.
         22    1    4    4    0    0  0.43794511030E+01 -0.17427973354E+02 -0.56262537438E+02  0.59062568232E+02  0.00000000000E+00 0. -1.
         22    1    4    4    0    0  0.16660115197E+02 -0.18997093537E+02 -0.99650839456E+02  0.10280437153E+03  0.00000000000E+00 0. -1.
<mgrwt>
<rscale>  0 0.90799590E+02</rscale>
<asrwt>0</asrwt>
<pdfrwt beam="1">  1        1 0.13466693E-02 0.90799590E+02</pdfrwt>
<pdfrwt beam="2">  1       -1 0.36225977E-01 0.90799590E+02</pdfrwt>
<totfact> 0.66780128E+04</totfact>
</mgrwt>
</event>
<event>
 7    1  0.3301067E-009  0.9130744E+02  0.7818608E-02  0.1299716E+00
         -1   -1    0    0    0  501 -0.00000000000E+00  0.00000000000E+00  0.26997809543E+02  0.26997810014E+02  0.50400000000E-02 0.  1.
          1   -1    0    0  501    0  0.00000000000E+00 -0.00000000000E+00 -0.77201158457E+02  0.77201158621E+02  0.50400000000E-02 0. -1.
         23    2    1    2    0    0  0.00000000000E+00  0.35527136788E-14 -0.50203348914E+02  0.10419896863E+03  0.91307441221E+02 0.  0.
    9000005    2    3    3    0    0  0.24755676221E+02  0.29859071974E+02  0.20463793963E+01  0.39126379991E+02  0.47199849912E+01 0.  0.
         22    1    3    3    0    0 -0.24755676221E+02 -0.29859071974E+02 -0.52249728310E+02  0.65072588643E+02  0.00000000000E+00 0.  1.
         22    1    4    4    0    0  0.80173514022E+01  0.12365039947E+02 -0.73644571745E+00  0.14755151260E+02  0.00000000000E+00 0.  1.
         22    1    4    4    0    0  0.16738324818E+02  0.17494032026E+02  0.27828251138E+01  0.24371228731E+02  0.00000000000E+00 0.  1.
<mgrwt>
<rscale>  0 0.91307441E+02</rscale>
<asrwt>0</asrwt>
<pdfrwt beam="2">  1        1 0.11877101E-01 0.91307441E+02</pdfrwt>
<pdfrwt beam="1">  1       -1 0.41535092E-02 0.91307441E+02</pdfrwt>
<totfact> 0.99787734E+04</totfact>
</mgrwt>
</event>
<event>
 7    1  0.3301067E-009  0.9490905E+02  0.7818608E-02  0.1291381E+00
         -1   -1    0    0    0  501 -0.00000000000E+00  0.00000000000E+00  0.86700555192E+01  0.86700569841E+01  0.50400000000E-02 0.  1.
          1   -1    0    0  501    0  0.00000000000E+00 -0.00000000000E+00 -0.25973671785E+03  0.25973671790E+03  0.50400000000E-02 0. -1.
         23    2    1    2    0    0  0.00000000000E+00  0.00000000000E+00 -0.25106666233E+03  0.26840677488E+03  0.94909050513E+02 0.  0.
    9000005    2    3    3    0    0  0.38100771812E+02  0.22983627821E+02 -0.80173423195E+02  0.91815679006E+02  0.47355215268E+01 0.  0.
         22    1    3    3    0    0 -0.38100771812E+02 -0.22983627821E+02 -0.17089323914E+03  0.17659109588E+03  0.00000000000E+00 0. -1.
         22    1    4    4    0    0  0.13840326429E+02  0.10790020725E+02 -0.33520447357E+02  0.37836484693E+02  0.00000000000E+00 0.  1.
         22    1    4    4    0    0  0.24260445384E+02  0.12193607096E+02 -0.46652975838E+02  0.53979194314E+02  0.00000000000E+00 0.  1.
<mgrwt>
<rscale>  0 0.94909051E+02</rscale>
<asrwt>0</asrwt>
<pdfrwt beam="2">  1        1 0.39959489E-01 0.94909051E+02</pdfrwt>
<pdfrwt beam="1">  1       -1 0.13338550E-02 0.94909051E+02</pdfrwt>
<totfact> 0.11190645E+05</totfact>
</mgrwt>
</event>
<event>
 7    1  0.3301067E-009  0.9259788E+02  0.7818608E-02  0.1296680E+00
         -1   -1    0    0    0  501 -0.00000000000E+00  0.00000000000E+00  0.43415961817E+01  0.43415991070E+01  0.50400000000E-02 0.  1.
          1   -1    0    0  501    0  0.00000000000E+00 -0.00000000000E+00 -0.49373345777E+03  0.49373345780E+03  0.50400000000E-02 0. -1.
         23    2    1    2    0    0  0.00000000000E+00  0.00000000000E+00 -0.48939186159E+03  0.49807505691E+03  0.92597883992E+02 0.  0.
    9000005    2    3    3    0    0 -0.17784867286E+01  0.17128486054E+02 -0.47559600207E+03  0.47600984018E+03  0.98621856538E+01 0.  0.
         22    1    3    3    0    0  0.17784867286E+01 -0.17128486054E+02 -0.13795859519E+02  0.22065216731E+02  0.00000000000E+00 0.  1.
         22    1    4    4    0    0 -0.44420909143E+01  0.16415765824E+02 -0.39287300473E+03  0.39324090248E+03  0.00000000000E+00 0. -1.
         22    1    4    4    0    0  0.26636041857E+01  0.71272022999E+00 -0.82722997343E+02  0.82768937693E+02  0.00000000000E+00 0. -1.
<mgrwt>
<rscale>  0 0.92597884E+02</rscale>
<asrwt>0</asrwt>
<pdfrwt beam="2">  1        1 0.75958949E-01 0.92597884E+02</pdfrwt>
<pdfrwt beam="1">  1       -1 0.66793849E-03 0.92597884E+02</pdfrwt>
<totfact> 0.13346462E+05</totfact>
</mgrwt>
</event>
<event>
 6    1  0.3301067E-009  0.2674792E+03  0.7818608E-02  0.1102731E+00
         -1   -1    0    0    0  501 -0.00000000000E+00  0.00000000000E+00  0.80549770600E+02  0.80549770758E+02  0.50400000000E-02 0.  1.
          1   -1    0    0  501    0  0.00000000000E+00 -0.00000000000E+00 -0.22205258733E+03  0.22205258739E+03  0.50400000000E-02 0. -1.
    9000005    2    1    2    0    0 -0.36085888757E+02 -0.35935069275E+02 -0.21063937519E+03  0.21673394552E+03  0.33370931397E+01 0.  0.
         22    1    1    2    0    0  0.36085888757E+02  0.35935069275E+02  0.69136558458E+02  0.85868412624E+02  0.00000000000E+00 0.  1.
         22    1    3    3    0    0 -0.65061392190E+01 -0.71489802790E+01 -0.35028527207E+02  0.36337796918E+02  0.00000000000E+00 0. -1.
         22    1    3    3    0    0 -0.29579749538E+02 -0.28786088996E+02 -0.17561084798E+03  0.18039614860E+03  0.00000000000E+00 0. -1.
<mgrwt>
<rscale>  0 0.26747923E+03</rscale>
<asrwt>0</asrwt>
<pdfrwt beam="2">  1        1 0.34161936E-01 0.26747923E+03</pdfrwt>
<pdfrwt beam="1">  1       -1 0.12392273E-01 0.26747923E+03</pdfrwt>
<totfact> 0.55423139E+03</totfact>
</mgrwt>
</event>
<event>
 7    1  0.3301067E-009  0.9168311E+02  0.7818608E-02  0.1298826E+00
         -1   -1    0    0    0  501 -0.00000000000E+00  0.00000000000E+00  0.20135371345E+01  0.20135434422E+01  0.50400000000E-02 0.  1.
          1   -1    0    0  501    0  0.00000000000E+00 -0.00000000000E+00 -0.10436583979E+04  0.10436583979E+04  0.50400000000E-02 0. -1.
         23    2    1    2    0    0  0.35527136788E-14  0.00000000000E+00 -0.10416448608E+04  0.10456719414E+04  0.91683111733E+02 0.  0.
    9000005    2    3    3    0    0 -0.25787042297E+02 -0.34572845270E+01 -0.95017040344E+03  0.95056936142E+03  0.90216925917E+01 0.  0.
         22    1    3    3    0    0  0.25787042297E+02  0.34572845270E+01 -0.91474457356E+02  0.95102579961E+02  0.00000000000E+00 0.  1.
         22    1    4    4    0    0 -0.17245213997E+01 -0.12745559392E+01 -0.19666009017E+03  0.19667178123E+03  0.00000000000E+00 0. -1.
         22    1    4    4    0    0 -0.24062520897E+02 -0.21827285878E+01 -0.75351031328E+03  0.75389758020E+03  0.00000000000E+00 0. -1.
<mgrwt>
<rscale>  0 0.91683112E+02</rscale>
<asrwt>0</asrwt>
<pdfrwt beam="2">  1        1 0.16056240E+00 0.91683112E+02</pdfrwt>
<pdfrwt beam="1">  1       -1 0.30977626E-03 0.91683112E+02</pdfrwt>
<totfact> 0.13240467E+05</totfact>
</mgrwt>
</event>
<event>
 7    1  0.3301067E-009  0.9006056E+02  0.7818608E-02  0.1302705E+00
         -1   -1    0    0    0  501 -0.00000000000E+00  0.00000000000E+00  0.44152054245E+02  0.44152054533E+02  0.50400000000E-02 0.  1.
          1   -1    0    0  501    0  0.00000000000E+00 -0.00000000000E+00 -0.45925972650E+02  0.45925972927E+02  0.50400000000E-02 0. -1.
         23    2    1    2    0    0  0.17763568394E-14 -0.22204460493E-15 -0.17739184048E+01  0.90078027460E+02  0.90060558762E+02 0.  0.
    9000005    2    3    3    0    0 -0.14499515696E+02  0.19130626809E+01 -0.42194811400E+02  0.47092630465E+02  0.14947172669E+02 0.  0.
         22    1    3    3    0    0  0.14499515696E+02 -0.19130626809E+01  0.40420892995E+02  0.42985396995E+02  0.00000000000E+00 0.  1.
         22    1    4    4    0    0 -0.21466755143E+01 -0.59105495996E+01 -0.12972766495E+02  0.14416500368E+02  0.00000000000E+00 0.  1.
         22    1    4    4    0    0 -0.12352840181E+02  0.78236122805E+01 -0.29222044906E+02  0.32676130097E+02  0.00000000000E+00 0.  1.
<mgrwt>
<rscale>  0 0.90060559E+02</rscale>
<asrwt>0</asrwt>
<pdfrwt beam="2">  1        1 0.70655343E-02 0.90060559E+02</pdfrwt>
<pdfrwt beam="1">  1       -1 0.67926238E-02 0.90060559E+02</pdfrwt>
<totfact> 0.95824915E+04</totfact>
</mgrwt>
</event>
<event>
 7    1  0.3301067E-009  0.9524106E+02  0.7818608E-02  0.1290634E+00
         -1   -1    0    0    0  501 -0.00000000000E+00  0.00000000000E+00  0.27815780340E+03  0.27815780344E+03  0.50400000000E-02 0.  1.
          1   -1    0    0  501    0  0.00000000000E+00 -0.00000000000E+00 -0.81526190097E+01  0.81526205676E+01  0.50400000000E-02 0. -1.
         23    2    1    2    0    0  0.00000000000E+00  0.00000000000E+00  0.27000518439E+03  0.28631042401E+03  0.95241058903E+02 0.  0.
    9000005    2    3    3    0    0 -0.46940934431E+02 -0.32955642387E+01  0.11547589102E+03  0.12477524340E+03  0.44573408720E+01 0.  0.
         22    1    3    3    0    0  0.46940934431E+02  0.32955642387E+01  0.15452929336E+03  0.16153518062E+03  0.00000000000E+00 0.  1.
         22    1    4    4    0    0 -0.25440384675E+02 -0.33486529328E+01  0.66979842461E+02  0.71726744977E+02  0.00000000000E+00 0.  1.
         22    1    4    4    0    0 -0.21500549756E+02  0.53088694091E-01  0.48496048563E+02  0.53048498419E+02  0.00000000000E+00 0.  1.
<mgrwt>
<rscale>  0 0.95241059E+02</rscale>
<asrwt>0</asrwt>
<pdfrwt beam="2">  1        1 0.12542493E-02 0.95241059E+02</pdfrwt>
<pdfrwt beam="1">  1       -1 0.42793507E-01 0.95241059E+02</pdfrwt>
<totfact> 0.55629598E+04</totfact>
</mgrwt>
</event>
<event>
 7    1  0.3301067E-009  0.9203056E+02  0.7818608E-02  0.1298008E+00
         -1   -1    0    0    0  501 -0.00000000000E+00  0.00000000000E+00  0.23123681592E+03  0.23123681597E+03  0.50400000000E-02 0.  1.
          1   -1    0    0  501    0  0.00000000000E+00 -0.00000000000E+00 -0.91568714945E+01  0.91568728815E+01  0.50400000000E-02 0. -1.
         23    2    1    2    0    0  0.35527136788E-14 -0.35527136788E-14  0.22207994442E+03  0.24039368885E+03  0.92030559739E+02 0.  0.
    9000005    2    3    3    0    0  0.27024369137E+02 -0.29758282290E+02  0.16917542209E+03  0.17395002568E+03  0.47345648477E+01 0.  0.
         22    1    3    3    0    0 -0.27024369137E+02  0.29758282290E+02  0.52904522336E+02  0.66443663172E+02  0.00000000000E+00 0. -1.
         22    1    4    4    0    0  0.22638901645E+02 -0.27040727314E+02  0.14453645524E+03  0.14877670414E+03  0.00000000000E+00 0. -1.
         22    1    4    4    0    0  0.43854674919E+01 -0.27175549760E+01  0.24638966847E+02  0.25173321542E+02  0.00000000000E+00 0. -1.
<mgrwt>
<rscale>  0 0.92030560E+02</rscale>
<asrwt>0</asrwt>
<pdfrwt beam="2">  1        1 0.14087497E-02 0.92030560E+02</pdfrwt>
<pdfrwt beam="1">  1       -1 0.35574892E-01 0.92030560E+02</pdfrwt>
<totfact> 0.64849386E+04</totfact>
</mgrwt>
</event>
<event>
 7    1  0.3301067E-009  0.1006913E+03  0.7818608E-02  0.1278849E+00
         -1   -1    0    0    0  501 -0.00000000000E+00  0.00000000000E+00  0.43851921773E+02  0.43851922063E+02  0.50400000000E-02 0.  1.
          1   -1    0    0  501    0  0.00000000000E+00 -0.00000000000E+00 -0.57800984952E+02  0.57800985171E+02  0.50400000000E-02 0. -1.
         23    2    1    2    0    0 -0.71054273576E-14 -0.17763568394E-14 -0.13949063178E+02  0.10165290723E+03  0.10069129647E+03 0.  0.
    9000005    2    3    3    0    0  0.40257614468E+02  0.10651404882E+02  0.20461016082E+02  0.47632711905E+02  0.10774697940E+02 0.  0.
         22    1    3    3    0    0 -0.40257614468E+02 -0.10651404882E+02 -0.34410079261E+02  0.54020195329E+02  0.00000000000E+00 0. -1.
         22    1    4    4    0    0  0.91881686279E+01  0.45506085994E+01  0.99062372460E+01  0.14257069044E+02  0.00000000000E+00 0.  1.
         22    1    4    4    0    0  0.31069445840E+02  0.61007962824E+01  0.10554778836E+02  0.33375642861E+02  0.00000000000E+00 0.  1.
<mgrwt>
<rscale>  0 0.10069130E+03</rscale>
<asrwt>0</asrwt>
<pdfrwt beam="2">  1        1 0.88924592E-02 0.10069130E+03</pdfrwt>
<pdfrwt beam="1">  1       -1 0.67464496E-02 0.10069130E+03</pdfrwt>
<totfact> 0.72567403E+04</totfact>
</mgrwt>
</event>
<event>
 7    1  0.3301067E-009  0.1004803E+03  0.7818608E-02  0.1279289E+00
         -1   -1    0    0    0  501 -0.00000000000E+00  0.00000000000E+00  0.19627190262E+02  0.19627190909E+02  0.50400000000E-02 0.  1.
          1   -1    0    0  501    0  0.00000000000E+00 -0.00000000000E+00 -0.12860074059E+03  0.12860074069E+03  0.50400000000E-02 0. -1.
         23    2    1    2    0    0  0.35527136788E-14  0.00000000000E+00 -0.10897355033E+03  0.14822793160E+03  0.10048027187E+03 0.  0.
    9000005    2    3    3    0    0  0.18221265437E+02  0.45958480938E+02 -0.62586760737E+02  0.80434637441E+02  0.10413058939E+02 0.  0.
         22    1    3    3    0    0 -0.18221265437E+02 -0.45958480938E+02 -0.46386789593E+02  0.67793294160E+02  0.00000000000E+00 0.  1.
         22    1    4    4    0    0  0.12941664371E+02  0.37076032197E+02 -0.42624721557E+02  0.57956757397E+02  0.00000000000E+00 0.  1.
         22    1    4    4    0    0  0.52796010667E+01  0.88824487408E+01 -0.19962039179E+02  0.22477880044E+02  0.00000000000E+00 0.  1.
<mgrwt>
<rscale>  0 0.10048027E+03</rscale>
<asrwt>0</asrwt>
<pdfrwt beam="2">  1        1 0.19784729E-01 0.10048027E+03</pdfrwt>
<pdfrwt beam="1">  1       -1 0.30195679E-02 0.10048027E+03</pdfrwt>
<totfact> 0.83686319E+04</totfact>
</mgrwt>
</event>
<event>
 7    1  0.3301067E-009  0.9221726E+02  0.7818608E-02  0.1297569E+00
          1   -1    0    0  501    0  0.00000000000E+00  0.00000000000E+00  0.45278498989E+02  0.45278499269E+02  0.50400000000E-02 0. -1.
         -1   -1    0    0    0  501 -0.00000000000E+00 -0.00000000000E+00 -0.46953983309E+02  0.46953983579E+02  0.50400000000E-02 0.  1.
         23    2    1    2    0    0  0.00000000000E+00 -0.35527136788E-14 -0.16754843200E+01  0.92232482848E+02  0.92217263268E+02 0.  0.
    9000005    2    3    3    0    0 -0.32112547018E+02  0.26367735939E+02 -0.17858272186E+02  0.47641499481E+02  0.14977363346E+02 0.  0.
         22    1    3    3    0    0  0.32112547018E+02 -0.26367735939E+02  0.16182787866E+02  0.44590983367E+02  0.00000000000E+00 0. -1.
         22    1    4    4    0    0  0.44768856215E+00  0.53439396814E+01 -0.14636478531E+01  0.55588111504E+01  0.00000000000E+00 0. -1.
         22    1    4    4    0    0 -0.32560235580E+02  0.21023796257E+02 -0.16394624333E+02  0.42082688331E+02  0.00000000000E+00 0. -1.
<mgrwt>
<rscale>  0 0.92217263E+02</rscale>
<asrwt>0</asrwt>
<pdfrwt beam="1">  1        1 0.69659229E-02 0.92217263E+02</pdfrwt>
<pdfrwt beam="2">  1       -1 0.72236898E-02 0.92217263E+02</pdfrwt>
<totfact> 0.89475376E+04</totfact>
</mgrwt>
</event>
<event>
 7    1  0.3301067E-009  0.9201033E+02  0.7818608E-02  0.1298055E+00
         -1   -1    0    0    0  501 -0.00000000000E+00  0.00000000000E+00  0.41646127856E+01  0.41646158353E+01  0.50400000000E-02 0.  1.
          1   -1    0    0  501    0  0.00000000000E+00 -0.00000000000E+00 -0.50820437832E+03  0.50820437835E+03  0.50400000000E-02 0. -1.
         23    2    1    2    0    0  0.00000000000E+00  0.00000000000E+00 -0.50403976554E+03  0.51236899418E+03  0.92010330710E+02 0.  0.
    9000005    2    3    3    0    0 -0.32109722310E+02  0.13419940385E+02 -0.41728521004E+03  0.41889449517E+03  0.11598383362E+02 0.  0.
         22    1    3    3    0    0  0.32109722310E+02 -0.13419940385E+02 -0.86754555498E+02  0.93474499017E+02  0.00000000000E+00 0.  1.
         22    1    4    4    0    0 -0.22318220837E+02  0.13903445488E+02 -0.33422383242E+03  0.33525658671E+03  0.00000000000E+00 0. -1.
         22    1    4    4    0    0 -0.97915014724E+01 -0.48350510330E+00 -0.83061377620E+02  0.83637908453E+02  0.00000000000E+00 0. -1.
<mgrwt>
<rscale>  0 0.92010331E+02</rscale>
<asrwt>0</asrwt>
<pdfrwt beam="2">  1        1 0.78185240E-01 0.92010331E+02</pdfrwt>
<pdfrwt beam="1">  1       -1 0.64071030E-03 0.92010331E+02</pdfrwt>
<totfact> 0.13620134E+05</totfact>
</mgrwt>
</event>
<event>
 7    1  0.4368495E-009  0.9136915E+02  0.7818608E-02  0.1299570E+00
          1   -1    0    0  501    0  0.00000000000E+00  0.00000000000E+00  0.10861278949E+03  0.10861278961E+03  0.50400000000E-02 0. -1.
         -1   -1    0    0    0  501 -0.00000000000E+00 -0.00000000000E+00 -0.19215788746E+02  0.19215789407E+02  0.50400000000E-02 0.  1.
         23    2    1    2    0    0  0.00000000000E+00  0.00000000000E+00  0.89397000747E+02  0.12782857902E+03  0.91369151637E+02 0.  0.
    9000005    2    3    3    0    0 -0.37587304048E+02  0.17771364072E+02  0.22593674377E+02  0.49143693425E+02  0.13266562291E+02 0.  0.
         22    1    3    3    0    0  0.37587304048E+02 -0.17771364072E+02  0.66803326370E+02  0.78684885592E+02  0.00000000000E+00 0. -1.
         22    1    4    4    0    0 -0.75492017172E+01  0.10015604363E+02  0.52013510685E+01  0.13577806534E+02  0.00000000000E+00 0.  1.
         22    1    4    4    0    0 -0.30038102330E+02  0.77557597085E+01  0.17392323308E+02  0.35565886891E+02  0.00000000000E+00 0.  1.
<mgrwt>
<rscale>  0 0.91369152E+02</rscale>
<asrwt>0</asrwt>
<pdfrwt beam="1">  1        1 0.16709660E-01 0.91369152E+02</pdfrwt>
<pdfrwt beam="2">  1       -1 0.29562752E-02 0.91369152E+02</pdfrwt>
<totfact> 0.10530535E+05</totfact>
</mgrwt>
</event>
<event>
 7    1  0.3301067E-009  0.9357161E+02  0.7818608E-02  0.1294426E+00
          1   -1    0    0  501    0  0.00000000000E+00  0.00000000000E+00  0.33176533040E+02  0.33176533423E+02  0.50400000000E-02 0. -1.
         -1   -1    0    0    0  501 -0.00000000000E+00 -0.00000000000E+00 -0.65977709938E+02  0.65977710131E+02  0.50400000000E-02 0.  1.
         23    2    1    2    0    0  0.22204460493E-15  0.00000000000E+00 -0.32801176898E+02  0.99154243554E+02  0.93571613264E+02 0.  0.
    9000005    2    3    3    0    0 -0.13875087863E+01 -0.21833293763E+02 -0.59584943083E+02  0.64571183709E+02  0.11851347023E+02 0.  0.
         22    1    3    3    0    0  0.13875087863E+01  0.21833293763E+02  0.26783766185E+02  0.34583059845E+02  0.00000000000E+00 0. -1.
         22    1    4    4    0    0  0.52119559601E+01 -0.11190275717E+02 -0.28511045389E+02  0.31068737739E+02  0.00000000000E+00 0. -1.
         22    1    4    4    0    0 -0.65994647464E+01 -0.10643018045E+02 -0.31073897694E+02  0.33502445970E+02  0.00000000000E+00 0. -1.
<mgrwt>
<rscale>  0 0.93571613E+02</rscale>
<asrwt>0</asrwt>
<pdfrwt beam="1">  1        1 0.51040821E-02 0.93571613E+02</pdfrwt>
<pdfrwt beam="2">  1       -1 0.10150417E-01 0.93571613E+02</pdfrwt>
<totfact> 0.81782081E+04</totfact>
</mgrwt>
</event>
<event>
 7    1  0.3301067E-009  0.8999984E+02  0.7818608E-02  0.1302852E+00
         -1   -1    0    0    0  501 -0.00000000000E+00  0.00000000000E+00  0.75925037667E+01  0.75925054395E+01  0.50400000000E-02 0.  1.
          1   -1    0    0  501    0  0.00000000000E+00 -0.00000000000E+00 -0.26670948456E+03  0.26670948461E+03  0.50400000000E-02 0. -1.
         23    2    1    2    0    0  0.00000000000E+00  0.00000000000E+00 -0.25911698080E+03  0.27430199005E+03  0.89999844492E+02 0.  0.
    9000005    2    3    3    0    0  0.18030347286E+02  0.22982868277E+02 -0.23362500223E+03  0.23553155507E+03  0.64160820271E+01 0.  0.
         22    1    3    3    0    0 -0.18030347286E+02 -0.22982868277E+02 -0.25491978569E+02  0.38770434984E+02  0.00000000000E+00 0.  1.
         22    1    4    4    0    0  0.64113771592E+01  0.10515922302E+02 -0.76504079738E+02  0.77489125660E+02  0.00000000000E+00 0. -1.
         22    1    4    4    0    0  0.11618970127E+02  0.12466945975E+02 -0.15712092249E+03  0.15804242941E+03  0.00000000000E+00 0. -1.
<mgrwt>
<rscale>  0 0.89999844E+02</rscale>
<asrwt>0</asrwt>
<pdfrwt beam="2">  1        1 0.41032221E-01 0.89999844E+02</pdfrwt>
<pdfrwt beam="1">  1       -1 0.11680778E-02 0.89999844E+02</pdfrwt>
<totfact> 0.12965610E+05</totfact>
</mgrwt>
</event>
<event>
 7    1  0.3301067E-009  0.1143356E+03  0.7818608E-02  0.1252745E+00
          1   -1    0    0  501    0  0.00000000000E+00  0.00000000000E+00  0.84663031307E+02  0.84663031457E+02  0.50400000000E-02 0.  1.
         -1   -1    0    0    0  501 -0.00000000000E+00 -0.00000000000E+00 -0.38601974004E+02  0.38601974333E+02  0.50400000000E-02 0. -1.
         23    2    1    2    0    0  0.00000000000E+00  0.00000000000E+00  0.46061057303E+02  0.12326500579E+03  0.11433564909E+03 0.  0.
    9000005    2    3    3    0    0  0.26188530289E+02 -0.50645631466E+02  0.22100753429E+02  0.61419106435E+02  0.57484109055E+01 0.  0.
         22    1    3    3    0    0 -0.26188530289E+02  0.50645631466E+02  0.23960303874E+02  0.61845899355E+02  0.00000000000E+00 0. -1.
         22    1    4    4    0    0  0.18933098663E+02 -0.33568625641E+02  0.12423481595E+02  0.40492687579E+02  0.00000000000E+00 0.  1.
         22    1    4    4    0    0  0.72554316261E+01 -0.17077005824E+02  0.96772718339E+01  0.20926418856E+02  0.00000000000E+00 0.  1.
<mgrwt>
<rscale>  0 0.11433565E+03</rscale>
<asrwt>0</asrwt>
<pdfrwt beam="1">  1        1 0.13025082E-01 0.11433565E+03</pdfrwt>
<pdfrwt beam="2">  1       -1 0.59387652E-02 0.11433565E+03</pdfrwt>
<totfact> 0.54116610E+04</totfact>
</mgrwt>
</event>
<event>
 7    1  0.3301067E-009  0.9940821E+02  0.7818608E-02  0.1281545E+00
          1   -1    0    0  501    0  0.00000000000E+00  0.00000000000E+00  0.38665768467E+02  0.38665768796E+02  0.50400000000E-02 0. -1.
         -1   -1    0    0    0  501 -0.00000000000E+00 -0.00000000000E+00 -0.63893668808E+02  0.63893669007E+02  0.50400000000E-02 0.  1.
         23    2    1    2    0    0  0.00000000000E+00  0.00000000000E+00 -0.25227900341E+02  0.10255943780E+03  0.99408205530E+02 0.  0.
    9000005    2    3    3    0    0  0.45860610809E+02  0.10783641198E+02 -0.28218130282E+02  0.55353251594E+02  0.69452893485E+01 0.  0.
         22    1    3    3    0    0 -0.45860610809E+02 -0.10783641198E+02  0.29902299407E+01  0.47206186209E+02  0.00000000000E+00 0. -1.
         22    1    4    4    0    0  0.37578326226E+02  0.11522884070E+02 -0.23323784847E+02  0.45704555559E+02  0.00000000000E+00 0. -1.
         22    1    4    4    0    0  0.82822845831E+01 -0.73924287220E+00 -0.48943454350E+01  0.96486960351E+01  0.00000000000E+00 0. -1.
<mgrwt>
<rscale>  0 0.99408206E+02</rscale>
<asrwt>0</asrwt>
<pdfrwt beam="1">  1        1 0.59485798E-02 0.99408206E+02</pdfrwt>
<pdfrwt beam="2">  1       -1 0.98297953E-02 0.99408206E+02</pdfrwt>
<totfact> 0.70479999E+04</totfact>
</mgrwt>
</event>
<event>
 7    1  0.3301067E-009  0.8838588E+02  0.7818608E-02  0.1306808E+00
          1   -1    0    0  501    0  0.00000000000E+00  0.00000000000E+00  0.57917598427E+01  0.57917620356E+01  0.50400000000E-02 0. -1.
         -1   -1    0    0    0  501 -0.00000000000E+00 -0.00000000000E+00 -0.33720588807E+03  0.33720588811E+03  0.50400000000E-02 0.  1.
         23    2    1    2    0    0 -0.71054273576E-14  0.00000000000E+00 -0.33141412823E+03  0.34299765014E+03  0.88385879048E+02 0.  0.
    9000005    2    3    3    0    0  0.38185475557E+02 -0.16479869534E+02 -0.21094929629E+03  0.21555553632E+03  0.15325370707E+02 0.  0.
         22    1    3    3    0    0 -0.38185475557E+02  0.16479869534E+02 -0.12046483193E+03  0.12744211383E+03  0.00000000000E+00 0. -1.
         22    1    4    4    0    0  0.26406523641E+02 -0.97956392153E+01 -0.17264863486E+03  0.17493087251E+03  0.00000000000E+00 0. -1.
         22    1    4    4    0    0  0.11778951916E+02 -0.66842303185E+01 -0.38300661431E+02  0.40624663805E+02  0.00000000000E+00 0. -1.
<mgrwt>
<rscale>  0 0.88385879E+02</rscale>
<asrwt>0</asrwt>
<pdfrwt beam="1">  1        1 0.89104041E-03 0.88385879E+02</pdfrwt>
<pdfrwt beam="2">  1       -1 0.51877814E-01 0.88385879E+02</pdfrwt>
<totfact> 0.62612577E+04</totfact>
</mgrwt>
</event>
<event>
 7    1  0.3301067E-009  0.9086545E+02  0.7818608E-02  0.1300769E+00
          1   -1    0    0  501    0  0.00000000000E+00  0.00000000000E+00  0.19425941141E+03  0.19425941148E+03  0.50400000000E-02 0. -1.
         -1   -1    0    0    0  501 -0.00000000000E+00 -0.00000000000E+00 -0.10625649014E+02  0.10625650210E+02  0.50400000000E-02 0.  1.
         23    2    1    2    0    0  0.00000000000E+00  0.00000000000E+00  0.18363376240E+03  0.20488506169E+03  0.90865448936E+02 0.  0.
    9000005    2    3    3    0    0  0.13017222741E+02  0.28980048932E+02  0.25213602456E+02  0.43310811264E+02  0.15192409273E+02 0.  0.
         22    1    3    3    0    0 -0.13017222741E+02 -0.28980048932E+02  0.15842015994E+03  0.16157425043E+03  0.00000000000E+00 0. -1.
         22    1    4    4    0    0  0.83738365862E+01  0.10900020159E+02  0.26015656812E+01  0.13989271698E+02  0.00000000000E+00 0. -1.
         22    1    4    4    0    0  0.46433861547E+01  0.18080028773E+02  0.22612036775E+02  0.29321539566E+02  0.00000000000E+00 0. -1.
<mgrwt>
<rscale>  0 0.90865449E+02</rscale>
<asrwt>0</asrwt>
<pdfrwt beam="1">  1        1 0.29886060E-01 0.90865449E+02</pdfrwt>
<pdfrwt beam="2">  1       -1 0.16347155E-02 0.90865449E+02</pdfrwt>
<totfact> 0.11882570E+05</totfact>
</mgrwt>
</event>
<event>
 7    1  0.3301067E-009  0.8635047E+02  0.7818608E-02  0.1311938E+00
          1   -1    0    0  501    0  0.00000000000E+00  0.00000000000E+00  0.27814901241E+03  0.27814901245E+03  0.50400000000E-02 0. -1.
         -1   -1    0    0    0  501 -0.00000000000E+00 -0.00000000000E+00 -0.67018051321E+01  0.67018070272E+01  0.50400000000E-02 0.  1.
         23    2    1    2    0    0 -0.35527136788E-14 -0.35527136788E-14  0.27144720727E+03  0.28485081948E+03  0.86350466247E+02 0.  0.
    9000005    2    3    3    0    0  0.27846622574E+02  0.21206149853E+02  0.21834988186E+03  0.22125474140E+03  0.72010072553E+01 0.  0.
         22    1    3    3    0    0 -0.27846622574E+02 -0.21206149853E+02  0.53097325418E+02  0.63596078078E+02  0.00000000000E+00 0.  1.
         22    1    4    4    0    0  0.26379669714E+02  0.17860053535E+02  0.20240117574E+03  0.20489290966E+03  0.00000000000E+00 0. -1.
         22    1    4    4    0    0  0.14669528603E+01  0.33460963184E+01  0.15948706115E+02  0.16361831744E+02  0.00000000000E+00 0. -1.
<mgrwt>
<rscale>  0 0.86350466E+02</rscale>
<asrwt>0</asrwt>
<pdfrwt beam="1">  1        1 0.42792152E-01 0.86350466E+02</pdfrwt>
<pdfrwt beam="2">  1       -1 0.10310472E-02 0.86350466E+02</pdfrwt>
<totfact> 0.14591238E+05</totfact>
</mgrwt>
</event>
<event>
 7    1  0.3882712E-009  0.9163017E+02  0.7818608E-02  0.1298951E+00
          1   -1    0    0  501    0  0.00000000000E+00  0.00000000000E+00  0.10116023431E+04  0.10116023431E+04  0.50400000000E-02 0. -1.
         -1   -1    0    0    0  501 -0.00000000000E+00 -0.00000000000E+00 -0.20749446834E+01  0.20749508044E+01  0.50400000000E-02 0.  1.
         23    2    1    2    0    0  0.35527136788E-14  0.17763568394E-14  0.10095273984E+04  0.10136772939E+04  0.91630169972E+02 0.  0.
    9000005    2    3    3    0    0 -0.28383102457E+02 -0.12131959583E+02  0.87357314621E+03  0.87426300612E+03  0.15905255280E+02 0.  0.
         22    1    3    3    0    0  0.28383102457E+02  0.12131959583E+02  0.13595425221E+03  0.13941428780E+03  0.00000000000E+00 0. -1.
         22    1    4    4    0    0 -0.32960347582E+01 -0.88041073012E+01  0.22486313315E+03  0.22505955834E+03  0.00000000000E+00 0. -1.
         22    1    4    4    0    0 -0.25087067699E+02 -0.33278522819E+01  0.64871001305E+03  0.64920344777E+03  0.00000000000E+00 0. -1.
<mgrwt>
<rscale>  0 0.91630170E+02</rscale>
<asrwt>0</asrwt>
<pdfrwt beam="1">  1        1 0.15563086E+00 0.91630170E+02</pdfrwt>
<pdfrwt beam="2">  1       -1 0.31922328E-03 0.91630170E+02</pdfrwt>
<totfact> 0.13382370E+05</totfact>
</mgrwt>
</event>
<event>
 7    1  0.3301067E-009  0.9076763E+02  0.7818608E-02  0.1301003E+00
         -1   -1    0    0    0  501 -0.00000000000E+00  0.00000000000E+00  0.73299420605E+01  0.73299437932E+01  0.50400000000E-02 0.  1.
          1   -1    0    0  501    0  0.00000000000E+00 -0.00000000000E+00 -0.28099682837E+03  0.28099682842E+03  0.50400000000E-02 0. -1.
         23    2    1    2    0    0 -0.35527136788E-14  0.35527136788E-14 -0.27366688631E+03  0.28832677221E+03  0.90767631399E+02 0.  0.
    9000005    2    3    3    0    0 -0.29379395850E+02  0.28268276702E+02 -0.19736750587E+03  0.20181758296E+03  0.10684570754E+02 0.  0.
         22    1    3    3    0    0  0.29379395850E+02 -0.28268276702E+02 -0.76299380444E+02  0.86509189248E+02  0.00000000000E+00 0.  1.
         22    1    4    4    0    0 -0.29189550496E+02  0.26847110068E+02 -0.19539492430E+03  0.19937896985E+03  0.00000000000E+00 0.  1.
         22    1    4    4    0    0 -0.18984535433E+00  0.14211666335E+01 -0.19725815661E+01  0.24386131087E+01  0.00000000000E+00 0.  1.
<mgrwt>
<rscale>  0 0.90767631E+02</rscale>
<asrwt>0</asrwt>
<pdfrwt beam="2">  1        1 0.43230273E-01 0.90767631E+02</pdfrwt>
<pdfrwt beam="1">  1       -1 0.11276838E-02 0.90767631E+02</pdfrwt>
<totfact> 0.12804642E+05</totfact>
</mgrwt>
</event>
<event>
 7    1  0.3301067E-009  0.8608213E+02  0.7818608E-02  0.1312627E+00
          1   -1    0    0  501    0  0.00000000000E+00  0.00000000000E+00  0.89182407958E+03  0.89182407960E+03  0.50400000000E-02 0. -1.
         -1   -1    0    0    0  501 -0.00000000000E+00 -0.00000000000E+00 -0.20772374731E+01  0.20772435874E+01  0.50400000000E-02 0.  1.
         23    2    1    2    0    0  0.00000000000E+00  0.00000000000E+00  0.88974684211E+03  0.89390132318E+03  0.86082126756E+02 0.  0.
    9000005    2    3    3    0    0 -0.44590683638E+01 -0.21735157627E+02  0.82691839610E+03  0.82727014433E+03  0.94634835560E+01 0.  0.
         22    1    3    3    0    0  0.44590683638E+01  0.21735157627E+02  0.62828446008E+02  0.66631178854E+02  0.00000000000E+00 0.  1.
         22    1    4    4    0    0 -0.11332843899E+01 -0.83095389999E-02  0.13062050065E+03  0.13062541710E+03  0.00000000000E+00 0.  1.
         22    1    4    4    0    0 -0.33257839739E+01 -0.21726848088E+02  0.69629789545E+03  0.69664472723E+03  0.00000000000E+00 0.  1.
<mgrwt>
<rscale>  0 0.86082127E+02</rscale>
<asrwt>0</asrwt>
<pdfrwt beam="1">  1        1 0.13720429E+00 0.86082127E+02</pdfrwt>
<pdfrwt beam="2">  1       -1 0.31957410E-03 0.86082127E+02</pdfrwt>
<totfact> 0.16220576E+05</totfact>
</mgrwt>
</event>
<event>
 7    1  0.3301067E-009  0.8961367E+02  0.7818608E-02  0.1303790E+00
          1   -1    0    0  501    0  0.00000000000E+00  0.00000000000E+00  0.21104894652E+02  0.21104895253E+02  0.50400000000E-02 0. -1.
         -1   -1    0    0    0  501 -0.00000000000E+00 -0.00000000000E+00 -0.95127342516E+02  0.95127342650E+02  0.50400000000E-02 0.  1.
         23    2    1    2    0    0  0.00000000000E+00  0.00000000000E+00 -0.74022447865E+02  0.11623223790E+03  0.89613672730E+02 0.  0.
    9000005    2    3    3    0    0 -0.86915869711E+01  0.41612404205E+02 -0.22488773276E+02  0.49427631143E+02  0.11410956542E+02 0.  0.
         22    1    3    3    0    0  0.86915869711E+01 -0.41612404205E+02 -0.51533674589E+02  0.66804606760E+02  0.00000000000E+00 0.  1.
         22    1    4    4    0    0 -0.79365103799E+01  0.15757936874E+02 -0.12839284759E+02  0.21820815857E+02  0.00000000000E+00 0.  1.
         22    1    4    4    0    0 -0.75507659116E+00  0.25854467331E+02 -0.96494885169E+01  0.27606815286E+02  0.00000000000E+00 0.  1.
<mgrwt>
<rscale>  0 0.89613673E+02</rscale>
<asrwt>0</asrwt>
<pdfrwt beam="1">  1        1 0.32469070E-02 0.89613673E+02</pdfrwt>
<pdfrwt beam="2">  1       -1 0.14634976E-01 0.89613673E+02</pdfrwt>
<totfact> 0.85851985E+04</totfact>
</mgrwt>
</event>
<event>
 7    1  0.3301067E-009  0.9212024E+02  0.7818608E-02  0.1297797E+00
         -1   -1    0    0    0  501 -0.00000000000E+00  0.00000000000E+00  0.13192810574E+02  0.13192811537E+02  0.50400000000E-02 0.  1.
          1   -1    0    0  501    0  0.00000000000E+00 -0.00000000000E+00 -0.16080990714E+03  0.16080990722E+03  0.50400000000E-02 0. -1.
         23    2    1    2    0    0  0.00000000000E+00 -0.44408920985E-15 -0.14761709657E+03  0.17400271876E+03  0.92120241726E+02 0.  0.
    9000005    2    3    3    0    0  0.25313744660E+02 -0.27813460277E+01 -0.17169985667E+01  0.25896810194E+02  0.43789427673E+01 0.  0.
         22    1    3    3    0    0 -0.25313744660E+02  0.27813460277E+01 -0.14590009800E+03  0.14810590856E+03  0.00000000000E+00 0. -1.
         22    1    4    4    0    0  0.17836076210E+02 -0.55914488620E+00  0.26988028573E+00  0.17846879081E+02  0.00000000000E+00 0. -1.
         22    1    4    4    0    0  0.74776684498E+01 -0.22222011415E+01 -0.19868788524E+01  0.80499311136E+01  0.00000000000E+00 0. -1.
<mgrwt>
<rscale>  0 0.92120242E+02</rscale>
<asrwt>0</asrwt>
<pdfrwt beam="2">  1        1 0.24739984E-01 0.92120242E+02</pdfrwt>
<pdfrwt beam="1">  1       -1 0.20296634E-02 0.92120242E+02</pdfrwt>
<totfact> 0.11047639E+05</totfact>
</mgrwt>
</event>
<event>
 7    1  0.3301067E-009  0.9210326E+02  0.7818608E-02  0.1297837E+00
         -1   -1    0    0    0  501 -0.00000000000E+00  0.00000000000E+00  0.36748105860E+02  0.36748106206E+02  0.50400000000E-02 0.  1.
          1   -1    0    0  501    0  0.00000000000E+00 -0.00000000000E+00 -0.57710532526E+02  0.57710532747E+02  0.50400000000E-02 0. -1.
         23    2    1    2    0    0  0.00000000000E+00 -0.71054273576E-14 -0.20962426666E+02  0.94458638952E+02  0.92103263465E+02 0.  0.
    9000005    2    3    3    0    0  0.27694525574E+02  0.36256474814E+02 -0.72892931439E+01  0.46830146503E+02  0.76426509999E+01 0.  0.
         22    1    3    3    0    0 -0.27694525574E+02 -0.36256474814E+02 -0.13673133523E+02  0.47628492449E+02  0.00000000000E+00 0. -1.
         22    1    4    4    0    0  0.17832510200E+02  0.23404547207E+02 -0.83790905301E+01  0.30593796889E+02  0.00000000000E+00 0.  1.
         22    1    4    4    0    0  0.98620153736E+01  0.12851927607E+02  0.10897973862E+01  0.16236349614E+02  0.00000000000E+00 0.  1.
<mgrwt>
<rscale>  0 0.92103263E+02</rscale>
<asrwt>0</asrwt>
<pdfrwt beam="2">  1        1 0.88785435E-02 0.92103263E+02</pdfrwt>
<pdfrwt beam="1">  1       -1 0.56535548E-02 0.92103263E+02</pdfrwt>
<totfact> 0.93148635E+04</totfact>
</mgrwt>
</event>
<event>
 7    1  0.3301067E-009  0.9981762E+02  0.7818608E-02  0.1280680E+00
         -1   -1    0    0    0  501 -0.00000000000E+00  0.00000000000E+00  0.18032377622E+02  0.18032378326E+02  0.50400000000E-02 0.  1.
          1   -1    0    0  501    0  0.00000000000E+00 -0.00000000000E+00 -0.13813426842E+03  0.13813426851E+03  0.50400000000E-02 0. -1.
         23    2    1    2    0    0 -0.71054273576E-14  0.35527136788E-14 -0.12010189080E+03  0.15616664684E+03  0.99817620746E+02 0.  0.
    9000005    2    3    3    0    0 -0.41889991207E+02 -0.19513512473E+02 -0.87732932219E+02  0.99745923590E+02  0.10799691878E+02 0.  0.
         22    1    3    3    0    0  0.41889991207E+02  0.19513512473E+02 -0.32368958578E+02  0.56420723248E+02  0.00000000000E+00 0.  1.
         22    1    4    4    0    0 -0.41806943120E+02 -0.17380695729E+02 -0.84627133756E+02  0.95977397573E+02  0.00000000000E+00 0. -1.
         22    1    4    4    0    0 -0.83048087041E-01 -0.21328167439E+01 -0.31057984626E+01  0.37685260167E+01  0.00000000000E+00 0. -1.
<mgrwt>
<rscale>  0 0.99817621E+02</rscale>
<asrwt>0</asrwt>
<pdfrwt beam="2">  1        1 0.21251425E-01 0.99817621E+02</pdfrwt>
<pdfrwt beam="1">  1       -1 0.27742121E-02 0.99817621E+02</pdfrwt>
<totfact> 0.86354032E+04</totfact>
</mgrwt>
</event>
<event>
 6    1  0.3301067E-009  0.1602326E+03  0.7818608E-02  0.1188434E+00
         -1   -1    0    0    0  501 -0.00000000000E+00  0.00000000000E+00  0.37862663416E+02  0.37862663752E+02  0.50400000000E-02 0.  1.
          1   -1    0    0  501    0  0.00000000000E+00 -0.00000000000E+00 -0.16952376245E+03  0.16952376253E+03  0.50400000000E-02 0. -1.
    9000005    2    1    2    0    0  0.79233629437E+02  0.43823884707E+01 -0.78718735240E+02  0.11199215367E+03  0.69591553674E+01 0.  0.
         22    1    1    2    0    0 -0.79233629437E+02 -0.43823884707E+01 -0.52942363799E+02  0.95394272611E+02  0.00000000000E+00 0. -1.
         22    1    3    3    0    0  0.73681708063E+02  0.23686306248E+01 -0.71997614723E+02  0.10304494670E+03  0.00000000000E+00 0. -1.
         22    1    3    3    0    0  0.55519213736E+01  0.20137578459E+01 -0.67211205163E+01  0.89472069717E+01  0.00000000000E+00 0. -1.
<mgrwt>
<rscale>  0 0.16023260E+03</rscale>
<asrwt>0</asrwt>
<pdfrwt beam="2">  1        1 0.26080579E-01 0.16023260E+03</pdfrwt>
<pdfrwt beam="1">  1       -1 0.58250253E-02 0.16023260E+03</pdfrwt>
<totfact> 0.23834508E+04</totfact>
</mgrwt>
</event>
<event>
 7    1  0.3301067E-009  0.9085786E+02  0.7818608E-02  0.1300787E+00
          1   -1    0    0  501    0  0.00000000000E+00  0.00000000000E+00  0.50938756059E+03  0.50938756062E+03  0.50400000000E-02 0. -1.
         -1   -1    0    0    0  501 -0.00000000000E+00 -0.00000000000E+00 -0.40515063947E+01  0.40515095296E+01  0.50400000000E-02 0.  1.
         23    2    1    2    0    0  0.00000000000E+00 -0.35527136788E-14  0.50533605420E+03  0.51343907015E+03  0.90857861967E+02 0.  0.
    9000005    2    3    3    0    0 -0.33498031018E+01  0.25739365741E+02  0.46286647817E+03  0.46366557301E+03  0.81639970732E+01 0.  0.
         22    1    3    3    0    0  0.33498031018E+01 -0.25739365741E+02  0.42469576022E+02  0.49773497135E+02  0.00000000000E+00 0.  1.
         22    1    4    4    0    0 -0.38341503952E+01  0.64629648671E+01  0.16913747905E+03  0.16930433380E+03  0.00000000000E+00 0.  1.
         22    1    4    4    0    0  0.48434729337E+00  0.19276400874E+02  0.29372899912E+03  0.29436123921E+03  0.00000000000E+00 0.  1.
<mgrwt>
<rscale>  0 0.90857862E+02</rscale>
<asrwt>0</asrwt>
<pdfrwt beam="1">  1        1 0.78367237E-01 0.90857862E+02</pdfrwt>
<pdfrwt beam="2">  1       -1 0.62330955E-03 0.90857862E+02</pdfrwt>
<totfact> 0.14086640E+05</totfact>
</mgrwt>
</event>
<event>
 7    1  0.3301067E-009  0.9165065E+02  0.7818608E-02  0.1298903E+00
          1   -1    0    0  501    0  0.00000000000E+00  0.00000000000E+00  0.30202560159E+03  0.30202560163E+03  0.50400000000E-02 0. -1.
         -1   -1    0    0    0  501 -0.00000000000E+00 -0.00000000000E+00 -0.69529202906E+01  0.69529221173E+01  0.50400000000E-02 0.  1.
         23    2    1    2    0    0  0.00000000000E+00  0.00000000000E+00  0.29507268130E+03  0.30897852375E+03  0.91650645874E+02 0.  0.
    9000005    2    3    3    0    0  0.57985392548E+01  0.12086744623E+02  0.29525065075E+03  0.29557165513E+03  0.31534255738E+01 0.  0.
         22    1    3    3    0    0 -0.57985392548E+01 -0.12086744623E+02 -0.17796945327E+00  0.13406868620E+02  0.00000000000E+00 0.  1.
         22    1    4    4    0    0  0.12836140017E+01  0.55424303542E+01  0.10349317275E+03  0.10364942356E+03  0.00000000000E+00 0. -1.
         22    1    4    4    0    0  0.45149252531E+01  0.65443142689E+01  0.19175747800E+03  0.19192223156E+03  0.00000000000E+00 0. -1.
<mgrwt>
<rscale>  0 0.91650646E+02</rscale>
<asrwt>0</asrwt>
<pdfrwt beam="1">  1        1 0.46465475E-01 0.91650646E+02</pdfrwt>
<pdfrwt beam="2">  1       -1 0.10696803E-02 0.91650646E+02</pdfrwt>
<totfact> 0.12652524E+05</totfact>
</mgrwt>
</event>
<event>
 7    1  0.3301067E-009  0.8950436E+02  0.7818608E-02  0.1304056E+00
          1   -1    0    0  501    0  0.00000000000E+00  0.00000000000E+00  0.48809698951E+02  0.48809699211E+02  0.50400000000E-02 0. -1.
         -1   -1    0    0    0  501 -0.00000000000E+00 -0.00000000000E+00 -0.41031956481E+02  0.41031956791E+02  0.50400000000E-02 0.  1.
         23    2    1    2    0    0  0.00000000000E+00  0.00000000000E+00  0.77777424701E+01  0.89841656002E+02  0.89504356739E+02 0.  0.
    9000005    2    3    3    0    0 -0.34891822412E+02 -0.26233372439E+02  0.10986051178E+02  0.46070405785E+02  0.98061138047E+01 0.  0.
         22    1    3    3    0    0  0.34891822412E+02  0.26233372439E+02 -0.32083087083E+01  0.43771250217E+02  0.00000000000E+00 0. -1.
         22    1    4    4    0    0 -0.30324468981E+02 -0.21251374072E+02  0.56480678567E+01  0.37457909571E+02  0.00000000000E+00 0.  1.
         22    1    4    4    0    0 -0.45673534312E+01 -0.49819983675E+01  0.53379833217E+01  0.86124962143E+01  0.00000000000E+00 0.  1.
<mgrwt>
<rscale>  0 0.89504357E+02</rscale>
<asrwt>0</asrwt>
<pdfrwt beam="1">  1        1 0.75091845E-02 0.89504357E+02</pdfrwt>
<pdfrwt beam="2">  1       -1 0.63126087E-02 0.89504357E+02</pdfrwt>
<totfact> 0.98381150E+04</totfact>
</mgrwt>
</event>
<event>
 7    1  0.3301067E-009  0.9067845E+02  0.7818608E-02  0.1301217E+00
          1   -1    0    0  501    0  0.00000000000E+00  0.00000000000E+00  0.14910472014E+03  0.14910472023E+03  0.50400000000E-02 0. -1.
         -1   -1    0    0    0  501 -0.00000000000E+00 -0.00000000000E+00 -0.13786587867E+02  0.13786588788E+02  0.50400000000E-02 0.  1.
         23    2    1    2    0    0  0.00000000000E+00  0.00000000000E+00  0.13531813227E+03  0.16289130901E+03  0.90678451851E+02 0.  0.
    9000005    2    3    3    0    0  0.26497455933E+02  0.25670492819E+02  0.11394052299E+03  0.12025222423E+03  0.10819670980E+02 0.  0.
         22    1    3    3    0    0 -0.26497455933E+02 -0.25670492819E+02  0.21377609280E+02  0.42639084782E+02  0.00000000000E+00 0.  1.
         22    1    4    4    0    0  0.15488089421E+02  0.14202236128E+02  0.80921929116E+02  0.83605879200E+02  0.00000000000E+00 0. -1.
         22    1    4    4    0    0  0.11009366512E+02  0.11468256691E+02  0.33018593878E+02  0.36646345032E+02  0.00000000000E+00 0. -1.
<mgrwt>
<rscale>  0 0.90678452E+02</rscale>
<asrwt>0</asrwt>
<pdfrwt beam="1">  1        1 0.22939188E-01 0.90678452E+02</pdfrwt>
<pdfrwt beam="2">  1       -1 0.21210135E-02 0.90678452E+02</pdfrwt>
<totfact> 0.11367708E+05</totfact>
</mgrwt>
</event>
<event>
 7    1  0.3301067E-009  0.9255491E+02  0.7818608E-02  0.1296780E+00
         -1   -1    0    0    0  501 -0.00000000000E+00  0.00000000000E+00  0.79406411567E+01  0.79406427562E+01  0.50400000000E-02 0.  1.
          1   -1    0    0  501    0  0.00000000000E+00 -0.00000000000E+00 -0.26970146161E+03  0.26970146165E+03  0.50400000000E-02 0. -1.
         23    2    1    2    0    0 -0.71054273576E-14  0.35527136788E-14 -0.26176082045E+03  0.27764210441E+03  0.92554908128E+02 0.  0.
    9000005    2    3    3    0    0  0.39719962761E+02 -0.23447652558E+02 -0.11990424563E+03  0.12847523251E+03  0.11787266929E+01 0.  0.
         22    1    3    3    0    0 -0.39719962761E+02  0.23447652558E+02 -0.14185657482E+03  0.14916687190E+03  0.00000000000E+00 0. -1.
         22    1    4    4    0    0  0.24695717217E+02 -0.14897120360E+02 -0.76354238955E+02  0.81619681758E+02  0.00000000000E+00 0. -1.
         22    1    4    4    0    0  0.15024245544E+02 -0.85505321972E+01 -0.43550006671E+02  0.46855550750E+02  0.00000000000E+00 0. -1.
<mgrwt>
<rscale>  0 0.92554908E+02</rscale>
<asrwt>0</asrwt>
<pdfrwt beam="2">  1        1 0.41492526E-01 0.92554908E+02</pdfrwt>
<pdfrwt beam="1">  1       -1 0.12216374E-02 0.92554908E+02</pdfrwt>
<totfact> 0.12058311E+05</totfact>
</mgrwt>
</event>
<event>
 7    1  0.3301067E-009  0.8429360E+02  0.7818608E-02  0.1317290E+00
         -1   -1    0    0    0  501 -0.00000000000E+00  0.00000000000E+00  0.11819880421E+02  0.11819881495E+02  0.50400000000E-02 0.  1.
          1   -1    0    0  501    0  0.00000000000E+00 -0.00000000000E+00 -0.15028516747E+03  0.15028516755E+03  0.50400000000E-02 0. -1.
         23    2    1    2    0    0 -0.17763568394E-14 -0.71054273576E-14 -0.13846528705E+03  0.16210504905E+03  0.84293601238E+02 0.  0.
    9000005    2    3    3    0    0 -0.14400874468E+02 -0.38794930491E+02 -0.83990498821E+02  0.93695003225E+02  0.34522340233E+01 0.  0.
         22    1    3    3    0    0  0.14400874468E+02  0.38794930491E+02 -0.54474788225E+02  0.68410045822E+02  0.00000000000E+00 0.  1.
         22    1    4    4    0    0 -0.84400768521E+01 -0.27188589511E+02 -0.58506421387E+02  0.65065010877E+02  0.00000000000E+00 0.  1.
         22    1    4    4    0    0 -0.59607976161E+01 -0.11606340980E+02 -0.25484077434E+02  0.28629992348E+02  0.00000000000E+00 0.  1.
<mgrwt>
<rscale>  0 0.84293601E+02</rscale>
<asrwt>0</asrwt>
<pdfrwt beam="2">  1        1 0.23120794E-01 0.84293601E+02</pdfrwt>
<pdfrwt beam="1">  1       -1 0.18184433E-02 0.84293601E+02</pdfrwt>
<totfact> 0.13847174E+05</totfact>
</mgrwt>
</event>
<event>
 7    1  0.3301067E-009  0.1175196E+03  0.7818608E-02  0.1247246E+00
          1   -1    0    0  501    0  0.00000000000E+00  0.00000000000E+00  0.74069399714E+02  0.74069399886E+02  0.50400000000E-02 0. -1.
         -1   -1    0    0    0  501 -0.00000000000E+00 -0.00000000000E+00 -0.46614607678E+02  0.46614607951E+02  0.50400000000E-02 0.  1.
         23    2    1    2    0    0  0.00000000000E+00  0.17763568394E-14  0.27454792036E+02  0.12068400784E+03  0.11751963301E+03 0.  0.
    9000005    2    3    3    0    0  0.25240730181E+02 -0.15366014610E+02  0.64881094318E+02  0.72998192674E+02  0.15683458442E+02 0.  0.
         22    1    3    3    0    0 -0.25240730181E+02  0.15366014610E+02 -0.37426302283E+02  0.47685815162E+02  0.00000000000E+00 0.  1.
         22    1    4    4    0    0  0.11322164436E+02 -0.13792851594E+02  0.47070111546E+02  0.50339145439E+02  0.00000000000E+00 0. -1.
         22    1    4    4    0    0  0.13918565745E+02 -0.15731630162E+01  0.17810982772E+02  0.22659047235E+02  0.00000000000E+00 0. -1.
<mgrwt>
<rscale>  0 0.11751963E+03</rscale>
<asrwt>0</asrwt>
<pdfrwt beam="1">  1        1 0.11395292E-01 0.11751963E+03</pdfrwt>
<pdfrwt beam="2">  1       -1 0.71714783E-02 0.11751963E+03</pdfrwt>
<totfact> 0.48830744E+04</totfact>
</mgrwt>
</event>
<event>
 7    1  0.3301067E-009  0.9187837E+02  0.7818608E-02  0.1298366E+00
         -1   -1    0    0    0  501 -0.00000000000E+00  0.00000000000E+00  0.81282369858E+02  0.81282370014E+02  0.50400000000E-02 0.  1.
          1   -1    0    0  501    0  0.00000000000E+00 -0.00000000000E+00 -0.25963915262E+02  0.25963915751E+02  0.50400000000E-02 0. -1.
         23    2    1    2    0    0  0.00000000000E+00  0.71054273576E-14  0.55318454596E+02  0.10724628576E+03  0.91878367375E+02 0.  0.
    9000005    2    3    3    0    0 -0.21953333103E+01  0.39220039181E+02  0.53062232434E+02  0.67900110599E+02  0.15868003871E+02 0.  0.
         22    1    3    3    0    0  0.21953333103E+01 -0.39220039181E+02  0.22562221624E+01  0.39346175165E+02  0.00000000000E+00 0. -1.
         22    1    4    4    0    0 -0.59600383223E+00 -0.71998576528E+00 -0.50542203987E+00  0.10625683548E+01  0.00000000000E+00 0.  1.
         22    1    4    4    0    0 -0.15993294781E+01  0.39940024946E+02  0.53567654474E+02  0.66837542245E+02  0.00000000000E+00 0.  1.
<mgrwt>
<rscale>  0 0.91878367E+02</rscale>
<asrwt>0</asrwt>
<pdfrwt beam="2">  1        1 0.39944486E-02 0.91878367E+02</pdfrwt>
<pdfrwt beam="1">  1       -1 0.12504980E-01 0.91878367E+02</pdfrwt>
<totfact> 0.82779787E+04</totfact>
</mgrwt>
</event>
<event>
 7    1  0.3301067E-009  0.9252559E+02  0.7818608E-02  0.1296848E+00
          1   -1    0    0  501    0  0.00000000000E+00  0.00000000000E+00  0.35338190985E+03  0.35338190988E+03  0.50400000000E-02 0. -1.
         -1   -1    0    0    0  501 -0.00000000000E+00 -0.00000000000E+00 -0.60564672670E+01  0.60564693641E+01  0.50400000000E-02 0.  1.
         23    2    1    2    0    0  0.00000000000E+00  0.00000000000E+00  0.34732544258E+03  0.35943837925E+03  0.92525593283E+02 0.  0.
    9000005    2    3    3    0    0 -0.10063864410E+02  0.11477667537E+02  0.34329516212E+03  0.34365036545E+03  0.33146831765E+01 0.  0.
         22    1    3    3    0    0  0.10063864410E+02 -0.11477667537E+02  0.40302804643E+01  0.15788013795E+02  0.00000000000E+00 0.  1.
         22    1    4    4    0    0 -0.71088202907E+01  0.96211665796E+01  0.24261283366E+03  0.24290757343E+03  0.00000000000E+00 0. -1.
         22    1    4    4    0    0 -0.29550441195E+01  0.18565009574E+01  0.10068232846E+03  0.10074279202E+03  0.00000000000E+00 0. -1.
<mgrwt>
<rscale>  0 0.92525593E+02</rscale>
<asrwt>0</asrwt>
<pdfrwt beam="1">  1        1 0.54366456E-01 0.92525593E+02</pdfrwt>
<pdfrwt beam="2">  1       -1 0.93176422E-03 0.92525593E+02</pdfrwt>
<totfact> 0.12699535E+05</totfact>
</mgrwt>
</event>
<event>
 7    1  0.3301067E-009  0.9106914E+02  0.7818608E-02  0.1300283E+00
          1   -1    0    0  501    0  0.00000000000E+00  0.00000000000E+00  0.45299203390E+03  0.45299203393E+03  0.50400000000E-02 0. -1.
         -1   -1    0    0    0  501 -0.00000000000E+00 -0.00000000000E+00 -0.45771146344E+01  0.45771174093E+01  0.50400000000E-02 0.  1.
         23    2    1    2    0    0  0.00000000000E+00  0.00000000000E+00  0.44841491927E+03  0.45756915134E+03  0.91069140962E+02 0.  0.
    9000005    2    3    3    0    0  0.41050909091E+02 -0.10431173285E+02  0.30341061165E+03  0.30650547026E+03  0.96756149608E+01 0.  0.
         22    1    3    3    0    0 -0.41050909091E+02  0.10431173285E+02  0.14500430762E+03  0.15106368108E+03  0.00000000000E+00 0.  1.
         22    1    4    4    0    0  0.82173843900E+01 -0.34430381024E+01  0.41031842747E+02  0.41987998723E+02  0.00000000000E+00 0.  1.
         22    1    4    4    0    0  0.32833524701E+02 -0.69881351822E+01  0.26237876890E+03  0.26451747154E+03  0.00000000000E+00 0.  1.
<mgrwt>
<rscale>  0 0.91069141E+02</rscale>
<asrwt>0</asrwt>
<pdfrwt beam="1">  1        1 0.69691128E-01 0.91069141E+02</pdfrwt>
<pdfrwt beam="2">  1       -1 0.70417124E-03 0.91069141E+02</pdfrwt>
<totfact> 0.13791866E+05</totfact>
</mgrwt>
</event>
<event>
 7    1  0.3301067E-009  0.9209634E+02  0.7818608E-02  0.1297853E+00
          1   -1    0    0  501    0  0.00000000000E+00  0.00000000000E+00  0.83480299661E+02  0.83480299813E+02  0.50400000000E-02 0. -1.
         -1   -1    0    0    0  501 -0.00000000000E+00 -0.00000000000E+00 -0.25400411207E+02  0.25400411707E+02  0.50400000000E-02 0.  1.
         23    2    1    2    0    0  0.14210854715E-13 -0.88817841970E-15  0.58079888454E+02  0.10888071152E+03  0.92096340309E+02 0.  0.
    9000005    2    3    3    0    0  0.44701257358E+02 -0.60852825403E+01  0.28377436894E+02  0.54867114143E+02  0.13034117411E+02 0.  0.
         22    1    3    3    0    0 -0.44701257358E+02  0.60852825403E+01  0.29702451560E+02  0.54013597377E+02  0.00000000000E+00 0. -1.
         22    1    4    4    0    0  0.35063897414E+02  0.85555941165E+00  0.20762930400E+02  0.40759148207E+02  0.00000000000E+00 0.  1.
         22    1    4    4    0    0  0.96373599438E+01 -0.69408419520E+01  0.76145064945E+01  0.14107965936E+02  0.00000000000E+00 0.  1.
<mgrwt>
<rscale>  0 0.92096340E+02</rscale>
<asrwt>0</asrwt>
<pdfrwt beam="1">  1        1 0.12843123E-01 0.92096340E+02</pdfrwt>
<pdfrwt beam="2">  1       -1 0.39077557E-02 0.92096340E+02</pdfrwt>
<totfact> 0.98670522E+04</totfact>
</mgrwt>
</event>
<event>
 7    1  0.3301067E-009  0.9135197E+02  0.7818608E-02  0.1299610E+00
          1   -1    0    0  501    0  0.00000000000E+00  0.00000000000E+00  0.27119826481E+02  0.27119826949E+02  0.50400000000E-02 0. -1.
         -1   -1    0    0    0  501 -0.00000000000E+00 -0.00000000000E+00 -0.76928795922E+02  0.76928796087E+02  0.50400000000E-02 0.  1.
         23    2    1    2    0    0 -0.71054273576E-14  0.00000000000E+00 -0.49808969441E+02  0.10404862304E+03  0.91351970525E+02 0.  0.
    9000005    2    3    3    0    0  0.44108598001E+02  0.95506497797E+01 -0.31134042200E+02  0.55206671433E+02  0.64548166653E+01 0.  0.
         22    1    3    3    0    0 -0.44108598001E+02 -0.95506497797E+01 -0.18674927241E+02  0.48841951602E+02  0.00000000000E+00 0.  1.
         22    1    4    4    0    0  0.33224616051E+02  0.90583438234E+01 -0.21051079947E+02  0.40361821954E+02  0.00000000000E+00 0.  1.
         22    1    4    4    0    0  0.10883981950E+02  0.49230595634E+00 -0.10082962254E+02  0.14844849479E+02  0.00000000000E+00 0.  1.
<mgrwt>
<rscale>  0 0.91351971E+02</rscale>
<asrwt>0</asrwt>
<pdfrwt beam="1">  1        1 0.41722811E-02 0.91351971E+02</pdfrwt>
<pdfrwt beam="2">  1       -1 0.11835199E-01 0.91351971E+02</pdfrwt>
<totfact> 0.84791375E+04</totfact>
</mgrwt>
</event>
<event>
 7    1  0.3301067E-009  0.9718665E+02  0.7818608E-02  0.1286326E+00
         -1   -1    0    0    0  501 -0.00000000000E+00  0.00000000000E+00  0.59945304235E+02  0.59945304447E+02  0.50400000000E-02 0.  1.
          1   -1    0    0  501    0  0.00000000000E+00 -0.00000000000E+00 -0.39391091778E+02  0.39391092101E+02  0.50400000000E-02 0. -1.
         23    2    1    2    0    0  0.17763568394E-14  0.00000000000E+00  0.20554212457E+02  0.99336396547E+02  0.97186645324E+02 0.  0.
    9000005    2    3    3    0    0 -0.97446390408E+01  0.26853041123E+02 -0.28290763290E+02  0.42751279570E+02  0.14534813716E+02 0.  0.
         22    1    3    3    0    0  0.97446390408E+01 -0.26853041123E+02  0.48844975747E+02  0.56585116977E+02  0.00000000000E+00 0.  1.
         22    1    4    4    0    0  0.35002887092E+01  0.89279478009E+01 -0.10616492513E+02  0.14306298832E+02  0.00000000000E+00 0.  1.
         22    1    4    4    0    0 -0.13244927750E+02  0.17925093322E+02 -0.17674270777E+02  0.28444980739E+02  0.00000000000E+00 0.  1.
<mgrwt>
<rscale>  0 0.97186645E+02</rscale>
<asrwt>0</asrwt>
<pdfrwt beam="2">  1        1 0.60601680E-02 0.97186645E+02</pdfrwt>
<pdfrwt beam="1">  1       -1 0.92223545E-02 0.97186645E+02</pdfrwt>
<totfact> 0.75430194E+04</totfact>
</mgrwt>
</event>
<event>
 7    1  0.3472137E-009  0.9147239E+02  0.7818608E-02  0.1299325E+00
          1   -1    0    0  501    0  0.00000000000E+00  0.00000000000E+00  0.28000024186E+02  0.28000024640E+02  0.50400000000E-02 0. -1.
         -1   -1    0    0    0  501 -0.00000000000E+00 -0.00000000000E+00 -0.74707055979E+02  0.74707056149E+02  0.50400000000E-02 0.  1.
         23    2    1    2    0    0 -0.71054273576E-14  0.00000000000E+00 -0.46707031793E+02  0.10270708079E+03  0.91472387228E+02 0.  0.
    9000005    2    3    3    0    0 -0.43773105227E+02 -0.44509904898E+01 -0.32551602708E+02  0.56487255712E+02  0.13975233862E+02 0.  0.
         22    1    3    3    0    0  0.43773105227E+02  0.44509904898E+01 -0.14155429084E+02  0.46219825076E+02  0.00000000000E+00 0.  1.
         22    1    4    4    0    0 -0.39314500536E+02 -0.31781936518E+00 -0.31362228971E+02  0.50292348996E+02  0.00000000000E+00 0. -1.
         22    1    4    4    0    0 -0.44586046906E+01 -0.41331711246E+01 -0.11893737375E+01  0.61949067160E+01  0.00000000000E+00 0. -1.
<mgrwt>
<rscale>  0 0.91472387E+02</rscale>
<asrwt>0</asrwt>
<pdfrwt beam="1">  1        1 0.43076961E-02 0.91472387E+02</pdfrwt>
<pdfrwt beam="2">  1       -1 0.11493393E-01 0.91472387E+02</pdfrwt>
<totfact> 0.84918385E+04</totfact>
</mgrwt>
</event>
<event>
 6    1  0.3301067E-009  0.1873799E+03  0.7818608E-02  0.1160846E+00
          1   -1    0    0  501    0  0.00000000000E+00  0.00000000000E+00  0.10365039397E+03  0.10365039409E+03  0.50400000000E-02 0. -1.
         -1   -1    0    0    0  501 -0.00000000000E+00 -0.00000000000E+00 -0.84686713575E+02  0.84686713725E+02  0.50400000000E-02 0.  1.
    9000005    2    1    2    0    0  0.73770480743E+02 -0.35480459153E+02  0.55264940164E+02  0.98789755697E+02  0.20628641751E+01 0.  0.
         22    1    1    2    0    0 -0.73770480743E+02  0.35480459153E+02 -0.36301259769E+02  0.89547352120E+02  0.00000000000E+00 0.  1.
         22    1    3    3    0    0  0.39080221689E+02 -0.19297222736E+02  0.30538128958E+02  0.53218641967E+02  0.00000000000E+00 0. -1.
         22    1    3    3    0    0  0.34690259054E+02 -0.16183236417E+02  0.24726811206E+02  0.45571113730E+02  0.00000000000E+00 0. -1.
<mgrwt>
<rscale>  0 0.18737995E+03</rscale>
<asrwt>0</asrwt>
<pdfrwt beam="1">  1        1 0.15946215E-01 0.18737995E+03</pdfrwt>
<pdfrwt beam="2">  1       -1 0.13028725E-01 0.18737995E+03</pdfrwt>
<totfact> 0.13274241E+04</totfact>
</mgrwt>
</event>
<event>
 7    1  0.3301067E-009  0.9073722E+02  0.7818608E-02  0.1301076E+00
         -1   -1    0    0    0  501 -0.00000000000E+00  0.00000000000E+00  0.58974635858E+01  0.58974657394E+01  0.50400000000E-02 0.  1.
          1   -1    0    0  501    0  0.00000000000E+00 -0.00000000000E+00 -0.34901618066E+03  0.34901618070E+03  0.50400000000E-02 0. -1.
         23    2    1    2    0    0  0.00000000000E+00  0.00000000000E+00 -0.34311871708E+03  0.35491364644E+03  0.90737216289E+02 0.  0.
    9000005    2    3    3    0    0  0.36772478716E+02  0.24637474431E+02 -0.13565906936E+03  0.14278461550E+03  0.49842738544E+01 0.  0.
         22    1    3    3    0    0 -0.36772478716E+02 -0.24637474431E+02 -0.20745964772E+03  0.21212903094E+03  0.00000000000E+00 0. -1.
         22    1    4    4    0    0  0.25452280807E+02  0.18927428111E+02 -0.10194087536E+03  0.10676145467E+03  0.00000000000E+00 0.  1.
         22    1    4    4    0    0  0.11320197909E+02  0.57100463192E+01 -0.33718193996E+02  0.36023160828E+02  0.00000000000E+00 0.  1.
<mgrwt>
<rscale>  0 0.90737216E+02</rscale>
<asrwt>0</asrwt>
<pdfrwt beam="2">  1        1 0.53694781E-01 0.90737216E+02</pdfrwt>
<pdfrwt beam="1">  1       -1 0.90730253E-03 0.90737216E+02</pdfrwt>
<totfact> 0.13346995E+05</totfact>
</mgrwt>
</event>
<event>
 7    1  0.3301067E-009  0.7244947E+02  0.7818608E-02  0.1351956E+00
         -1   -1    0    0    0  501 -0.00000000000E+00  0.00000000000E+00  0.35450411950E+02  0.35450412308E+02  0.50400000000E-02 0.  1.
          1   -1    0    0  501    0  0.00000000000E+00 -0.00000000000E+00 -0.37015972493E+02  0.37015972836E+02  0.50400000000E-02 0. -1.
         23    2    1    2    0    0  0.00000000000E+00 -0.17763568394E-14 -0.15655605428E+01  0.72466385144E+02  0.72449472021E+02 0.  0.
    9000005    2    3    3    0    0 -0.31072400410E+02 -0.83154398795E+01 -0.15855524761E+02  0.37269173820E+02  0.10146577951E+02 0.  0.
         22    1    3    3    0    0  0.31072400410E+02  0.83154398795E+01  0.14289964219E+02  0.35197211324E+02  0.00000000000E+00 0.  1.
         22    1    4    4    0    0 -0.17829573658E+01  0.30342830859E+00 -0.42283160851E+01  0.45988762347E+01  0.00000000000E+00 0.  1.
         22    1    4    4    0    0 -0.29289443044E+02 -0.86188681881E+01 -0.11627208676E+02  0.32670297585E+02  0.00000000000E+00 0.  1.
<mgrwt>
<rscale>  0 0.72449472E+02</rscale>
<asrwt>0</asrwt>
<pdfrwt beam="2">  1        1 0.56947650E-02 0.72449472E+02</pdfrwt>
<pdfrwt beam="1">  1       -1 0.54539096E-02 0.72449472E+02</pdfrwt>
<totfact> 0.16975286E+05</totfact>
</mgrwt>
</event>
<event>
 7    1  0.3301067E-009  0.9074058E+02  0.7818608E-02  0.1301068E+00
          1   -1    0    0  501    0  0.00000000000E+00  0.00000000000E+00  0.95082927191E+01  0.95082940548E+01  0.50400000000E-02 0. -1.
         -1   -1    0    0    0  501 -0.00000000000E+00 -0.00000000000E+00 -0.21649132458E+03  0.21649132464E+03  0.50400000000E-02 0.  1.
         23    2    1    2    0    0  0.00000000000E+00  0.00000000000E+00 -0.20698303186E+03  0.22599961869E+03  0.90740576212E+02 0.  0.
    9000005    2    3    3    0    0  0.20873589616E+02  0.22930787677E+02 -0.18559372085E+03  0.18832959889E+03  0.78409711673E+01 0.  0.
         22    1    3    3    0    0 -0.20873589616E+02 -0.22930787677E+02 -0.21389311005E+02  0.37670019806E+02  0.00000000000E+00 0. -1.
         22    1    4    4    0    0  0.84334063217E+01  0.11510787443E+02 -0.64185466999E+02  0.65752526519E+02  0.00000000000E+00 0.  1.
         22    1    4    4    0    0  0.12440183294E+02  0.11420000235E+02 -0.12140825386E+03  0.12257707237E+03  0.00000000000E+00 0.  1.
<mgrwt>
<rscale>  0 0.90740576E+02</rscale>
<asrwt>0</asrwt>
<pdfrwt beam="1">  1        1 0.14628145E-02 0.90740576E+02</pdfrwt>
<pdfrwt beam="2">  1       -1 0.33306354E-01 0.90740576E+02</pdfrwt>
<totfact> 0.68676362E+04</totfact>
</mgrwt>
</event>
<event>
 7    1  0.3301067E-009  0.9629815E+02  0.7818608E-02  0.1288279E+00
         -1   -1    0    0    0  501 -0.00000000000E+00  0.00000000000E+00  0.44697806415E+01  0.44697834830E+01  0.50400000000E-02 0.  1.
          1   -1    0    0  501    0  0.00000000000E+00 -0.00000000000E+00 -0.51866806820E+03  0.51866806822E+03  0.50400000000E-02 0. -1.
         23    2    1    2    0    0 -0.88817841970E-15  0.00000000000E+00 -0.51419828756E+03  0.52313785171E+03  0.96298146197E+02 0.  0.
    9000005    2    3    3    0    0  0.59556270670E+01 -0.46666892033E+02 -0.29360866851E+03  0.29758730674E+03  0.11785015879E+02 0.  0.
         22    1    3    3    0    0 -0.59556270670E+01  0.46666892033E+02 -0.22058961905E+03  0.22555054497E+03  0.00000000000E+00 0.  1.
         22    1    4    4    0    0  0.79680423187E+00 -0.12251626797E+02 -0.48955889495E+02  0.50471936484E+02  0.00000000000E+00 0.  1.
         22    1    4    4    0    0  0.51588228351E+01 -0.34415265237E+02 -0.24465277902E+03  0.24711537025E+03  0.00000000000E+00 0.  1.
<mgrwt>
<rscale>  0 0.96298146E+02</rscale>
<asrwt>0</asrwt>
<pdfrwt beam="2">  1        1 0.79795040E-01 0.96298146E+02</pdfrwt>
<pdfrwt beam="1">  1       -1 0.68765919E-03 0.96298146E+02</pdfrwt>
<totfact> 0.12094283E+05</totfact>
</mgrwt>
</event>
<event>
 7    1  0.3301067E-009  0.9924087E+02  0.7818608E-02  0.1281900E+00
          1   -1    0    0  501    0  0.00000000000E+00  0.00000000000E+00  0.14225871754E+02  0.14225872646E+02  0.50400000000E-02 0. -1.
         -1   -1    0    0    0  501 -0.00000000000E+00 -0.00000000000E+00 -0.17307812916E+03  0.17307812923E+03  0.50400000000E-02 0.  1.
         23    2    1    2    0    0  0.00000000000E+00  0.00000000000E+00 -0.15885225740E+03  0.18730400188E+03  0.99240865760E+02 0.  0.
    9000005    2    3    3    0    0  0.19714511589E+02  0.14984542506E+02 -0.16019422301E+03  0.16250482139E+03  0.11507797643E+02 0.  0.
         22    1    3    3    0    0 -0.19714511589E+02 -0.14984542506E+02  0.13419656067E+01  0.24799180491E+02  0.00000000000E+00 0. -1.
         22    1    4    4    0    0  0.13441412031E+02  0.35204788248E+01 -0.95328127653E+02  0.96335441299E+02  0.00000000000E+00 0. -1.
         22    1    4    4    0    0  0.62730995578E+01  0.11464063682E+02 -0.64866095357E+02  0.66169380087E+02  0.00000000000E+00 0. -1.
<mgrwt>
<rscale>  0 0.99240866E+02</rscale>
<asrwt>0</asrwt>
<pdfrwt beam="1">  1        1 0.21885958E-02 0.99240866E+02</pdfrwt>
<pdfrwt beam="2">  1       -1 0.26627403E-01 0.99240866E+02</pdfrwt>
<totfact> 0.57886604E+04</totfact>
</mgrwt>
</event>
<event>
 7    1  0.3301067E-009  0.9693236E+02  0.7818608E-02  0.1286882E+00
          1   -1    0    0  501    0  0.00000000000E+00  0.00000000000E+00  0.11568993106E+03  0.11568993117E+03  0.50400000000E-02 0. -1.
         -1   -1    0    0    0  501 -0.00000000000E+00 -0.00000000000E+00 -0.20304017895E+02  0.20304018521E+02  0.50400000000E-02 0.  1.
         23    2    1    2    0    0  0.00000000000E+00  0.71054273576E-14  0.95385913170E+02  0.13599394970E+03  0.96932357459E+02 0.  0.
    9000005    2    3    3    0    0 -0.34908072042E+01 -0.46902767840E+02  0.61023897306E+02  0.77746172912E+02  0.10416141040E+02 0.  0.
         22    1    3    3    0    0  0.34908072042E+01  0.46902767840E+02  0.34362015864E+02  0.58247776783E+02  0.00000000000E+00 0.  1.
         22    1    4    4    0    0 -0.43520077387E+01 -0.41185178450E+02  0.57862200738E+02  0.71156118286E+02  0.00000000000E+00 0. -1.
         22    1    4    4    0    0  0.86120053448E+00 -0.57175893895E+01  0.31616965681E+01  0.65900546262E+01  0.00000000000E+00 0. -1.
<mgrwt>
<rscale>  0 0.96932357E+02</rscale>
<asrwt>0</asrwt>
<pdfrwt beam="1">  1        1 0.17798451E-01 0.96932357E+02</pdfrwt>
<pdfrwt beam="2">  1       -1 0.31236951E-02 0.96932357E+02</pdfrwt>
<totfact> 0.90597835E+04</totfact>
</mgrwt>
</event>
<event>
 7    1  0.3301067E-009  0.8880264E+02  0.7818608E-02  0.1305777E+00
          1   -1    0    0  501    0  0.00000000000E+00  0.00000000000E+00  0.12426210183E+03  0.12426210193E+03  0.50400000000E-02 0. -1.
         -1   -1    0    0    0  501 -0.00000000000E+00 -0.00000000000E+00 -0.15865472561E+02  0.15865473362E+02  0.50400000000E-02 0.  1.
         23    2    1    2    0    0 -0.35527136788E-14  0.00000000000E+00  0.10839662927E+03  0.14012757529E+03  0.88802635777E+02 0.  0.
    9000005    2    3    3    0    0  0.23025237966E+02  0.12631443089E+02  0.10996398932E+03  0.11381842184E+03  0.13146834802E+02 0.  0.
         22    1    3    3    0    0 -0.23025237966E+02 -0.12631443089E+02 -0.15673600511E+01  0.26309153453E+02  0.00000000000E+00 0.  1.
         22    1    4    4    0    0  0.13417522259E+02  0.12708294146E+02  0.86713385360E+02  0.88660824744E+02  0.00000000000E+00 0. -1.
         22    1    4    4    0    0  0.96077157070E+01 -0.76851056939E-01  0.23250603958E+02  0.25157597095E+02  0.00000000000E+00 0. -1.
<mgrwt>
<rscale>  0 0.88802636E+02</rscale>
<asrwt>0</asrwt>
<pdfrwt beam="1">  1        1 0.19117246E-01 0.88802636E+02</pdfrwt>
<pdfrwt beam="2">  1       -1 0.24408420E-02 0.88802636E+02</pdfrwt>
<totfact> 0.11641220E+05</totfact>
</mgrwt>
</event>
<event>
 7    1  0.3301067E-009  0.9179121E+02  0.7818608E-02  0.1298571E+00
         -1   -1    0    0    0  501 -0.00000000000E+00  0.00000000000E+00  0.51828746026E+01  0.51828770532E+01  0.50400000000E-02 0.  1.
          1   -1    0    0  501    0  0.00000000000E+00 -0.00000000000E+00 -0.40641653867E+03  0.40641653870E+03  0.50400000000E-02 0. -1.
         23    2    1    2    0    0 -0.35527136788E-14 -0.71054273576E-14 -0.40123366407E+03  0.41159941575E+03  0.91791208013E+02 0.  0.
    9000005    2    3    3    0    0 -0.21267248672E+02 -0.38611281664E+02 -0.24709668482E+03  0.25128305567E+03  0.11969773689E+02 0.  0.
         22    1    3    3    0    0  0.21267248672E+02  0.38611281664E+02 -0.15413697925E+03  0.16031636008E+03  0.00000000000E+00 0.  1.
         22    1    4    4    0    0 -0.21686290476E+02 -0.34960953835E+02 -0.23687257959E+03  0.24041876476E+03  0.00000000000E+00 0. -1.
         22    1    4    4    0    0  0.41904180439E+00 -0.36503278296E+01 -0.10224105235E+02  0.10864290918E+02  0.00000000000E+00 0. -1.
<mgrwt>
<rscale>  0 0.91791208E+02</rscale>
<asrwt>0</asrwt>
<pdfrwt beam="2">  1        1 0.62525596E-01 0.91791208E+02</pdfrwt>
<pdfrwt beam="1">  1       -1 0.79736584E-03 0.91791208E+02</pdfrwt>
<totfact> 0.13284903E+05</totfact>
</mgrwt>
</event>
<event>
 7    1  0.3301067E-009  0.9187686E+02  0.7818608E-02  0.1298369E+00
          1   -1    0    0  501    0  0.00000000000E+00  0.00000000000E+00  0.14061351309E+02  0.14061352213E+02  0.50400000000E-02 0. -1.
         -1   -1    0    0    0  501 -0.00000000000E+00 -0.00000000000E+00 -0.15008081697E+03  0.15008081705E+03  0.50400000000E-02 0.  1.
         23    2    1    2    0    0  0.00000000000E+00  0.00000000000E+00 -0.13601946566E+03  0.16414216927E+03  0.91876856135E+02 0.  0.
    9000005    2    3    3    0    0 -0.32921843561E+02 -0.30005563365E+02 -0.80717369074E+02  0.93131582006E+02  0.13191523051E+02 0.  0.
         22    1    3    3    0    0  0.32921843561E+02  0.30005563365E+02 -0.55302096587E+02  0.71010587261E+02  0.00000000000E+00 0. -1.
         22    1    4    4    0    0 -0.22915801951E+02 -0.12332164463E+02 -0.48679255852E+02  0.55198606955E+02  0.00000000000E+00 0.  1.
         22    1    4    4    0    0 -0.10006041611E+02 -0.17673398901E+02 -0.32038113222E+02  0.37932975051E+02  0.00000000000E+00 0.  1.
<mgrwt>
<rscale>  0 0.91876856E+02</rscale>
<asrwt>0</asrwt>
<pdfrwt beam="1">  1        1 0.21632850E-02 0.91876856E+02</pdfrwt>
<pdfrwt beam="2">  1       -1 0.23089355E-01 0.91876856E+02</pdfrwt>
<totfact> 0.73307610E+04</totfact>
</mgrwt>
</event>
<event>
 7    1  0.3301067E-009  0.8760500E+02  0.7818608E-02  0.1308757E+00
         -1   -1    0    0    0  501 -0.00000000000E+00  0.00000000000E+00  0.30989841971E+02  0.30989842381E+02  0.50400000000E-02 0.  1.
          1   -1    0    0  501    0  0.00000000000E+00 -0.00000000000E+00 -0.61912515723E+02  0.61912515928E+02  0.50400000000E-02 0. -1.
         23    2    1    2    0    0  0.00000000000E+00  0.00000000000E+00 -0.30922673751E+02  0.92902358309E+02  0.87605002297E+02 0.  0.
    9000005    2    3    3    0    0 -0.97219924711E+01 -0.26902347409E+02  0.19675146034E+02  0.34778414872E+02  0.20428743969E+01 0.  0.
         22    1    3    3    0    0  0.97219924711E+01  0.26902347409E+02 -0.50597819785E+02  0.58123943438E+02  0.00000000000E+00 0. -1.
         22    1    4    4    0    0 -0.40789477758E+01 -0.12739921602E+02  0.10279289697E+02  0.16870305689E+02  0.00000000000E+00 0. -1.
         22    1    4    4    0    0 -0.56430446953E+01 -0.14162425807E+02  0.93958563367E+01  0.17908109182E+02  0.00000000000E+00 0. -1.
<mgrwt>
<rscale>  0 0.87605002E+02</rscale>
<asrwt>0</asrwt>
<pdfrwt beam="2">  1        1 0.95250024E-02 0.87605002E+02</pdfrwt>
<pdfrwt beam="1">  1       -1 0.47676681E-02 0.87605002E+02</pdfrwt>
<totfact> 0.10812191E+05</totfact>
</mgrwt>
</event>
<event>
 7    1  0.3301067E-009  0.8987427E+02  0.7818608E-02  0.1303156E+00
          1   -1    0    0  501    0  0.00000000000E+00  0.00000000000E+00  0.10853828274E+03  0.10853828286E+03  0.50400000000E-02 0. -1.
         -1   -1    0    0    0  501 -0.00000000000E+00 -0.00000000000E+00 -0.18604920337E+02  0.18604921019E+02  0.50400000000E-02 0.  1.
         23    2    1    2    0    0 -0.44408920985E-15  0.71054273576E-14  0.89933362408E+02  0.12714320388E+03  0.89874271174E+02 0.  0.
    9000005    2    3    3    0    0 -0.37648300201E+01 -0.35798323300E+02  0.10984819804E+02  0.40375892781E+02  0.14623698423E+02 0.  0.
         22    1    3    3    0    0  0.37648300201E+01  0.35798323300E+02  0.78948542604E+02  0.86767311100E+02  0.00000000000E+00 0. -1.
         22    1    4    4    0    0 -0.10098279504E+01 -0.23509552611E+01  0.59017126989E+01  0.64324922004E+01  0.00000000000E+00 0.  1.
         22    1    4    4    0    0 -0.27550020697E+01 -0.33447368039E+02  0.50831071050E+01  0.33943400581E+02  0.00000000000E+00 0.  1.
<mgrwt>
<rscale>  0 0.89874271E+02</rscale>
<asrwt>0</asrwt>
<pdfrwt beam="1">  1        1 0.16698197E-01 0.89874271E+02</pdfrwt>
<pdfrwt beam="2">  1       -1 0.28622955E-02 0.89874271E+02</pdfrwt>
<totfact> 0.11011791E+05</totfact>
</mgrwt>
</event>
<event>
 7    1  0.3301067E-009  0.8531408E+02  0.7818608E-02  0.1314613E+00
         -1   -1    0    0    0  501 -0.00000000000E+00  0.00000000000E+00  0.16701935115E+02  0.16701935876E+02  0.50400000000E-02 0.  1.
          1   -1    0    0  501    0  0.00000000000E+00 -0.00000000000E+00 -0.10894683561E+03  0.10894683573E+03  0.50400000000E-02 0. -1.
         23    2    1    2    0    0  0.88817841970E-15  0.00000000000E+00 -0.92244900497E+02  0.12564877160E+03  0.85314079366E+02 0.  0.
    9000005    2    3    3    0    0  0.75750723145E+01 -0.24341470056E+02 -0.95971320622E+02  0.99884938581E+02  0.10798967010E+02 0.  0.
         22    1    3    3    0    0 -0.75750723145E+01  0.24341470056E+02  0.37264201250E+01  0.25763833023E+02  0.00000000000E+00 0.  1.
         22    1    4    4    0    0  0.77299226184E+01 -0.72679799389E+01 -0.36274640587E+02  0.37794507350E+02  0.00000000000E+00 0. -1.
         22    1    4    4    0    0 -0.15485030389E+00 -0.17073490117E+02 -0.59696680034E+02  0.62090431231E+02  0.00000000000E+00 0. -1.
<mgrwt>
<rscale>  0 0.85314079E+02</rscale>
<asrwt>0</asrwt>
<pdfrwt beam="2">  1        1 0.16761051E-01 0.85314079E+02</pdfrwt>
<pdfrwt beam="1">  1       -1 0.25695286E-02 0.85314079E+02</pdfrwt>
<totfact> 0.12684296E+05</totfact>
</mgrwt>
</event>
<event>
 7    1  0.3301067E-009  0.9154353E+02  0.7818608E-02  0.1299156E+00
         -1   -1    0    0    0  501 -0.00000000000E+00  0.00000000000E+00  0.58483174984E+01  0.58483196701E+01  0.50400000000E-02 0.  1.
          1   -1    0    0  501    0  0.00000000000E+00 -0.00000000000E+00 -0.35823190592E+03  0.35823190596E+03  0.50400000000E-02 0. -1.
         23    2    1    2    0    0  0.00000000000E+00  0.00000000000E+00 -0.35238358842E+03  0.36408022563E+03  0.91543526820E+02 0.  0.
    9000005    2    3    3    0    0  0.21697533569E+02 -0.16001086224E+02 -0.32329567158E+03  0.32442011179E+03  0.12247236755E+01 0.  0.
         22    1    3    3    0    0 -0.21697533569E+02  0.16001086224E+02 -0.29087916844E+02  0.39660113838E+02  0.00000000000E+00 0.  1.
         22    1    4    4    0    0  0.60821120960E+01 -0.48628449298E+01 -0.87867657937E+02  0.88212043734E+02  0.00000000000E+00 0. -1.
         22    1    4    4    0    0  0.15615421473E+02 -0.11138241294E+02 -0.23542801364E+03  0.23620806805E+03  0.00000000000E+00 0. -1.
<mgrwt>
<rscale>  0 0.91543527E+02</rscale>
<asrwt>0</asrwt>
<pdfrwt beam="2">  1        1 0.55112584E-01 0.91543527E+02</pdfrwt>
<pdfrwt beam="1">  1       -1 0.89974161E-03 0.91543527E+02</pdfrwt>
<totfact> 0.13097117E+05</totfact>
</mgrwt>
</event>
<event>
 7    1  0.3301067E-009  0.9138855E+02  0.7818608E-02  0.1299524E+00
          1   -1    0    0  501    0  0.00000000000E+00  0.00000000000E+00  0.10263806665E+03  0.10263806678E+03  0.50400000000E-02 0. -1.
         -1   -1    0    0    0  501 -0.00000000000E+00 -0.00000000000E+00 -0.20343004400E+02  0.20343005024E+02  0.50400000000E-02 0.  1.
         23    2    1    2    0    0  0.00000000000E+00  0.00000000000E+00  0.82295062254E+02  0.12298107180E+03  0.91388548243E+02 0.  0.
    9000005    2    3    3    0    0 -0.13724585095E+02 -0.11462776683E+02  0.97546613058E+02  0.99478533912E+02  0.78024037881E+01 0.  0.
         22    1    3    3    0    0  0.13724585095E+02  0.11462776683E+02 -0.15251550804E+02  0.23502537889E+02  0.00000000000E+00 0.  1.
         22    1    4    4    0    0 -0.12971831530E+02 -0.11332441061E+02  0.97051475530E+02  0.98568156806E+02  0.00000000000E+00 0.  1.
         22    1    4    4    0    0 -0.75275356426E+00 -0.13033562230E+00  0.49513752826E+00  0.91037710584E+00  0.00000000000E+00 0.  1.
<mgrwt>
<rscale>  0 0.91388548E+02</rscale>
<asrwt>0</asrwt>
<pdfrwt beam="1">  1        1 0.15790472E-01 0.91388548E+02</pdfrwt>
<pdfrwt beam="2">  1       -1 0.31296931E-02 0.91388548E+02</pdfrwt>
<totfact> 0.10424493E+05</totfact>
</mgrwt>
</event>
<event>
 7    1  0.3301067E-009  0.9315086E+02  0.7818608E-02  0.1295396E+00
         -1   -1    0    0    0  501 -0.00000000000E+00  0.00000000000E+00  0.11504014518E+04  0.11504014518E+04  0.50400000000E-02 0.  1.
          1   -1    0    0  501    0  0.00000000000E+00 -0.00000000000E+00 -0.18856608751E+01  0.18856676105E+01  0.50400000000E-02 0. -1.
         23    2    1    2    0    0 -0.88817841970E-15  0.00000000000E+00  0.11485157909E+04  0.11522871194E+04  0.93150864627E+02 0.  0.
    9000005    2    3    3    0    0  0.44014243026E+01  0.23279859442E+02  0.10682271906E+04  0.10685758075E+04  0.13549958358E+02 0.  0.
         22    1    3    3    0    0 -0.44014243026E+01 -0.23279859442E+02  0.80288600310E+02  0.83711311848E+02  0.00000000000E+00 0. -1.
         22    1    4    4    0    0  0.60039888899E+01  0.10684118957E+02  0.74265368342E+03  0.74275479923E+03  0.00000000000E+00 0.  1.
         22    1    4    4    0    0 -0.16025645873E+01  0.12595740484E+02  0.32557350716E+03  0.32582100831E+03  0.00000000000E+00 0.  1.
<mgrwt>
<rscale>  0 0.93150865E+02</rscale>
<asrwt>0</asrwt>
<pdfrwt beam="2">  1        1 0.29010166E-03 0.93150865E+02</pdfrwt>
<pdfrwt beam="1">  1       -1 0.17698516E+00 0.93150865E+02</pdfrwt>
<totfact> 0.20184364E+04</totfact>
</mgrwt>
</event>
<event>
 7    1  0.3301067E-009  0.8890482E+02  0.7818608E-02  0.1305526E+00
          1   -1    0    0  501    0  0.00000000000E+00  0.00000000000E+00  0.29306536559E+03  0.29306536563E+03  0.50400000000E-02 0. -1.
         -1   -1    0    0    0  501 -0.00000000000E+00 -0.00000000000E+00 -0.67425793575E+01  0.67425812411E+01  0.50400000000E-02 0.  1.
         23    2    1    2    0    0  0.00000000000E+00  0.00000000000E+00  0.28632278623E+03  0.29980794687E+03  0.88904820415E+02 0.  0.
    9000005    2    3    3    0    0 -0.16395066369E+02  0.39435819733E+02  0.12427149465E+03  0.13222333188E+03  0.14684108134E+02 0.  0.
         22    1    3    3    0    0  0.16395066369E+02 -0.39435819733E+02  0.16205129157E+03  0.16758461499E+03  0.00000000000E+00 0. -1.
         22    1    4    4    0    0  0.18823508954E+01  0.45399651818E+00  0.33973875693E+01  0.39104475483E+01  0.00000000000E+00 0.  1.
         22    1    4    4    0    0 -0.18277417264E+02  0.38981823215E+02  0.12087410708E+03  0.12831288434E+03  0.00000000000E+00 0.  1.
<mgrwt>
<rscale>  0 0.88904820E+02</rscale>
<asrwt>0</asrwt>
<pdfrwt beam="1">  1        1 0.45086983E-01 0.88904820E+02</pdfrwt>
<pdfrwt beam="2">  1       -1 0.10373200E-02 0.88904820E+02</pdfrwt>
<totfact> 0.13640725E+05</totfact>
</mgrwt>
</event>
<event>
 6    1  0.3301067E-009  0.2517206E+03  0.7818608E-02  0.1112222E+00
         -1   -1    0    0    0  501 -0.00000000000E+00  0.00000000000E+00  0.14349881668E+03  0.14349881677E+03  0.50400000000E-02 0.  1.
          1   -1    0    0  501    0  0.00000000000E+00 -0.00000000000E+00 -0.11038983564E+03  0.11038983576E+03  0.50400000000E-02 0. -1.
    9000005    2    1    2    0    0  0.47615198894E+01 -0.38276843396E+02 -0.10423712143E+03  0.11122912541E+03  0.43303630168E+01 0.  0.
         22    1    1    2    0    0 -0.47615198894E+01  0.38276843396E+02  0.13734610247E+03  0.14265952711E+03  0.00000000000E+00 0.  1.
         22    1    3    3    0    0  0.44114496779E+01 -0.29381793265E+02 -0.84688778749E+02  0.89749317043E+02  0.00000000000E+00 0.  1.
         22    1    3    3    0    0  0.35007021155E+00 -0.88950501302E+01 -0.19548342684E+02  0.21479808371E+02  0.00000000000E+00 0.  1.
<mgrwt>
<rscale>  0 0.25172057E+03</rscale>
<asrwt>0</asrwt>
<pdfrwt beam="2">  1        1 0.16983052E-01 0.25172057E+03</pdfrwt>
<pdfrwt beam="1">  1       -1 0.22076741E-01 0.25172057E+03</pdfrwt>
<totfact> 0.53554596E+03</totfact>
</mgrwt>
</event>
<event>
 7    1  0.3301067E-009  0.9161559E+02  0.7818608E-02  0.1298986E+00
          1   -1    0    0  501    0  0.00000000000E+00  0.00000000000E+00  0.67378381140E+01  0.67378399990E+01  0.50400000000E-02 0. -1.
         -1   -1    0    0    0  501 -0.00000000000E+00 -0.00000000000E+00 -0.31142835343E+03  0.31142835348E+03  0.50400000000E-02 0.  1.
         23    2    1    2    0    0 -0.35527136788E-14  0.71054273576E-14 -0.30469051532E+03  0.31816619347E+03  0.91615591160E+02 0.  0.
    9000005    2    3    3    0    0 -0.16968290362E+02  0.41660183617E+02 -0.18035392431E+03  0.18594258877E+03  0.48594781293E+01 0.  0.
         22    1    3    3    0    0  0.16968290362E+02 -0.41660183617E+02 -0.12433659101E+03  0.13222360470E+03  0.00000000000E+00 0. -1.
         22    1    4    4    0    0 -0.10394686708E+02  0.21527792765E+02 -0.87781844318E+02  0.90978830312E+02  0.00000000000E+00 0. -1.
         22    1    4    4    0    0 -0.65736036543E+01  0.20132390852E+02 -0.92572079996E+02  0.94963758462E+02  0.00000000000E+00 0. -1.
<mgrwt>
<rscale>  0 0.91615591E+02</rscale>
<asrwt>0</asrwt>
<pdfrwt beam="1">  1        1 0.10365909E-02 0.91615591E+02</pdfrwt>
<pdfrwt beam="2">  1       -1 0.47912043E-01 0.91615591E+02</pdfrwt>
<totfact> 0.58941932E+04</totfact>
</mgrwt>
</event>
<event>
 7    1  0.3301067E-009  0.9171695E+02  0.7818608E-02  0.1298746E+00
          1   -1    0    0  501    0  0.00000000000E+00  0.00000000000E+00  0.75740489224E+01  0.75740505993E+01  0.50400000000E-02 0. -1.
         -1   -1    0    0    0  501 -0.00000000000E+00 -0.00000000000E+00 -0.27765854333E+03  0.27765854337E+03  0.50400000000E-02 0.  1.
         23    2    1    2    0    0  0.00000000000E+00  0.66613381478E-15 -0.27008449441E+03  0.28523259397E+03  0.91716947977E+02 0.  0.
    9000005    2    3    3    0    0  0.42465165847E+02  0.14720555590E+01 -0.18380459106E+03  0.18905734259E+03  0.12373109267E+02 0.  0.
         22    1    3    3    0    0 -0.42465165847E+02 -0.14720555590E+01 -0.86279903342E+02  0.96175251384E+02  0.00000000000E+00 0. -1.
         22    1    4    4    0    0  0.38948693792E+02  0.50016172218E+01 -0.16222433775E+03  0.16690941460E+03  0.00000000000E+00 0. -1.
         22    1    4    4    0    0  0.35164720548E+01 -0.35295616627E+01 -0.21580253309E+02  0.22147927987E+02  0.00000000000E+00 0. -1.
<mgrwt>
<rscale>  0 0.91716948E+02</rscale>
<asrwt>0</asrwt>
<pdfrwt beam="1">  1        1 0.11652386E-02 0.91716948E+02</pdfrwt>
<pdfrwt beam="2">  1       -1 0.42716691E-01 0.91716948E+02</pdfrwt>
<totfact> 0.61445080E+04</totfact>
</mgrwt>
</event>
<event>
 7    1  0.3301067E-009  0.8749287E+02  0.7818608E-02  0.1309039E+00
         -1   -1    0    0    0  501 -0.00000000000E+00  0.00000000000E+00  0.30969497830E+02  0.30969498240E+02  0.50400000000E-02 0.  1.
          1   -1    0    0  501    0  0.00000000000E+00 -0.00000000000E+00 -0.61794693922E+02  0.61794694128E+02  0.50400000000E-02 0. -1.
         23    2    1    2    0    0  0.00000000000E+00  0.35527136788E-14 -0.30825196092E+02  0.92764192368E+02  0.87492872118E+02 0.  0.
    9000005    2    3    3    0    0  0.35972067150E+02 -0.22112195347E+02 -0.18454792547E+02  0.48764582347E+02  0.15952000669E+02 0.  0.
         22    1    3    3    0    0 -0.35972067150E+02  0.22112195347E+02 -0.12370403545E+02  0.43999610021E+02  0.00000000000E+00 0.  1.
         22    1    4    4    0    0  0.28441708576E+02 -0.22608638385E+02 -0.19351047369E+02  0.41164843624E+02  0.00000000000E+00 0. -1.
         22    1    4    4    0    0  0.75303585744E+01  0.49644303776E+00  0.89625482117E+00  0.75997387227E+01  0.00000000000E+00 0. -1.
<mgrwt>
<rscale>  0 0.87492872E+02</rscale>
<asrwt>0</asrwt>
<pdfrwt beam="2">  1        1 0.95068761E-02 0.87492872E+02</pdfrwt>
<pdfrwt beam="1">  1       -1 0.47645382E-02 0.87492872E+02</pdfrwt>
<totfact> 0.10847315E+05</totfact>
</mgrwt>
</event>
<event>
 7    1  0.3301067E-009  0.9276696E+02  0.7818608E-02  0.1296286E+00
         -1   -1    0    0    0  501 -0.00000000000E+00  0.00000000000E+00  0.10568694618E+02  0.10568695820E+02  0.50400000000E-02 0.  1.
          1   -1    0    0  501    0  0.00000000000E+00 -0.00000000000E+00 -0.20356601520E+03  0.20356601526E+03  0.50400000000E-02 0. -1.
         23    2    1    2    0    0  0.00000000000E+00 -0.88817841970E-15 -0.19299732058E+03  0.21413471108E+03  0.92766959304E+02 0.  0.
    9000005    2    3    3    0    0 -0.42766888837E+02 -0.68497978064E+01 -0.68422240729E+02  0.82245071492E+02  0.14377838769E+02 0.  0.
         22    1    3    3    0    0  0.42766888837E+02  0.68497978064E+01 -0.12457507985E+03  0.13188963959E+03  0.00000000000E+00 0. -1.
         22    1    4    4    0    0 -0.33158985680E+02 -0.14938505112E+01 -0.59287682638E+02  0.67946885383E+02  0.00000000000E+00 0. -1.
         22    1    4    4    0    0 -0.96079031571E+01 -0.53559472952E+01 -0.91345580908E+01  0.14298186109E+02  0.00000000000E+00 0. -1.
<mgrwt>
<rscale>  0 0.92766959E+02</rscale>
<asrwt>0</asrwt>
<pdfrwt beam="2">  1        1 0.31317846E-01 0.92766959E+02</pdfrwt>
<pdfrwt beam="1">  1       -1 0.16259533E-02 0.92766959E+02</pdfrwt>
<totfact> 0.11342225E+05</totfact>
</mgrwt>
</event>
<event>
 7    1  0.3301067E-009  0.9398613E+02  0.7818608E-02  0.1293476E+00
         -1   -1    0    0    0  501 -0.00000000000E+00  0.00000000000E+00  0.25619680004E+02  0.25619680500E+02  0.50400000000E-02 0.  1.
          1   -1    0    0  501    0  0.00000000000E+00 -0.00000000000E+00 -0.86197340719E+02  0.86197340866E+02  0.50400000000E-02 0. -1.
         23    2    1    2    0    0  0.00000000000E+00  0.00000000000E+00 -0.60577660715E+02  0.11181702137E+03  0.93986133496E+02 0.  0.
    9000005    2    3    3    0    0 -0.31442784964E+02  0.25788171597E+02 -0.56730866408E+02  0.70970034366E+02  0.12832616798E+02 0.  0.
         22    1    3    3    0    0  0.31442784964E+02 -0.25788171597E+02 -0.38467943074E+01  0.40846987001E+02  0.00000000000E+00 0.  1.
         22    1    4    4    0    0 -0.31574842567E+02  0.21406354401E+02 -0.52330659638E+02  0.64758788052E+02  0.00000000000E+00 0.  1.
         22    1    4    4    0    0  0.13205760294E+00  0.43818171957E+01 -0.44002067696E+01  0.62112463131E+01  0.00000000000E+00 0.  1.
<mgrwt>
<rscale>  0 0.93986133E+02</rscale>
<asrwt>0</asrwt>
<pdfrwt beam="2">  1        1 0.13261129E-01 0.93986133E+02</pdfrwt>
<pdfrwt beam="1">  1       -1 0.39414893E-02 0.93986133E+02</pdfrwt>
<totfact> 0.93795842E+04</totfact>
</mgrwt>
</event>
<event>
 7    1  0.3301067E-009  0.9179894E+02  0.7818608E-02  0.1298553E+00
         -1   -1    0    0    0  501 -0.00000000000E+00  0.00000000000E+00  0.36268603695E+01  0.36268638714E+01  0.50400000000E-02 0.  1.
          1   -1    0    0  501    0  0.00000000000E+00 -0.00000000000E+00 -0.58087709180E+03  0.58087709183E+03  0.50400000000E-02 0. -1.
         23    2    1    2    0    0  0.71054273576E-14  0.00000000000E+00 -0.57725023144E+03  0.58450395570E+03  0.91798935368E+02 0.  0.
    9000005    2    3    3    0    0  0.39529506931E+02 -0.22404163180E+02 -0.30879840374E+03  0.31223403037E+03  0.83130693385E+01 0.  0.
         22    1    3    3    0    0 -0.39529506931E+02  0.22404163180E+02 -0.26845182770E+03  0.27226992533E+03  0.00000000000E+00 0.  1.
         22    1    4    4    0    0  0.32367414278E+02 -0.18383541948E+02 -0.22792301285E+03  0.23094264203E+03  0.00000000000E+00 0. -1.
         22    1    4    4    0    0  0.71620926534E+01 -0.40206212320E+01 -0.80875390886E+02  0.81291388334E+02  0.00000000000E+00 0. -1.
<mgrwt>
<rscale>  0 0.91798935E+02</rscale>
<asrwt>0</asrwt>
<pdfrwt beam="2">  1        1 0.89365633E-01 0.91798935E+02</pdfrwt>
<pdfrwt beam="1">  1       -1 0.55797925E-03 0.91798935E+02</pdfrwt>
<totfact> 0.13876376E+05</totfact>
</mgrwt>
</event>
<event>
 7    1  0.3301067E-009  0.8737340E+02  0.7818608E-02  0.1309340E+00
         -1   -1    0    0    0  501 -0.00000000000E+00  0.00000000000E+00  0.36682747332E+02  0.36682747678E+02  0.50400000000E-02 0.  1.
          1   -1    0    0  501    0  0.00000000000E+00 -0.00000000000E+00 -0.52027935000E+02  0.52027935244E+02  0.50400000000E-02 0. -1.
         23    2    1    2    0    0  0.00000000000E+00  0.00000000000E+00 -0.15345187668E+02  0.88710682922E+02  0.87373396866E+02 0.  0.
    9000005    2    3    3    0    0 -0.40308928470E+02 -0.38806388855E+01  0.50602424187E+01  0.43364782892E+02  0.14663876343E+02 0.  0.
         22    1    3    3    0    0  0.40308928470E+02  0.38806388855E+01 -0.20405430086E+02  0.45345900030E+02  0.00000000000E+00 0. -1.
         22    1    4    4    0    0 -0.99548734839E-01 -0.17392875371E+01 -0.18148725549E+01  0.25157093388E+01  0.00000000000E+00 0.  1.
         22    1    4    4    0    0 -0.40209379735E+02 -0.21413513484E+01  0.68751149736E+01  0.40849073553E+02  0.00000000000E+00 0.  1.
<mgrwt>
<rscale>  0 0.87373397E+02</rscale>
<asrwt>0</asrwt>
<pdfrwt beam="2">  1        1 0.80042977E-02 0.87373397E+02</pdfrwt>
<pdfrwt beam="1">  1       -1 0.56434996E-02 0.87373397E+02</pdfrwt>
<totfact> 0.10618008E+05</totfact>
</mgrwt>
</event>
<event>
 7    1  0.3301067E-009  0.9059171E+02  0.7818608E-02  0.1301425E+00
         -1   -1    0    0    0  501 -0.00000000000E+00  0.00000000000E+00  0.89559343134E+01  0.89559357316E+01  0.50400000000E-02 0.  1.
          1   -1    0    0  501    0  0.00000000000E+00 -0.00000000000E+00 -0.22908994016E+03  0.22908994021E+03  0.50400000000E-02 0. -1.
         23    2    1    2    0    0  0.00000000000E+00  0.00000000000E+00 -0.22013400585E+03  0.23804587595E+03  0.90591713337E+02 0.  0.
    9000005    2    3    3    0    0 -0.25355632350E+02 -0.36402876031E+02 -0.11933411149E+03  0.12791551602E+03  0.12396434914E+02 0.  0.
         22    1    3    3    0    0  0.25355632350E+02  0.36402876031E+02 -0.10079989436E+03  0.11013035993E+03  0.00000000000E+00 0.  1.
         22    1    4    4    0    0 -0.60224762923E-01 -0.68937992188E+01 -0.23780037011E+02  0.24759205458E+02  0.00000000000E+00 0.  1.
         22    1    4    4    0    0 -0.25295407587E+02 -0.29509076812E+02 -0.95554074478E+02  0.10315631056E+03  0.00000000000E+00 0.  1.
<mgrwt>
<rscale>  0 0.90591713E+02</rscale>
<asrwt>0</asrwt>
<pdfrwt beam="2">  1        1 0.35244602E-01 0.90591713E+02</pdfrwt>
<pdfrwt beam="1">  1       -1 0.13778363E-02 0.90591713E+02</pdfrwt>
<totfact> 0.12369153E+05</totfact>
</mgrwt>
</event>
<event>
 7    1  0.3301067E-009  0.9043453E+02  0.7818608E-02  0.1301803E+00
          1   -1    0    0  501    0  0.00000000000E+00  0.00000000000E+00  0.22742623690E+03  0.22742623696E+03  0.50400000000E-02 0. -1.
         -1   -1    0    0    0  501 -0.00000000000E+00 -0.00000000000E+00 -0.89901713091E+01  0.89901727218E+01  0.50400000000E-02 0.  1.
         23    2    1    2    0    0  0.00000000000E+00  0.00000000000E+00  0.21843606559E+03  0.23641640968E+03  0.90434528882E+02 0.  0.
    9000005    2    3    3    0    0 -0.10669064723E+02 -0.17690301610E+02  0.21401049983E+03  0.21528914423E+03  0.11051962414E+02 0.  0.
         22    1    3    3    0    0  0.10669064723E+02  0.17690301610E+02  0.44255657654E+01  0.21127265451E+02  0.00000000000E+00 0.  1.
         22    1    4    4    0    0  0.13216325088E+01 -0.23735417807E+00  0.41218241156E+01  0.43350298193E+01  0.00000000000E+00 0.  1.
         22    1    4    4    0    0 -0.11990697231E+02 -0.17452947432E+02  0.20988867571E+03  0.21095411441E+03  0.00000000000E+00 0.  1.
<mgrwt>
<rscale>  0 0.90434529E+02</rscale>
<asrwt>0</asrwt>
<pdfrwt beam="1">  1        1 0.34988653E-01 0.90434529E+02</pdfrwt>
<pdfrwt beam="2">  1       -1 0.13831033E-02 0.90434529E+02</pdfrwt>
<totfact> 0.12409030E+05</totfact>
</mgrwt>
</event>
<event>
 7    1  0.3301067E-009  0.8984727E+02  0.7818608E-02  0.1303222E+00
         -1   -1    0    0    0  501 -0.00000000000E+00  0.00000000000E+00  0.15511966132E+02  0.15511966950E+02  0.50400000000E-02 0.  1.
          1   -1    0    0  501    0  0.00000000000E+00 -0.00000000000E+00 -0.13010167731E+03  0.13010167741E+03  0.50400000000E-02 0. -1.
         23    2    1    2    0    0  0.00000000000E+00  0.00000000000E+00 -0.11458971118E+03  0.14561364436E+03  0.89847267713E+02 0.  0.
    9000005    2    3    3    0    0  0.27429395458E+02 -0.41730517262E+01 -0.18313574089E+01  0.29492016567E+02  0.98305175514E+01 0.  0.
         22    1    3    3    0    0 -0.27429395458E+02  0.41730517262E+01 -0.11275835377E+03  0.11612162780E+03  0.00000000000E+00 0. -1.
         22    1    4    4    0    0  0.54501270797E+01  0.24530898900E+01 -0.26115750113E+01  0.65224120717E+01  0.00000000000E+00 0. -1.
         22    1    4    4    0    0  0.21979268379E+02 -0.66261416162E+01  0.78021760245E+00  0.22969604496E+02  0.00000000000E+00 0. -1.
<mgrwt>
<rscale>  0 0.89847268E+02</rscale>
<asrwt>0</asrwt>
<pdfrwt beam="2">  1        1 0.20015642E-01 0.89847268E+02</pdfrwt>
<pdfrwt beam="1">  1       -1 0.23864565E-02 0.89847268E+02</pdfrwt>
<totfact> 0.11370781E+05</totfact>
</mgrwt>
</event>
<event>
 7    1  0.3301067E-009  0.9317809E+02  0.7818608E-02  0.1295333E+00
          1   -1    0    0  501    0  0.00000000000E+00  0.00000000000E+00  0.16733264078E+02  0.16733264837E+02  0.50400000000E-02 0. -1.
         -1   -1    0    0    0  501 -0.00000000000E+00 -0.00000000000E+00 -0.12971402582E+03  0.12971402592E+03  0.50400000000E-02 0.  1.
         23    2    1    2    0    0  0.17763568394E-14  0.00000000000E+00 -0.11298076174E+03  0.14644729076E+03  0.93178089944E+02 0.  0.
    9000005    2    3    3    0    0  0.10159127989E+02  0.44720449765E+02 -0.62326537242E+02  0.78117378063E+02  0.10705185767E+02 0.  0.
         22    1    3    3    0    0 -0.10159127989E+02 -0.44720449765E+02 -0.50654224501E+02  0.68329912692E+02  0.00000000000E+00 0. -1.
         22    1    4    4    0    0 -0.22037551481E+01  0.76063557888E+01 -0.11949106581E+02  0.14335073534E+02  0.00000000000E+00 0. -1.
         22    1    4    4    0    0  0.12362883138E+02  0.37114093976E+02 -0.50377430661E+02  0.63782304530E+02  0.00000000000E+00 0. -1.
<mgrwt>
<rscale>  0 0.93178090E+02</rscale>
<asrwt>0</asrwt>
<pdfrwt beam="1">  1        1 0.25743485E-02 0.93178090E+02</pdfrwt>
<pdfrwt beam="2">  1       -1 0.19956003E-01 0.93178090E+02</pdfrwt>
<totfact> 0.73032335E+04</totfact>
</mgrwt>
</event>
<event>
 7    1  0.3301067E-009  0.7115291E+02  0.7818608E-02  0.1356216E+00
         -1   -1    0    0    0  501 -0.00000000000E+00  0.00000000000E+00  0.94595645565E+01  0.94595658992E+01  0.50400000000E-02 0.  1.
          1   -1    0    0  501    0  0.00000000000E+00 -0.00000000000E+00 -0.13379940987E+03  0.13379940997E+03  0.50400000000E-02 0. -1.
         23    2    1    2    0    0  0.00000000000E+00  0.00000000000E+00 -0.12433984531E+03  0.14325897587E+03  0.71152913033E+02 0.  0.
    9000005    2    3    3    0    0 -0.11695195917E+02  0.31685078331E+02 -0.83633487920E+02  0.90365409823E+02  0.55340034637E+01 0.  0.
         22    1    3    3    0    0  0.11695195917E+02 -0.31685078331E+02 -0.40706357395E+02  0.52893566043E+02  0.00000000000E+00 0.  1.
         22    1    4    4    0    0 -0.51424892907E+01  0.14917509998E+02 -0.46369777878E+02  0.48980951411E+02  0.00000000000E+00 0. -1.
         22    1    4    4    0    0 -0.65527066264E+01  0.16767568334E+02 -0.37263710042E+02  0.41384458412E+02  0.00000000000E+00 0. -1.
<mgrwt>
<rscale>  0 0.71152913E+02</rscale>
<asrwt>0</asrwt>
<pdfrwt beam="2">  1        1 0.20584523E-01 0.71152913E+02</pdfrwt>
<pdfrwt beam="1">  1       -1 0.14553178E-02 0.71152913E+02</pdfrwt>
<totfact> 0.21261091E+05</totfact>
</mgrwt>
</event>
<event>
 7    1  0.3301067E-009  0.8329898E+02  0.7818608E-02  0.1319942E+00
         -1   -1    0    0    0  501 -0.00000000000E+00  0.00000000000E+00  0.10552060369E+02  0.10552061573E+02  0.50400000000E-02 0.  1.
          1   -1    0    0  501    0  0.00000000000E+00 -0.00000000000E+00 -0.16439254077E+03  0.16439254085E+03  0.50400000000E-02 0. -1.
         23    2    1    2    0    0 -0.17763568394E-14  0.71054273576E-14 -0.15384048040E+03  0.17494460242E+03  0.83298982624E+02 0.  0.
    9000005    2    3    3    0    0 -0.10014412154E+02  0.36340718103E+02 -0.11129961370E+03  0.11810569337E+03  0.11849664658E+02 0.  0.
         22    1    3    3    0    0  0.10014412154E+02 -0.36340718103E+02 -0.42540866705E+02  0.56838909059E+02  0.00000000000E+00 0.  1.
         22    1    4    4    0    0 -0.12189373192E+02  0.33213699178E+02 -0.95201013626E+02  0.10156260940E+03  0.00000000000E+00 0.  1.
         22    1    4    4    0    0  0.21749610382E+01  0.31270189253E+01 -0.16098600074E+02  0.16543083969E+02  0.00000000000E+00 0.  1.
<mgrwt>
<rscale>  0 0.83298983E+02</rscale>
<asrwt>0</asrwt>
<pdfrwt beam="2">  1        1 0.25291158E-01 0.83298983E+02</pdfrwt>
<pdfrwt beam="1">  1       -1 0.16233941E-02 0.83298983E+02</pdfrwt>
<totfact> 0.14526497E+05</totfact>
</mgrwt>
</event>
<event>
 7    1  0.3301067E-009  0.8703911E+02  0.7818608E-02  0.1310185E+00
         -1   -1    0    0    0  501 -0.00000000000E+00  0.00000000000E+00  0.12136254121E+03  0.12136254131E+03  0.50400000000E-02 0.  1.
          1   -1    0    0  501    0  0.00000000000E+00 -0.00000000000E+00 -0.15605734718E+02  0.15605735532E+02  0.50400000000E-02 0. -1.
         23    2    1    2    0    0 -0.44408920985E-15  0.00000000000E+00  0.10575680649E+03  0.13696827684E+03  0.87039110420E+02 0.  0.
    9000005    2    3    3    0    0 -0.29794345028E+01 -0.38373749881E+02  0.22554925383E+02  0.45295081582E+02  0.78420690256E+01 0.  0.
         22    1    3    3    0    0  0.29794345028E+01  0.38373749881E+02  0.83201881107E+02  0.91673195262E+02  0.00000000000E+00 0.  1.
         22    1    4    4    0    0 -0.26879544883E+01 -0.76264394705E+01  0.20679802154E+01  0.83465094800E+01  0.00000000000E+00 0. -1.
         22    1    4    4    0    0 -0.29148001459E+00 -0.30747310410E+02  0.20486945168E+02  0.36948572102E+02  0.00000000000E+00 0. -1.
<mgrwt>
<rscale>  0 0.87039110E+02</rscale>
<asrwt>0</asrwt>
<pdfrwt beam="2">  1        1 0.24008825E-02 0.87039110E+02</pdfrwt>
<pdfrwt beam="1">  1       -1 0.18671159E-01 0.87039110E+02</pdfrwt>
<totfact> 0.88327236E+04</totfact>
</mgrwt>
</event>
<event>
 7    1  0.3301067E-009  0.9351327E+02  0.7818608E-02  0.1294560E+00
          1   -1    0    0  501    0  0.00000000000E+00  0.00000000000E+00  0.33019254801E+03  0.33019254805E+03  0.50400000000E-02 0. -1.
         -1   -1    0    0    0  501 -0.00000000000E+00 -0.00000000000E+00 -0.66209322426E+01  0.66209341609E+01  0.50400000000E-02 0.  1.
         23    2    1    2    0    0 -0.17763568394E-14  0.00000000000E+00  0.32357161577E+03  0.33681348221E+03  0.93513267869E+02 0.  0.
    9000005    2    3    3    0    0 -0.11036512738E+02  0.39890146533E+02  0.23891596921E+03  0.24258181610E+03  0.72158682335E+01 0.  0.
         22    1    3    3    0    0  0.11036512738E+02 -0.39890146533E+02  0.84655646556E+02  0.94231666109E+02  0.00000000000E+00 0.  1.
         22    1    4    4    0    0 -0.65298361541E+01  0.29773609888E+02  0.18985842589E+03  0.19228969938E+03  0.00000000000E+00 0.  1.
         22    1    4    4    0    0 -0.45066765842E+01  0.10116536646E+02  0.49057543322E+02  0.50292116721E+02  0.00000000000E+00 0.  1.
<mgrwt>
<rscale>  0 0.93513268E+02</rscale>
<asrwt>0</asrwt>
<pdfrwt beam="1">  1        1 0.50798855E-01 0.93513268E+02</pdfrwt>
<pdfrwt beam="2">  1       -1 0.10186051E-02 0.93513268E+02</pdfrwt>
<totfact> 0.12193723E+05</totfact>
</mgrwt>
</event>
<event>
 7    1  0.3301067E-009  0.9045871E+02  0.7818608E-02  0.1301745E+00
         -1   -1    0    0    0  501 -0.00000000000E+00  0.00000000000E+00  0.29134458269E+01  0.29134501863E+01  0.50400000000E-02 0.  1.
          1   -1    0    0  501    0  0.00000000000E+00 -0.00000000000E+00 -0.70215590046E+03  0.70215590048E+03  0.50400000000E-02 0. -1.
         23    2    1    2    0    0  0.00000000000E+00  0.00000000000E+00 -0.69924245464E+03  0.70506935067E+03  0.90458713704E+02 0.  0.
    9000005    2    3    3    0    0  0.39113154340E+02  0.17409307178E+02 -0.46306275857E+03  0.46504066144E+03  0.16660126721E+01 0.  0.
         22    1    3    3    0    0 -0.39113154340E+02 -0.17409307178E+02 -0.23617969607E+03  0.24002868923E+03  0.00000000000E+00 0. -1.
         22    1    4    4    0    0  0.18595259899E+02  0.74571841451E+01 -0.22048694037E+03  0.22139531197E+03  0.00000000000E+00 0. -1.
         22    1    4    4    0    0  0.20517894441E+02  0.99521230328E+01 -0.24257581820E+03  0.24364534947E+03  0.00000000000E+00 0. -1.
<mgrwt>
<rscale>  0 0.90458714E+02</rscale>
<asrwt>0</asrwt>
<pdfrwt beam="2">  1        1 0.10802385E+00 0.90458714E+02</pdfrwt>
<pdfrwt beam="1">  1       -1 0.44822333E-03 0.90458714E+02</pdfrwt>
<totfact> 0.14517397E+05</totfact>
</mgrwt>
</event>
<event>
 7    1  0.3301067E-009  0.9091221E+02  0.7818608E-02  0.1300658E+00
          1   -1    0    0  501    0  0.00000000000E+00  0.00000000000E+00  0.27734457293E+03  0.27734457297E+03  0.50400000000E-02 0. -1.
         -1   -1    0    0    0  501 -0.00000000000E+00 -0.00000000000E+00 -0.74501447616E+01  0.74501464663E+01  0.50400000000E-02 0.  1.
         23    2    1    2    0    0  0.00000000000E+00 -0.71054273576E-14  0.26989442816E+03  0.28479471944E+03  0.90912209662E+02 0.  0.
    9000005    2    3    3    0    0  0.23563133204E+02 -0.37642197966E+02  0.11428774317E+03  0.12297507685E+03  0.94353045519E+01 0.  0.
         22    1    3    3    0    0 -0.23563133204E+02  0.37642197966E+02  0.15560668499E+03  0.16181964259E+03  0.00000000000E+00 0. -1.
         22    1    4    4    0    0  0.21991338273E+02 -0.33572381318E+02  0.10878842441E+03  0.11595535793E+03  0.00000000000E+00 0.  1.
         22    1    4    4    0    0  0.15717949305E+01 -0.40698166483E+01  0.54993187582E+01  0.70197189159E+01  0.00000000000E+00 0.  1.
<mgrwt>
<rscale>  0 0.90912210E+02</rscale>
<asrwt>0</asrwt>
<pdfrwt beam="1">  1        1 0.42668400E-01 0.90912210E+02</pdfrwt>
<pdfrwt beam="2">  1       -1 0.11461761E-02 0.90912210E+02</pdfrwt>
<totfact> 0.12718178E+05</totfact>
</mgrwt>
</event>
<event>
 7    1  0.3301067E-009  0.9475824E+02  0.7818608E-02  0.1291722E+00
          1   -1    0    0  501    0  0.00000000000E+00  0.00000000000E+00  0.36265214622E+03  0.36265214626E+03  0.50400000000E-02 0. -1.
         -1   -1    0    0    0  501 -0.00000000000E+00 -0.00000000000E+00 -0.61899007681E+01  0.61899028200E+01  0.50400000000E-02 0.  1.
         23    2    1    2    0    0  0.00000000000E+00  0.00000000000E+00  0.35646224546E+03  0.36884204908E+03  0.94758243617E+02 0.  0.
    9000005    2    3    3    0    0  0.37047947000E+02 -0.22817327150E+02  0.24551291233E+03  0.24966598052E+03  0.12780098397E+02 0.  0.
         22    1    3    3    0    0 -0.37047947000E+02  0.22817327150E+02  0.11094933313E+03  0.11917606856E+03  0.00000000000E+00 0.  1.
         22    1    4    4    0    0  0.28507272277E+00  0.82669429044E+00  0.12651403883E+01  0.15379434675E+01  0.00000000000E+00 0. -1.
         22    1    4    4    0    0  0.36762874277E+02 -0.23644021441E+02  0.24424777194E+03  0.24812803706E+03  0.00000000000E+00 0. -1.
<mgrwt>
<rscale>  0 0.94758244E+02</rscale>
<asrwt>0</asrwt>
<pdfrwt beam="1">  1        1 0.55792640E-01 0.94758244E+02</pdfrwt>
<pdfrwt beam="2">  1       -1 0.95229255E-03 0.94758244E+02</pdfrwt>
<totfact> 0.11971909E+05</totfact>
</mgrwt>
</event>
<event>
 7    1  0.3301067E-009  0.8838502E+02  0.7818608E-02  0.1306810E+00
          1   -1    0    0  501    0  0.00000000000E+00  0.00000000000E+00  0.15893093749E+03  0.15893093757E+03  0.50400000000E-02 0. -1.
         -1   -1    0    0    0  501 -0.00000000000E+00 -0.00000000000E+00 -0.12288218296E+02  0.12288219329E+02  0.50400000000E-02 0.  1.
         23    2    1    2    0    0  0.00000000000E+00  0.00000000000E+00  0.14664271919E+03  0.17121915690E+03  0.88385024731E+02 0.  0.
    9000005    2    3    3    0    0  0.32862079482E+02  0.16508801186E+02  0.32623484097E+02  0.51415806543E+02  0.15061097681E+02 0.  0.
         22    1    3    3    0    0 -0.32862079482E+02 -0.16508801186E+02  0.11401923510E+03  0.11980335036E+03  0.00000000000E+00 0. -1.
         22    1    4    4    0    0  0.31332222871E+02  0.11294117819E+02  0.31549343855E+02  0.45876207178E+02  0.00000000000E+00 0.  1.
         22    1    4    4    0    0  0.15298566106E+01  0.52146833670E+01  0.10741402425E+01  0.55395993653E+01  0.00000000000E+00 0.  1.
<mgrwt>
<rscale>  0 0.88385025E+02</rscale>
<asrwt>0</asrwt>
<pdfrwt beam="1">  1        1 0.24450910E-01 0.88385025E+02</pdfrwt>
<pdfrwt beam="2">  1       -1 0.18904955E-02 0.88385025E+02</pdfrwt>
<totfact> 0.12321732E+05</totfact>
</mgrwt>
</event>
<event>
 7    1  0.3301067E-009  0.9157492E+02  0.7818608E-02  0.1299082E+00
          1   -1    0    0  501    0  0.00000000000E+00  0.00000000000E+00  0.30023251506E+02  0.30023251929E+02  0.50400000000E-02 0. -1.
         -1   -1    0    0    0  501 -0.00000000000E+00 -0.00000000000E+00 -0.69828922135E+02  0.69828922317E+02  0.50400000000E-02 0.  1.
         23    2    1    2    0    0  0.00000000000E+00  0.00000000000E+00 -0.39805670629E+02  0.99852174246E+02  0.91574916257E+02 0.  0.
    9000005    2    3    3    0    0  0.38321769848E+02 -0.11774570906E+02  0.10394237713E+01  0.42620012826E+02  0.14428670320E+02 0.  0.
         22    1    3    3    0    0 -0.38321769848E+02  0.11774570906E+02 -0.40845094400E+02  0.57232161420E+02  0.00000000000E+00 0.  1.
         22    1    4    4    0    0  0.22519064798E+02 -0.10552740010E+02  0.67566291776E+01  0.25770538197E+02  0.00000000000E+00 0.  1.
         22    1    4    4    0    0  0.15802705050E+02 -0.12218308963E+01 -0.57172054064E+01  0.16849474629E+02  0.00000000000E+00 0.  1.
<mgrwt>
<rscale>  0 0.91574916E+02</rscale>
<asrwt>0</asrwt>
<pdfrwt beam="1">  1        1 0.46189618E-02 0.91574916E+02</pdfrwt>
<pdfrwt beam="2">  1       -1 0.10742911E-01 0.91574916E+02</pdfrwt>
<totfact> 0.85616368E+04</totfact>
</mgrwt>
</event>
<event>
 7    1  0.3301067E-009  0.1022237E+03  0.7818608E-02  0.1275688E+00
         -1   -1    0    0    0  501 -0.00000000000E+00  0.00000000000E+00  0.23847729895E+02  0.23847730427E+02  0.50400000000E-02 0.  1.
          1   -1    0    0  501    0  0.00000000000E+00 -0.00000000000E+00 -0.10954598943E+03  0.10954598955E+03  0.50400000000E-02 0. -1.
         23    2    1    2    0    0  0.44408920985E-15  0.00000000000E+00 -0.85698259539E+02  0.13339371998E+03  0.10222373913E+03 0.  0.
    9000005    2    3    3    0    0  0.26904258667E+01 -0.41759206394E+02 -0.79917583281E+02  0.91150543866E+02  0.13058783234E+02 0.  0.
         22    1    3    3    0    0 -0.26904258667E+01  0.41759206394E+02 -0.57806762581E+01  0.42243176111E+02  0.00000000000E+00 0.  1.
         22    1    4    4    0    0 -0.31014364370E+01 -0.71543471706E+01 -0.82304573566E+01  0.11337725509E+02  0.00000000000E+00 0. -1.
         22    1    4    4    0    0  0.57918623038E+01 -0.34604859223E+02 -0.71687125924E+02  0.79812818357E+02  0.00000000000E+00 0. -1.
<mgrwt>
<rscale>  0 0.10222374E+03</rscale>
<asrwt>0</asrwt>
<pdfrwt beam="2">  1        1 0.16853229E-01 0.10222374E+03</pdfrwt>
<pdfrwt beam="1">  1       -1 0.36688816E-02 0.10222374E+03</pdfrwt>
<totfact> 0.77526401E+04</totfact>
</mgrwt>
</event>
<event>
 7    1  0.3301067E-009  0.9090296E+02  0.7818608E-02  0.1300680E+00
         -1   -1    0    0    0  501 -0.00000000000E+00  0.00000000000E+00  0.54288584071E+02  0.54288584305E+02  0.50400000000E-02 0.  1.
          1   -1    0    0  501    0  0.00000000000E+00 -0.00000000000E+00 -0.38052880189E+02  0.38052880523E+02  0.50400000000E-02 0. -1.
         23    2    1    2    0    0  0.35527136788E-14  0.35527136788E-14  0.16235703882E+02  0.92341464828E+02  0.90902959500E+02 0.  0.
    9000005    2    3    3    0    0  0.26016155803E+02  0.30408872027E+02  0.29976207703E+02  0.50029039868E+02  0.16709102923E+01 0.  0.
         22    1    3    3    0    0 -0.26016155803E+02 -0.30408872027E+02 -0.13740503821E+02  0.42312424959E+02  0.00000000000E+00 0. -1.
         22    1    4    4    0    0  0.96931933464E+00  0.14903467678E+01  0.10266112965E+01  0.20529598668E+01  0.00000000000E+00 0.  1.
         22    1    4    4    0    0  0.25046836468E+02  0.28918525259E+02  0.28949596406E+02  0.47976080001E+02  0.00000000000E+00 0.  1.
<mgrwt>
<rscale>  0 0.90902960E+02</rscale>
<asrwt>0</asrwt>
<pdfrwt beam="2">  1        1 0.58542893E-02 0.90902960E+02</pdfrwt>
<pdfrwt beam="1">  1       -1 0.83520899E-02 0.90902960E+02</pdfrwt>
<totfact> 0.90746059E+04</totfact>
</mgrwt>
</event>
<event>
 7    1  0.3301067E-009  0.9118425E+02  0.7818608E-02  0.1300009E+00
         -1   -1    0    0    0  501 -0.00000000000E+00  0.00000000000E+00  0.20679824245E+03  0.20679824251E+03  0.50400000000E-02 0.  1.
          1   -1    0    0  501    0  0.00000000000E+00 -0.00000000000E+00 -0.10051543710E+02  0.10051544974E+02  0.50400000000E-02 0. -1.
         23    2    1    2    0    0  0.00000000000E+00  0.00000000000E+00  0.19674669874E+03  0.21684978748E+03  0.91184246814E+02 0.  0.
    9000005    2    3    3    0    0  0.31389607989E+02 -0.30910300315E+02  0.92085696433E+02  0.10329504492E+03  0.15790397777E+02 0.  0.
         22    1    3    3    0    0 -0.31389607989E+02  0.30910300315E+02  0.10466100230E+03  0.11355474256E+03  0.00000000000E+00 0.  1.
         22    1    4    4    0    0  0.29309081497E+02 -0.32777828700E+02  0.87434255166E+02  0.97868060616E+02  0.00000000000E+00 0.  1.
         22    1    4    4    0    0  0.20805264926E+01  0.18675283850E+01  0.46514412674E+01  0.54269843025E+01  0.00000000000E+00 0.  1.
<mgrwt>
<rscale>  0 0.91184247E+02</rscale>
<asrwt>0</asrwt>
<pdfrwt beam="2">  1        1 0.15463915E-02 0.91184247E+02</pdfrwt>
<pdfrwt beam="1">  1       -1 0.31815113E-01 0.91184247E+02</pdfrwt>
<totfact> 0.68741243E+04</totfact>
</mgrwt>
</event>
<event>
 7    1  0.3301067E-009  0.9038669E+02  0.7818608E-02  0.1301918E+00
          1   -1    0    0  501    0  0.00000000000E+00  0.00000000000E+00  0.89576846976E+01  0.89576861154E+01  0.50400000000E-02 0.  1.
         -1   -1    0    0    0  501 -0.00000000000E+00 -0.00000000000E+00 -0.22800963308E+03  0.22800963313E+03  0.50400000000E-02 0. -1.
         23    2    1    2    0    0  0.00000000000E+00  0.00000000000E+00 -0.21905194838E+03  0.23696731925E+03  0.90386693174E+02 0.  0.
    9000005    2    3    3    0    0  0.18005936522E+02  0.38803597739E+02 -0.85117883699E+02  0.96367651292E+02  0.14551190419E+02 0.  0.
         22    1    3    3    0    0 -0.18005936522E+02 -0.38803597739E+02 -0.13393406468E+03  0.14059966796E+03  0.00000000000E+00 0. -1.
         22    1    4    4    0    0 -0.17590917884E+01  0.70307737110E+01 -0.19885392974E+02  0.21164948302E+02  0.00000000000E+00 0.  1.
         22    1    4    4    0    0  0.19765028310E+02  0.31772824028E+02 -0.65232490725E+02  0.75202702990E+02  0.00000000000E+00 0.  1.
<mgrwt>
<rscale>  0 0.90386693E+02</rscale>
<asrwt>0</asrwt>
<pdfrwt beam="1">  1        1 0.13781056E-02 0.90386693E+02</pdfrwt>
<pdfrwt beam="2">  1       -1 0.35078401E-01 0.90386693E+02</pdfrwt>
<totfact> 0.68276227E+04</totfact>
</mgrwt>
</event>
<event>
 7    1  0.3301067E-009  0.8649692E+02  0.7818608E-02  0.1311564E+00
          1   -1    0    0  501    0  0.00000000000E+00  0.00000000000E+00  0.20356809338E+03  0.20356809344E+03  0.50400000000E-02 0. -1.
         -1   -1    0    0    0  501 -0.00000000000E+00 -0.00000000000E+00 -0.91882244948E+01  0.91882258771E+01  0.50400000000E-02 0.  1.
         23    2    1    2    0    0  0.82399365109E-16  0.00000000000E+00  0.19437986888E+03  0.21275631932E+03  0.86496924699E+02 0.  0.
    9000005    2    3    3    0    0 -0.42446966406E-02  0.35066123446E+02  0.15934025362E+03  0.16318407235E+03  0.31767929248E+01 0.  0.
         22    1    3    3    0    0  0.42446966406E-02 -0.35066123446E+02  0.35039615260E+02  0.49572246965E+02  0.00000000000E+00 0.  1.
         22    1    4    4    0    0 -0.11319160028E+01  0.64796084072E+01  0.27540258366E+02  0.28314879301E+02  0.00000000000E+00 0.  1.
         22    1    4    4    0    0  0.11276713061E+01  0.28586515039E+02  0.13179999526E+03  0.13486919305E+03  0.00000000000E+00 0.  1.
<mgrwt>
<rscale>  0 0.86496925E+02</rscale>
<asrwt>0</asrwt>
<pdfrwt beam="1">  1        1 0.31318166E-01 0.86496925E+02</pdfrwt>
<pdfrwt beam="2">  1       -1 0.14135732E-02 0.86496925E+02</pdfrwt>
<totfact> 0.13677316E+05</totfact>
</mgrwt>
</event>
<event>
 7    1  0.3301067E-009  0.9292098E+02  0.7818608E-02  0.1295928E+00
          1   -1    0    0  501    0  0.00000000000E+00  0.00000000000E+00  0.21879399710E+03  0.21879399716E+03  0.50400000000E-02 0. -1.
         -1   -1    0    0    0  501 -0.00000000000E+00 -0.00000000000E+00 -0.98657951812E+01  0.98657964686E+01  0.50400000000E-02 0.  1.
         23    2    1    2    0    0  0.00000000000E+00  0.00000000000E+00  0.20892820192E+03  0.22865979362E+03  0.92920975373E+02 0.  0.
    9000005    2    3    3    0    0  0.42365173458E+02 -0.97035190613E+01  0.73863576910E+02  0.86774561368E+02  0.13602584400E+02 0.  0.
         22    1    3    3    0    0 -0.42365173458E+02  0.97035190613E+01  0.13506462501E+03  0.14188523226E+03  0.00000000000E+00 0. -1.
         22    1    4    4    0    0  0.40633387660E+02 -0.55791934503E+01  0.67783719259E+02  0.79226461418E+02  0.00000000000E+00 0.  1.
         22    1    4    4    0    0  0.17317857984E+01 -0.41243256110E+01  0.60798576509E+01  0.75480999498E+01  0.00000000000E+00 0.  1.
<mgrwt>
<rscale>  0 0.92920975E+02</rscale>
<asrwt>0</asrwt>
<pdfrwt beam="1">  1        1 0.33660616E-01 0.92920975E+02</pdfrwt>
<pdfrwt beam="2">  1       -1 0.15178147E-02 0.92920975E+02</pdfrwt>
<totfact> 0.11452281E+05</totfact>
</mgrwt>
</event>
<event>
 7    1  0.3301067E-009  0.9682385E+02  0.7818608E-02  0.1287120E+00
         -1   -1    0    0    0  501 -0.00000000000E+00  0.00000000000E+00  0.54410930353E+02  0.54410930587E+02  0.50400000000E-02 0.  1.
          1   -1    0    0  501    0  0.00000000000E+00 -0.00000000000E+00 -0.43074327852E+02  0.43074328147E+02  0.50400000000E-02 0. -1.
         23    2    1    2    0    0 -0.22204460493E-15  0.00000000000E+00  0.11336602501E+02  0.97485258734E+02  0.96823845793E+02 0.  0.
    9000005    2    3    3    0    0 -0.17422657196E+01  0.46667606246E+02 -0.32606169853E+01  0.48556946078E+02  0.12893580835E+02 0.  0.
         22    1    3    3    0    0  0.17422657196E+01 -0.46667606246E+02  0.14597219486E+02  0.48928312656E+02  0.00000000000E+00 0.  1.
         22    1    4    4    0    0 -0.43494047399E+01  0.15574397559E+02  0.36987292520E+01  0.16587940770E+02  0.00000000000E+00 0.  1.
         22    1    4    4    0    0  0.26071390202E+01  0.31093208687E+02 -0.69593462373E+01  0.31969005308E+02  0.00000000000E+00 0.  1.
<mgrwt>
<rscale>  0 0.96823846E+02</rscale>
<asrwt>0</asrwt>
<pdfrwt beam="2">  1        1 0.66268197E-02 0.96823846E+02</pdfrwt>
<pdfrwt beam="1">  1       -1 0.83709124E-02 0.96823846E+02</pdfrwt>
<totfact> 0.77342150E+04</totfact>
</mgrwt>
</event>
<event>
 7    1  0.3301067E-009  0.9238958E+02  0.7818608E-02  0.1297166E+00
         -1   -1    0    0    0  501 -0.00000000000E+00  0.00000000000E+00  0.15672913338E+04  0.15672913338E+04  0.50400000000E-02 0.  1.
          1   -1    0    0  501    0  0.00000000000E+00 -0.00000000000E+00 -0.13615536446E+01  0.13615629727E+01  0.50400000000E-02 0. -1.
         23    2    1    2    0    0  0.35527136788E-14  0.00000000000E+00  0.15659297801E+04  0.15686528968E+04  0.92389578422E+02 0.  0.
    9000005    2    3    3    0    0 -0.24464268767E+02 -0.10268321328E+02  0.14235344415E+04  0.14238068704E+04  0.84710904156E+01 0.  0.
         22    1    3    3    0    0  0.24464268767E+02  0.10268321328E+02  0.14239533867E+03  0.14484602633E+03  0.00000000000E+00 0. -1.
         22    1    4    4    0    0 -0.18484697167E+02 -0.42887193355E+01  0.10904932469E+04  0.10906583327E+04  0.00000000000E+00 0. -1.
         22    1    4    4    0    0 -0.59795716005E+01 -0.59796019927E+01  0.33304119460E+03  0.33314853777E+03  0.00000000000E+00 0. -1.
<mgrwt>
<rscale>  0 0.92389578E+02</rscale>
<asrwt>0</asrwt>
<pdfrwt beam="2">  1        1 0.20947037E-03 0.92389578E+02</pdfrwt>
<pdfrwt beam="1">  1       -1 0.24112190E+00 0.92389578E+02</pdfrwt>
<totfact> 0.12209333E+04</totfact>
</mgrwt>
</event>
<event>
 7    1  0.3301067E-009  0.9317224E+02  0.7818608E-02  0.1295347E+00
         -1   -1    0    0    0  501 -0.00000000000E+00  0.00000000000E+00  0.33929406528E+02  0.33929406903E+02  0.50400000000E-02 0.  1.
          1   -1    0    0  501    0  0.00000000000E+00 -0.00000000000E+00 -0.63964177734E+02  0.63964177933E+02  0.50400000000E-02 0. -1.
         23    2    1    2    0    0  0.00000000000E+00  0.00000000000E+00 -0.30034771206E+02  0.97893584835E+02  0.93172240880E+02 0.  0.
    9000005    2    3    3    0    0 -0.40984672196E+02  0.20150833595E+02 -0.17901994629E+02  0.50638916103E+02  0.12570559366E+02 0.  0.
         22    1    3    3    0    0  0.40984672196E+02 -0.20150833595E+02 -0.12132776577E+02  0.47254668733E+02  0.00000000000E+00 0. -1.
         22    1    4    4    0    0 -0.26639267470E+02  0.91993444746E+01 -0.54309899559E+01  0.28701466199E+02  0.00000000000E+00 0.  1.
         22    1    4    4    0    0 -0.14345404726E+02  0.10951489120E+02 -0.12471004673E+02  0.21937449903E+02  0.00000000000E+00 0.  1.
<mgrwt>
<rscale>  0 0.93172241E+02</rscale>
<asrwt>0</asrwt>
<pdfrwt beam="2">  1        1 0.98406428E-02 0.93172241E+02</pdfrwt>
<pdfrwt beam="1">  1       -1 0.52199087E-02 0.93172241E+02</pdfrwt>
<totfact> 0.91640102E+04</totfact>
</mgrwt>
</event>
<event>
 7    1  0.3301067E-009  0.9099013E+02  0.7818608E-02  0.1300472E+00
          1   -1    0    0  501    0  0.00000000000E+00  0.00000000000E+00  0.54815868261E+02  0.54815868493E+02  0.50400000000E-02 0. -1.
         -1   -1    0    0    0  501 -0.00000000000E+00 -0.00000000000E+00 -0.37759151997E+02  0.37759152334E+02  0.50400000000E-02 0.  1.
         23    2    1    2    0    0  0.00000000000E+00  0.00000000000E+00  0.17056716264E+02  0.92575020826E+02  0.90990125351E+02 0.  0.
    9000005    2    3    3    0    0  0.72799831988E+01 -0.23107513091E+02 -0.29388133498E+02  0.40191059674E+02  0.12833688891E+02 0.  0.
         22    1    3    3    0    0 -0.72799831988E+01  0.23107513091E+02  0.46444849762E+02  0.52383961153E+02  0.00000000000E+00 0. -1.
         22    1    4    4    0    0  0.15146799460E+01 -0.29026452429E+01  0.83783925825E+00  0.33795827209E+01  0.00000000000E+00 0. -1.
         22    1    4    4    0    0  0.57653032528E+01 -0.20204867849E+02 -0.30225972756E+02  0.36811476953E+02  0.00000000000E+00 0. -1.
<mgrwt>
<rscale>  0 0.90990125E+02</rscale>
<asrwt>0</asrwt>
<pdfrwt beam="1">  1        1 0.84332106E-02 0.90990125E+02</pdfrwt>
<pdfrwt beam="2">  1       -1 0.58091003E-02 0.90990125E+02</pdfrwt>
<totfact> 0.95611556E+04</totfact>
</mgrwt>
</event>
<event>
 7    1  0.3301067E-009  0.9236950E+02  0.7818608E-02  0.1297213E+00
         -1   -1    0    0    0  501 -0.00000000000E+00  0.00000000000E+00  0.10362632649E+03  0.10362632661E+03  0.50400000000E-02 0.  1.
          1   -1    0    0  501    0  0.00000000000E+00 -0.00000000000E+00 -0.20583872957E+02  0.20583873574E+02  0.50400000000E-02 0. -1.
         23    2    1    2    0    0 -0.71054273576E-14 -0.71054273576E-14  0.83042453532E+02  0.12421020019E+03  0.92369501145E+02 0.  0.
    9000005    2    3    3    0    0 -0.35162932595E+02 -0.28382297075E+02  0.36279561806E+02  0.59181324612E+02  0.12009827729E+02 0.  0.
         22    1    3    3    0    0  0.35162932595E+02  0.28382297075E+02  0.46762891726E+02  0.65028875575E+02  0.00000000000E+00 0.  1.
         22    1    4    4    0    0 -0.48540238123E+01  0.48091527403E+00  0.32013623694E+01  0.58345134922E+01  0.00000000000E+00 0. -1.
         22    1    4    4    0    0 -0.30308908783E+02 -0.28863212349E+02  0.33078199437E+02  0.53346811120E+02  0.00000000000E+00 0. -1.
<mgrwt>
<rscale>  0 0.92369501E+02</rscale>
<asrwt>0</asrwt>
<pdfrwt beam="2">  1        1 0.31667497E-02 0.92369501E+02</pdfrwt>
<pdfrwt beam="1">  1       -1 0.15942512E-01 0.92369501E+02</pdfrwt>
<totfact> 0.78163036E+04</totfact>
</mgrwt>
</event>
<event>
 7    1  0.3301067E-009  0.9097087E+02  0.7818608E-02  0.1300517E+00
         -1   -1    0    0    0  501 -0.00000000000E+00  0.00000000000E+00  0.81876733965E+02  0.81876734120E+02  0.50400000000E-02 0.  1.
          1   -1    0    0  501    0  0.00000000000E+00 -0.00000000000E+00 -0.25268777247E+02  0.25268777750E+02  0.50400000000E-02 0. -1.
         23    2    1    2    0    0  0.88817841970E-15  0.00000000000E+00  0.56607956718E+02  0.10714551187E+03  0.90970874185E+02 0.  0.
    9000005    2    3    3    0    0  0.72017449491E+01  0.95754724683E+01  0.79169105803E+02  0.81600252987E+02  0.15725748652E+02 0.  0.
         22    1    3    3    0    0 -0.72017449491E+01 -0.95754724683E+01 -0.22561149085E+02  0.25545258882E+02  0.00000000000E+00 0. -1.
         22    1    4    4    0    0  0.12193998019E+02  0.57896327739E+01  0.54997330965E+02  0.56629672863E+02  0.00000000000E+00 0.  1.
         22    1    4    4    0    0 -0.49922530702E+01  0.37858396944E+01  0.24171774838E+02  0.24970580124E+02  0.00000000000E+00 0.  1.
<mgrwt>
<rscale>  0 0.90970874E+02</rscale>
<asrwt>0</asrwt>
<pdfrwt beam="2">  1        1 0.38875042E-02 0.90970874E+02</pdfrwt>
<pdfrwt beam="1">  1       -1 0.12596421E-01 0.90970874E+02</pdfrwt>
<totfact> 0.84808048E+04</totfact>
</mgrwt>
</event>
<event>
 7    1  0.3301067E-009  0.1019171E+03  0.7818608E-02  0.1276316E+00
          1   -1    0    0  501    0  0.00000000000E+00  0.00000000000E+00  0.60799156032E+02  0.60799156241E+02  0.50400000000E-02 0. -1.
         -1   -1    0    0    0  501 -0.00000000000E+00 -0.00000000000E+00 -0.42710649009E+02  0.42710649307E+02  0.50400000000E-02 0.  1.
         23    2    1    2    0    0  0.00000000000E+00  0.00000000000E+00  0.18088507023E+02  0.10350980555E+03  0.10191705332E+03 0.  0.
    9000005    2    3    3    0    0  0.86131949393E+00  0.50851503645E+02  0.63364467432E+01  0.51310876296E+02  0.24572697749E+01 0.  0.
         22    1    3    3    0    0 -0.86131949393E+00 -0.50851503645E+02  0.11752060280E+02  0.52198929252E+02  0.00000000000E+00 0. -1.
         22    1    4    4    0    0 -0.92841449732E-01  0.29937068995E+02  0.47859161707E+01  0.30317350035E+02  0.00000000000E+00 0. -1.
         22    1    4    4    0    0  0.95416094366E+00  0.20914434650E+02  0.15505305725E+01  0.20993526261E+02  0.00000000000E+00 0. -1.
<mgrwt>
<rscale>  0 0.10191705E+03</rscale>
<asrwt>0</asrwt>
<pdfrwt beam="1">  1        1 0.93537163E-02 0.10191705E+03</pdfrwt>
<pdfrwt beam="2">  1       -1 0.65708692E-02 0.10191705E+03</pdfrwt>
<totfact> 0.70714873E+04</totfact>
</mgrwt>
</event>
<event>
 7    1  0.3301067E-009  0.9586237E+02  0.7818608E-02  0.1289246E+00
         -1   -1    0    0    0  501 -0.00000000000E+00  0.00000000000E+00  0.11615354671E+02  0.11615355765E+02  0.50400000000E-02 0.  1.
          1   -1    0    0  501    0  0.00000000000E+00 -0.00000000000E+00 -0.19778975873E+03  0.19778975880E+03  0.50400000000E-02 0. -1.
         23    2    1    2    0    0  0.00000000000E+00  0.00000000000E+00 -0.18617440406E+03  0.20940511456E+03  0.95862366322E+02 0.  0.
    9000005    2    3    3    0    0  0.37538051585E+02  0.28253287780E+02 -0.11147603914E+03  0.12116000530E+03  0.67443305055E+01 0.  0.
         22    1    3    3    0    0 -0.37538051585E+02 -0.28253287780E+02 -0.74698364920E+02  0.88245109263E+02  0.00000000000E+00 0. -1.
         22    1    4    4    0    0  0.24108973343E+02  0.14680426689E+02 -0.71052950135E+02  0.76454425944E+02  0.00000000000E+00 0.  1.
         22    1    4    4    0    0  0.13429078242E+02  0.13572861091E+02 -0.40423089008E+02  0.44705579356E+02  0.00000000000E+00 0.  1.
<mgrwt>
<rscale>  0 0.95862366E+02</rscale>
<asrwt>0</asrwt>
<pdfrwt beam="2">  1        1 0.30429191E-01 0.95862366E+02</pdfrwt>
<pdfrwt beam="1">  1       -1 0.17869779E-02 0.95862366E+02</pdfrwt>
<totfact> 0.10324253E+05</totfact>
</mgrwt>
</event>
<event>
 7    1  0.3301067E-009  0.9150534E+02  0.7818608E-02  0.1299247E+00
          1   -1    0    0  501    0  0.00000000000E+00  0.00000000000E+00  0.27050511780E+02  0.27050512250E+02  0.50400000000E-02 0. -1.
         -1   -1    0    0    0  501 -0.00000000000E+00 -0.00000000000E+00 -0.77385110394E+02  0.77385110558E+02  0.50400000000E-02 0.  1.
         23    2    1    2    0    0 -0.35527136788E-14  0.35527136788E-14 -0.50334598613E+02  0.10443562281E+03  0.91505341339E+02 0.  0.
    9000005    2    3    3    0    0  0.26587286370E+02 -0.22613158900E+02 -0.58121207672E+02  0.68674330429E+02  0.10947608259E+02 0.  0.
         22    1    3    3    0    0 -0.26587286370E+02  0.22613158900E+02  0.77866090587E+01  0.35761292379E+02  0.00000000000E+00 0. -1.
         22    1    4    4    0    0  0.23715466736E+02 -0.19703116845E+02 -0.42368324795E+02  0.52399533603E+02  0.00000000000E+00 0. -1.
         22    1    4    4    0    0  0.28718196344E+01 -0.29100420556E+01 -0.15752882877E+02  0.16274796826E+02  0.00000000000E+00 0. -1.
<mgrwt>
<rscale>  0 0.91505341E+02</rscale>
<asrwt>0</asrwt>
<pdfrwt beam="1">  1        1 0.41616173E-02 0.91505341E+02</pdfrwt>
<pdfrwt beam="2">  1       -1 0.11905402E-01 0.91505341E+02</pdfrwt>
<totfact> 0.84344620E+04</totfact>
</mgrwt>
</event>
<event>
 7    1  0.3301067E-009  0.8457231E+02  0.7818608E-02  0.1316555E+00
         -1   -1    0    0    0  501 -0.00000000000E+00  0.00000000000E+00  0.24572266668E+03  0.24572266673E+03  0.50400000000E-02 0.  1.
          1   -1    0    0  501    0  0.00000000000E+00 -0.00000000000E+00 -0.72769796541E+01  0.72769813995E+01  0.50400000000E-02 0. -1.
         23    2    1    2    0    0  0.35527136788E-14  0.00000000000E+00  0.23844568703E+03  0.25299964813E+03  0.84572313988E+02 0.  0.
    9000005    2    3    3    0    0 -0.23287248357E+02 -0.17035762657E+02  0.21148708710E+03  0.21351193795E+03  0.52958938868E+01 0.  0.
         22    1    3    3    0    0  0.23287248357E+02  0.17035762657E+02  0.26958599925E+02  0.39487710180E+02  0.00000000000E+00 0. -1.
         22    1    4    4    0    0 -0.77904646902E+01 -0.29801336560E+01  0.53720382657E+02  0.54364069472E+02  0.00000000000E+00 0. -1.
         22    1    4    4    0    0 -0.15496783667E+02 -0.14055629001E+02  0.15776670445E+03  0.15914786848E+03  0.00000000000E+00 0. -1.
<mgrwt>
<rscale>  0 0.84572314E+02</rscale>
<asrwt>0</asrwt>
<pdfrwt beam="2">  1        1 0.11195356E-02 0.84572314E+02</pdfrwt>
<pdfrwt beam="1">  1       -1 0.37803482E-01 0.84572314E+02</pdfrwt>
<totfact> 0.79225542E+04</totfact>
</mgrwt>
</event>
<event>
 7    1  0.3301067E-009  0.8703772E+02  0.7818608E-02  0.1310188E+00
         -1   -1    0    0    0  501 -0.00000000000E+00  0.00000000000E+00  0.42858103397E+03  0.42858103400E+03  0.50400000000E-02 0.  1.
          1   -1    0    0  501    0  0.00000000000E+00 -0.00000000000E+00 -0.44189792174E+01  0.44189820915E+01  0.50400000000E-02 0. -1.
         23    2    1    2    0    0  0.00000000000E+00  0.00000000000E+00  0.42416205475E+03  0.43300001609E+03  0.87037723103E+02 0.  0.
    9000005    2    3    3    0    0 -0.35589689622E+02  0.52715054795E+01  0.32888028497E+03  0.33115194085E+03  0.14316120606E+02 0.  0.
         22    1    3    3    0    0  0.35589689622E+02 -0.52715054795E+01  0.95281769778E+02  0.10184807524E+03  0.00000000000E+00 0. -1.
         22    1    4    4    0    0 -0.36078825632E+02  0.33621784524E+01  0.29546989695E+03  0.29768346596E+03  0.00000000000E+00 0. -1.
         22    1    4    4    0    0  0.48913600976E+00  0.19093270270E+01  0.33410388022E+02  0.33468474891E+02  0.00000000000E+00 0. -1.
<mgrwt>
<rscale>  0 0.87037723E+02</rscale>
<asrwt>0</asrwt>
<pdfrwt beam="2">  1        1 0.67984289E-03 0.87037723E+02</pdfrwt>
<pdfrwt beam="1">  1       -1 0.65935572E-01 0.87037723E+02</pdfrwt>
<totfact> 0.58050145E+04</totfact>
</mgrwt>
</event>
<event>
 7    1  0.3301067E-009  0.9382951E+02  0.7818608E-02  0.1293834E+00
         -1   -1    0    0    0  501 -0.00000000000E+00  0.00000000000E+00  0.24286404934E+03  0.24286404939E+03  0.50400000000E-02 0.  1.
          1   -1    0    0  501    0  0.00000000000E+00 -0.00000000000E+00 -0.90626582904E+01  0.90626596918E+01  0.50400000000E-02 0. -1.
         23    2    1    2    0    0 -0.35527136788E-14  0.00000000000E+00  0.23380139105E+03  0.25192670908E+03  0.93829506517E+02 0.  0.
    9000005    2    3    3    0    0 -0.28546880349E+02 -0.36062533651E+02  0.11403012829E+03  0.12362789345E+03  0.12866824361E+02 0.  0.
         22    1    3    3    0    0  0.28546880349E+02  0.36062533651E+02  0.11977126275E+03  0.12829881563E+03  0.00000000000E+00 0. -1.
         22    1    4    4    0    0 -0.21175456312E+02 -0.19353644560E+02  0.80309469960E+02  0.85279390670E+02  0.00000000000E+00 0.  1.
         22    1    4    4    0    0 -0.73714240366E+01 -0.16708889091E+02  0.33720658334E+02  0.38348502780E+02  0.00000000000E+00 0.  1.
<mgrwt>
<rscale>  0 0.93829507E+02</rscale>
<asrwt>0</asrwt>
<pdfrwt beam="2">  1        1 0.13942555E-02 0.93829507E+02</pdfrwt>
<pdfrwt beam="1">  1       -1 0.37363693E-01 0.93829507E+02</pdfrwt>
<totfact> 0.60671927E+04</totfact>
</mgrwt>
</event>
<event>
 7    1  0.3301067E-009  0.8812664E+02  0.7818608E-02  0.1307453E+00
          1   -1    0    0  501    0  0.00000000000E+00  0.00000000000E+00  0.17915195849E+03  0.17915195856E+03  0.50400000000E-02 0. -1.
         -1   -1    0    0    0  501 -0.00000000000E+00 -0.00000000000E+00 -0.10837592088E+02  0.10837593260E+02  0.50400000000E-02 0.  1.
         23    2    1    2    0    0  0.35527136788E-14  0.00000000000E+00  0.16831436640E+03  0.18998955182E+03  0.88126635384E+02 0.  0.
    9000005    2    3    3    0    0  0.17957622370E+02  0.21847292137E+02  0.15612988568E+03  0.15919601443E+03  0.12924760395E+02 0.  0.
         22    1    3    3    0    0 -0.17957622370E+02 -0.21847292137E+02  0.12184480719E+02  0.30793537395E+02  0.00000000000E+00 0.  1.
         22    1    4    4    0    0  0.17592746376E+01 -0.15556522156E+01  0.72799975269E+01  0.76494094581E+01  0.00000000000E+00 0.  1.
         22    1    4    4    0    0  0.16198347732E+02  0.23402944352E+02  0.14884988816E+03  0.15154660497E+03  0.00000000000E+00 0.  1.
<mgrwt>
<rscale>  0 0.88126635E+02</rscale>
<asrwt>0</asrwt>
<pdfrwt beam="1">  1        1 0.27561836E-01 0.88126635E+02</pdfrwt>
<pdfrwt beam="2">  1       -1 0.16673222E-02 0.88126635E+02</pdfrwt>
<totfact> 0.12699119E+05</totfact>
</mgrwt>
</event>
<event>
 7    1  0.3301067E-009  0.9309113E+02  0.7818608E-02  0.1295534E+00
          1   -1    0    0  501    0  0.00000000000E+00  0.00000000000E+00  0.10332116584E+02  0.10332117813E+02  0.50400000000E-02 0. -1.
         -1   -1    0    0    0  501 -0.00000000000E+00 -0.00000000000E+00 -0.20968496599E+03  0.20968496605E+03  0.50400000000E-02 0.  1.
         23    2    1    2    0    0  0.00000000000E+00  0.00000000000E+00 -0.19935284941E+03  0.22001708386E+03  0.93091130757E+02 0.  0.
    9000005    2    3    3    0    0  0.33201149424E+02 -0.31100333735E+02 -0.11075070197E+03  0.12041845129E+03  0.12858395751E+02 0.  0.
         22    1    3    3    0    0 -0.33201149424E+02  0.31100333735E+02 -0.88602147433E+02  0.99598632577E+02  0.00000000000E+00 0. -1.
         22    1    4    4    0    0  0.64494568489E+01 -0.38025215011E+01 -0.32249268724E+02  0.33106947861E+02  0.00000000000E+00 0. -1.
         22    1    4    4    0    0  0.26751692575E+02 -0.27297812234E+02 -0.78501433250E+02  0.87311503427E+02  0.00000000000E+00 0. -1.
<mgrwt>
<rscale>  0 0.93091131E+02</rscale>
<asrwt>0</asrwt>
<pdfrwt beam="1">  1        1 0.15895566E-02 0.93091131E+02</pdfrwt>
<pdfrwt beam="2">  1       -1 0.32259223E-01 0.93091131E+02</pdfrwt>
<totfact> 0.64860284E+04</totfact>
</mgrwt>
</event>
<event>
 7    1  0.3301067E-009  0.8897205E+02  0.7818608E-02  0.1305360E+00
          1   -1    0    0  501    0  0.00000000000E+00  0.00000000000E+00  0.21165289910E+03  0.21165289916E+03  0.50400000000E-02 0. -1.
         -1   -1    0    0    0  501 -0.00000000000E+00 -0.00000000000E+00 -0.93502434882E+01  0.93502448465E+01  0.50400000000E-02 0.  1.
         23    2    1    2    0    0  0.71054273576E-14  0.00000000000E+00  0.20230265561E+03  0.22100314400E+03  0.88972047257E+02 0.  0.
    9000005    2    3    3    0    0  0.34664340447E+02  0.26154185104E+02  0.10431369555E+03  0.11382341555E+03  0.13739175813E+02 0.  0.
         22    1    3    3    0    0 -0.34664340447E+02 -0.26154185104E+02  0.97988960058E+02  0.10717972845E+03  0.00000000000E+00 0. -1.
         22    1    4    4    0    0  0.28916110220E+02  0.20966025811E+02  0.96158718710E+02  0.10257784777E+03  0.00000000000E+00 0. -1.
         22    1    4    4    0    0  0.57482302270E+01  0.51881592930E+01  0.81549768401E+01  0.11245567787E+02  0.00000000000E+00 0. -1.
<mgrwt>
<rscale>  0 0.88972047E+02</rscale>
<asrwt>0</asrwt>
<pdfrwt beam="1">  1        1 0.32561985E-01 0.88972047E+02</pdfrwt>
<pdfrwt beam="2">  1       -1 0.14384991E-02 0.88972047E+02</pdfrwt>
<totfact> 0.12781474E+05</totfact>
</mgrwt>
</event>
<event>
 7    1  0.3301067E-009  0.9069060E+02  0.7818608E-02  0.1301188E+00
          1   -1    0    0  501    0  0.00000000000E+00  0.00000000000E+00  0.22200100543E+03  0.22200100549E+03  0.50400000000E-02 0. -1.
         -1   -1    0    0    0  501 -0.00000000000E+00 -0.00000000000E+00 -0.92621028211E+01  0.92621041923E+01  0.50400000000E-02 0.  1.
         23    2    1    2    0    0  0.00000000000E+00  0.00000000000E+00  0.21273890261E+03  0.23126310968E+03  0.90690601583E+02 0.  0.
    9000005    2    3    3    0    0  0.17939933117E+02  0.12482031008E+02  0.20752818644E+03  0.20879549162E+03  0.70687237156E+01 0.  0.
         22    1    3    3    0    0 -0.17939933117E+02 -0.12482031008E+02  0.52107161689E+01  0.22467618061E+02  0.00000000000E+00 0.  1.
         22    1    4    4    0    0  0.59368075826E+00 -0.42871721756E+00  0.21876663191E+02  0.21888916092E+02  0.00000000000E+00 0.  1.
         22    1    4    4    0    0  0.17346252358E+02  0.12910748226E+02  0.18565152325E+03  0.18690657553E+03  0.00000000000E+00 0.  1.
<mgrwt>
<rscale>  0 0.90690602E+02</rscale>
<asrwt>0</asrwt>
<pdfrwt beam="1">  1        1 0.34154003E-01 0.90690602E+02</pdfrwt>
<pdfrwt beam="2">  1       -1 0.14249389E-02 0.90690602E+02</pdfrwt>
<totfact> 0.12257774E+05</totfact>
</mgrwt>
</event>
<event>
 7    1  0.3301067E-009  0.8412376E+02  0.7818608E-02  0.1317740E+00
         -1   -1    0    0    0  501 -0.00000000000E+00  0.00000000000E+00  0.21995795224E+02  0.21995795801E+02  0.50400000000E-02 0.  1.
          1   -1    0    0  501    0  0.00000000000E+00 -0.00000000000E+00 -0.80433639682E+02  0.80433639840E+02  0.50400000000E-02 0. -1.
         23    2    1    2    0    0  0.00000000000E+00  0.00000000000E+00 -0.58437844458E+02  0.10242943564E+03  0.84123763711E+02 0.  0.
    9000005    2    3    3    0    0  0.22598523533E+02 -0.12147452095E+02 -0.68507133401E+02  0.74867787685E+02  0.15928102455E+02 0.  0.
         22    1    3    3    0    0 -0.22598523533E+02  0.12147452095E+02  0.10069288943E+02  0.27561647956E+02  0.00000000000E+00 0.  1.
         22    1    4    4    0    0  0.19931871062E+02 -0.10944202849E+02 -0.38464356242E+02  0.44682902336E+02  0.00000000000E+00 0.  1.
         22    1    4    4    0    0  0.26666524708E+01 -0.12032492459E+01 -0.30042777159E+02  0.30184885349E+02  0.00000000000E+00 0.  1.
<mgrwt>
<rscale>  0 0.84123764E+02</rscale>
<asrwt>0</asrwt>
<pdfrwt beam="2">  1        1 0.12374406E-01 0.84123764E+02</pdfrwt>
<pdfrwt beam="1">  1       -1 0.33839686E-02 0.84123764E+02</pdfrwt>
<totfact> 0.12558957E+05</totfact>
</mgrwt>
</event>
<event>
 7    1  0.3301067E-009  0.9092634E+02  0.7818608E-02  0.1300624E+00
          1   -1    0    0  501    0  0.00000000000E+00  0.00000000000E+00  0.60676856515E+03  0.60676856517E+03  0.50400000000E-02 0. -1.
         -1   -1    0    0    0  501 -0.00000000000E+00 -0.00000000000E+00 -0.34064035964E+01  0.34064073249E+01  0.50400000000E-02 0.  1.
         23    2    1    2    0    0  0.17763568394E-14 -0.71054273576E-14  0.60336216155E+03  0.61017497250E+03  0.90926338679E+02 0.  0.
    9000005    2    3    3    0    0 -0.12964413772E+02  0.34165172320E+02  0.47789139341E+03  0.47949119890E+03  0.14010385358E+02 0.  0.
         22    1    3    3    0    0  0.12964413772E+02 -0.34165172320E+02  0.12547076814E+03  0.13068377360E+03  0.00000000000E+00 0.  1.
         22    1    4    4    0    0 -0.27736685200E+01 -0.57463632276E+00  0.26780281219E+02  0.26929665912E+02  0.00000000000E+00 0. -1.
         22    1    4    4    0    0 -0.10190745252E+02  0.34739808643E+02  0.45111111219E+03  0.45256153298E+03  0.00000000000E+00 0. -1.
<mgrwt>
<rscale>  0 0.90926339E+02</rscale>
<asrwt>0</asrwt>
<pdfrwt beam="1">  1        1 0.93349007E-01 0.90926339E+02</pdfrwt>
<pdfrwt beam="2">  1       -1 0.52406240E-03 0.90926339E+02</pdfrwt>
<totfact> 0.14271404E+05</totfact>
</mgrwt>
</event>
<event>
 7    1  0.3301067E-009  0.9782992E+02  0.7818608E-02  0.1284927E+00
          1   -1    0    0  501    0  0.00000000000E+00  0.00000000000E+00  0.65281935786E+01  0.65281955241E+01  0.50400000000E-02 0. -1.
         -1   -1    0    0    0  501 -0.00000000000E+00 -0.00000000000E+00 -0.36651377620E+03  0.36651377623E+03  0.50400000000E-02 0.  1.
         23    2    1    2    0    0  0.00000000000E+00 -0.44408920985E-15 -0.35998558262E+03  0.37304197176E+03  0.97829918728E+02 0.  0.
    9000005    2    3    3    0    0 -0.18869953123E+02 -0.38522487910E+01 -0.35107742772E+03  0.35182240119E+03  0.12358267158E+02 0.  0.
         22    1    3    3    0    0  0.18869953123E+02  0.38522487910E+01 -0.89081548970E+01  0.21219570573E+02  0.00000000000E+00 0. -1.
         22    1    4    4    0    0 -0.57134292893E+01  0.14635818378E+01 -0.41173241324E+02  0.41593522899E+02  0.00000000000E+00 0. -1.
         22    1    4    4    0    0 -0.13156523834E+02 -0.53158306288E+01 -0.30990418640E+03  0.31022887829E+03  0.00000000000E+00 0. -1.
<mgrwt>
<rscale>  0 0.97829919E+02</rscale>
<asrwt>0</asrwt>
<pdfrwt beam="1">  1        1 0.10043379E-02 0.97829919E+02</pdfrwt>
<pdfrwt beam="2">  1       -1 0.56386719E-01 0.97829919E+02</pdfrwt>
<totfact> 0.46213039E+04</totfact>
</mgrwt>
</event>
<event>
 7    1  0.3301067E-009  0.8491945E+02  0.7818608E-02  0.1315643E+00
          1   -1    0    0  501    0  0.00000000000E+00  0.00000000000E+00  0.12666372988E+03  0.12666372998E+03  0.50400000000E-02 0. -1.
         -1   -1    0    0    0  501 -0.00000000000E+00 -0.00000000000E+00 -0.14233183347E+02  0.14233184240E+02  0.50400000000E-02 0.  1.
         23    2    1    2    0    0  0.31918911958E-15  0.00000000000E+00  0.11243054653E+03  0.14089691422E+03  0.84919447968E+02 0.  0.
    9000005    2    3    3    0    0 -0.50053305428E-01 -0.21906150560E+02 -0.32020918800E+00  0.26037805512E+02  0.14070637664E+02 0.  0.
         22    1    3    3    0    0  0.50053305428E-01  0.21906150560E+02  0.11275075572E+03  0.11485910871E+03  0.00000000000E+00 0. -1.
         22    1    4    4    0    0 -0.32616252300E+01 -0.80563850285E+01  0.59150112851E+01  0.10513367556E+02  0.00000000000E+00 0. -1.
         22    1    4    4    0    0  0.32115719245E+01 -0.13849765531E+02 -0.62352204731E+01  0.15524437956E+02  0.00000000000E+00 0. -1.
<mgrwt>
<rscale>  0 0.84919448E+02</rscale>
<asrwt>0</asrwt>
<pdfrwt beam="1">  1        1 0.19486728E-01 0.84919448E+02</pdfrwt>
<pdfrwt beam="2">  1       -1 0.21897206E-02 0.84919448E+02</pdfrwt>
<totfact> 0.13173502E+05</totfact>
</mgrwt>
</event>
<event>
 7    1  0.3301067E-009  0.9060522E+02  0.7818608E-02  0.1301393E+00
         -1   -1    0    0    0  501 -0.00000000000E+00  0.00000000000E+00  0.12117254588E+02  0.12117255636E+02  0.50400000000E-02 0.  1.
          1   -1    0    0  501    0  0.00000000000E+00 -0.00000000000E+00 -0.16937220974E+03  0.16937220982E+03  0.50400000000E-02 0. -1.
         23    2    1    2    0    0  0.00000000000E+00  0.00000000000E+00 -0.15725495515E+03  0.18148946545E+03  0.90605215910E+02 0.  0.
    9000005    2    3    3    0    0  0.10806185877E+02  0.41223131363E+02 -0.53020127552E+02  0.68879432607E+02  0.10822296336E+02 0.  0.
         22    1    3    3    0    0 -0.10806185877E+02 -0.41223131363E+02 -0.10423482760E+03  0.11261003285E+03  0.00000000000E+00 0.  1.
         22    1    4    4    0    0  0.12540058151E+02  0.28892378492E+02 -0.38928085961E+02  0.50074129747E+02  0.00000000000E+00 0. -1.
         22    1    4    4    0    0 -0.17338722741E+01  0.12330752871E+02 -0.14092041591E+02  0.18805302860E+02  0.00000000000E+00 0. -1.
<mgrwt>
<rscale>  0 0.90605216E+02</rscale>
<asrwt>0</asrwt>
<pdfrwt beam="2">  1        1 0.26057262E-01 0.90605216E+02</pdfrwt>
<pdfrwt beam="1">  1       -1 0.18641932E-02 0.90605216E+02</pdfrwt>
<totfact> 0.11665128E+05</totfact>
</mgrwt>
</event>
<event>
 7    1  0.3397508E-009  0.9019436E+02  0.7818608E-02  0.1302382E+00
         -1   -1    0    0    0  501 -0.00000000000E+00  0.00000000000E+00  0.19037623321E+02  0.19037623988E+02  0.50400000000E-02 0.  1.
          1   -1    0    0  501    0  0.00000000000E+00 -0.00000000000E+00 -0.10682822842E+03  0.10682822854E+03  0.50400000000E-02 0. -1.
         23    2    1    2    0    0  0.71054273576E-14  0.00000000000E+00 -0.87790605104E+02  0.12586585253E+03  0.90194359519E+02 0.  0.
    9000005    2    3    3    0    0 -0.40205155637E+02 -0.88690659903E+01 -0.24360386235E+02  0.50245038353E+02  0.15362961635E+02 0.  0.
         22    1    3    3    0    0  0.40205155637E+02  0.88690659903E+01 -0.63430218868E+02  0.75620814179E+02  0.00000000000E+00 0. -1.
         22    1    4    4    0    0 -0.33219473436E+02 -0.73292639145E+01 -0.12206117684E+02  0.36141953929E+02  0.00000000000E+00 0.  1.
         22    1    4    4    0    0 -0.69856822018E+01 -0.15398020758E+01 -0.12154268552E+02  0.14103084425E+02  0.00000000000E+00 0.  1.
<mgrwt>
<rscale>  0 0.90194360E+02</rscale>
<asrwt>0</asrwt>
<pdfrwt beam="2">  1        1 0.16435112E-01 0.90194360E+02</pdfrwt>
<pdfrwt beam="1">  1       -1 0.29288653E-02 0.90194360E+02</pdfrwt>
<totfact> 0.10876993E+05</totfact>
</mgrwt>
</event>
<event>
 7    1  0.3301067E-009  0.9191288E+02  0.7818608E-02  0.1298284E+00
          1   -1    0    0  501    0  0.00000000000E+00  0.00000000000E+00  0.85617287393E+02  0.85617287542E+02  0.50400000000E-02 0. -1.
         -1   -1    0    0    0  501 -0.00000000000E+00 -0.00000000000E+00 -0.24667850030E+02  0.24667850545E+02  0.50400000000E-02 0.  1.
         23    2    1    2    0    0  0.00000000000E+00  0.00000000000E+00  0.60949437363E+02  0.11028513809E+03  0.91912881404E+02 0.  0.
    9000005    2    3    3    0    0  0.16745332121E+02  0.27642704147E+02  0.68709589391E+02  0.77047430586E+02  0.13068039074E+02 0.  0.
         22    1    3    3    0    0 -0.16745332121E+02 -0.27642704147E+02 -0.77601520276E+01  0.33237707501E+02  0.00000000000E+00 0.  1.
         22    1    4    4    0    0  0.59340415507E+00 -0.13756418147E+01  0.17455957271E+01  0.23003528721E+01  0.00000000000E+00 0.  1.
         22    1    4    4    0    0  0.16151927966E+02  0.29018345962E+02  0.66963993664E+02  0.74747077714E+02  0.00000000000E+00 0.  1.
<mgrwt>
<rscale>  0 0.91912881E+02</rscale>
<asrwt>0</asrwt>
<pdfrwt beam="1">  1        1 0.13171890E-01 0.91912881E+02</pdfrwt>
<pdfrwt beam="2">  1       -1 0.37950540E-02 0.91912881E+02</pdfrwt>
<totfact> 0.99615945E+04</totfact>
</mgrwt>
</event>
<event>
 7    1  0.3301067E-009  0.9085908E+02  0.7818608E-02  0.1300785E+00
          1   -1    0    0  501    0  0.00000000000E+00  0.00000000000E+00  0.34925398769E+03  0.34925398773E+03  0.50400000000E-02 0. -1.
         -1   -1    0    0    0  501 -0.00000000000E+00 -0.00000000000E+00 -0.59092892772E+01  0.59092914265E+01  0.50400000000E-02 0.  1.
         23    2    1    2    0    0  0.00000000000E+00  0.00000000000E+00  0.34334469841E+03  0.35516327915E+03  0.90859082818E+02 0.  0.
    9000005    2    3    3    0    0 -0.44162467257E+02 -0.75518248703E+01  0.15302444731E+03  0.15964051436E+03  0.78267986402E+01 0.  0.
         22    1    3    3    0    0  0.44162467257E+02  0.75518248703E+01  0.19032025111E+03  0.19552276480E+03  0.00000000000E+00 0. -1.
         22    1    4    4    0    0 -0.29552593826E+02 -0.67461242005E+01  0.91098609023E+02  0.96009492029E+02  0.00000000000E+00 0.  1.
         22    1    4    4    0    0 -0.14609873431E+02 -0.80570066975E+00  0.61925838284E+02  0.63631022328E+02  0.00000000000E+00 0.  1.
<mgrwt>
<rscale>  0 0.90859083E+02</rscale>
<asrwt>0</asrwt>
<pdfrwt beam="1">  1        1 0.53731403E-01 0.90859083E+02</pdfrwt>
<pdfrwt beam="2">  1       -1 0.90912125E-03 0.90859083E+02</pdfrwt>
<totfact> 0.13301111E+05</totfact>
</mgrwt>
</event>
<event>
 7    1  0.3301067E-009  0.9356361E+02  0.7818608E-02  0.1294444E+00
         -1   -1    0    0    0  501 -0.00000000000E+00  0.00000000000E+00  0.48853769388E+02  0.48853769648E+02  0.50400000000E-02 0.  1.
          1   -1    0    0  501    0  0.00000000000E+00 -0.00000000000E+00 -0.44797714996E+02  0.44797715279E+02  0.50400000000E-02 0. -1.
         23    2    1    2    0    0  0.00000000000E+00  0.00000000000E+00  0.40560543929E+01  0.93651484928E+02  0.93563609656E+02 0.  0.
    9000005    2    3    3    0    0  0.22014528316E+02 -0.14260899334E+02 -0.36588312049E+02  0.45278173792E+02  0.48369139525E+01 0.  0.
         22    1    3    3    0    0 -0.22014528316E+02  0.14260899334E+02  0.40644366442E+02  0.48373311136E+02  0.00000000000E+00 0.  1.
         22    1    4    4    0    0  0.17965090932E+02 -0.93121537045E+01 -0.26677139536E+02  0.33483286467E+02  0.00000000000E+00 0.  1.
         22    1    4    4    0    0  0.40494373834E+01 -0.49487456290E+01 -0.99111725129E+01  0.11794887325E+02  0.00000000000E+00 0.  1.
<mgrwt>
<rscale>  0 0.93563610E+02</rscale>
<asrwt>0</asrwt>
<pdfrwt beam="2">  1        1 0.68919562E-02 0.93563610E+02</pdfrwt>
<pdfrwt beam="1">  1       -1 0.75159645E-02 0.93563610E+02</pdfrwt>
<totfact> 0.85752231E+04</totfact>
</mgrwt>
</event>
<event>
 7    1  0.3301067E-009  0.9001015E+02  0.7818608E-02  0.1302827E+00
         -1   -1    0    0    0  501 -0.00000000000E+00  0.00000000000E+00  0.49263863743E+02  0.49263864001E+02  0.50400000000E-02 0.  1.
          1   -1    0    0  501    0  0.00000000000E+00 -0.00000000000E+00 -0.41114454030E+02  0.41114454339E+02  0.50400000000E-02 0. -1.
         23    2    1    2    0    0  0.35527136788E-14 -0.44408920985E-15  0.81494097127E+01  0.90378318340E+02  0.90010152468E+02 0.  0.
    9000005    2    3    3    0    0  0.29596152019E+02 -0.34089008980E+01  0.36810490849E+02  0.49038139439E+02  0.12734758085E+02 0.  0.
         22    1    3    3    0    0 -0.29596152019E+02  0.34089008980E+01 -0.28661081136E+02  0.41340178901E+02  0.00000000000E+00 0. -1.
         22    1    4    4    0    0  0.64266118692E+01 -0.39530085505E+01  0.31626791569E+01  0.81810852683E+01  0.00000000000E+00 0. -1.
         22    1    4    4    0    0  0.23169540150E+02  0.54410765255E+00  0.33647811692E+02  0.40857054171E+02  0.00000000000E+00 0. -1.
<mgrwt>
<rscale>  0 0.90010152E+02</rscale>
<asrwt>0</asrwt>
<pdfrwt beam="2">  1        1 0.63253006E-02 0.90010152E+02</pdfrwt>
<pdfrwt beam="1">  1       -1 0.75790560E-02 0.90010152E+02</pdfrwt>
<totfact> 0.94404427E+04</totfact>
</mgrwt>
</event>
<event>
 7    1  0.3301067E-009  0.9055954E+02  0.7818608E-02  0.1301502E+00
          1   -1    0    0  501    0  0.00000000000E+00  0.00000000000E+00  0.36951327920E+02  0.36951328264E+02  0.50400000000E-02 0. -1.
         -1   -1    0    0    0  501 -0.00000000000E+00 -0.00000000000E+00 -0.55485356166E+02  0.55485356395E+02  0.50400000000E-02 0.  1.
         23    2    1    2    0    0  0.00000000000E+00  0.00000000000E+00 -0.18534028245E+02  0.92436684658E+02  0.90559541008E+02 0.  0.
    9000005    2    3    3    0    0  0.16869333708E+02 -0.40950336836E+02 -0.11551287472E+02  0.47600726150E+02  0.13072581270E+02 0.  0.
         22    1    3    3    0    0 -0.16869333708E+02  0.40950336836E+02 -0.69827407737E+01  0.44835958509E+02  0.00000000000E+00 0.  1.
         22    1    4    4    0    0  0.17519295634E+02 -0.28371327682E+02 -0.10511386872E+02  0.34962082431E+02  0.00000000000E+00 0.  1.
         22    1    4    4    0    0 -0.64996192607E+00 -0.12579009154E+02 -0.10399005993E+01  0.12638643719E+02  0.00000000000E+00 0.  1.
<mgrwt>
<rscale>  0 0.90559541E+02</rscale>
<asrwt>0</asrwt>
<pdfrwt beam="1">  1        1 0.56848197E-02 0.90559541E+02</pdfrwt>
<pdfrwt beam="2">  1       -1 0.85362087E-02 0.90559541E+02</pdfrwt>
<totfact> 0.91312566E+04</totfact>
</mgrwt>
</event>
<event>
 7    1  0.3301067E-009  0.9074936E+02  0.7818608E-02  0.1301047E+00
          1   -1    0    0  501    0  0.00000000000E+00  0.00000000000E+00  0.81357731030E+02  0.81357731186E+02  0.50400000000E-02 0. -1.
         -1   -1    0    0    0  501 -0.00000000000E+00 -0.00000000000E+00 -0.25306282290E+02  0.25306282792E+02  0.50400000000E-02 0.  1.
         23    2    1    2    0    0  0.00000000000E+00  0.35527136788E-14  0.56051448740E+02  0.10666401398E+03  0.90749363480E+02 0.  0.
    9000005    2    3    3    0    0  0.30341106538E+02 -0.21206354076E+02 -0.76984454134E+00  0.38848443721E+02  0.11760812890E+02 0.  0.
         22    1    3    3    0    0 -0.30341106538E+02  0.21206354076E+02  0.56821293281E+02  0.67815570257E+02  0.00000000000E+00 0.  1.
         22    1    4    4    0    0  0.30338905745E+02 -0.22233761678E+02 -0.14061324668E+01  0.37639959733E+02  0.00000000000E+00 0.  1.
         22    1    4    4    0    0  0.22007921702E-02  0.10274076025E+01  0.63628792544E+00  0.12084839880E+01  0.00000000000E+00 0.  1.
<mgrwt>
<rscale>  0 0.90749363E+02</rscale>
<asrwt>0</asrwt>
<pdfrwt beam="1">  1        1 0.12516574E-01 0.90749363E+02</pdfrwt>
<pdfrwt beam="2">  1       -1 0.38932743E-02 0.90749363E+02</pdfrwt>
<totfact> 0.10232241E+05</totfact>
</mgrwt>
</event>
<event>
 7    1  0.3301067E-009  0.9047672E+02  0.7818608E-02  0.1301701E+00
         -1   -1    0    0    0  501 -0.00000000000E+00  0.00000000000E+00  0.28704613390E+01  0.28704657636E+01  0.50400000000E-02 0.  1.
          1   -1    0    0  501    0  0.00000000000E+00 -0.00000000000E+00 -0.71295428991E+03  0.71295428993E+03  0.50400000000E-02 0. -1.
         23    2    1    2    0    0  0.00000000000E+00  0.35527136788E-14 -0.71008382857E+03  0.71582475569E+03  0.90476722214E+02 0.  0.
    9000005    2    3    3    0    0  0.58642936869E+01 -0.25907111797E+02 -0.64252016968E+03  0.64322712223E+03  0.14261624676E+02 0.  0.
         22    1    3    3    0    0 -0.58642936869E+01  0.25907111797E+02 -0.67563658886E+02  0.72597633461E+02  0.00000000000E+00 0.  1.
         22    1    4    4    0    0  0.82869057273E+01 -0.84109493168E+01 -0.19371725809E+03  0.19407677078E+03  0.00000000000E+00 0. -1.
         22    1    4    4    0    0 -0.24226120404E+01 -0.17496162480E+02 -0.44880291159E+03  0.44915035144E+03  0.00000000000E+00 0. -1.
<mgrwt>
<rscale>  0 0.90476722E+02</rscale>
<asrwt>0</asrwt>
<pdfrwt beam="2">  1        1 0.10968513E+00 0.90476722E+02</pdfrwt>
<pdfrwt beam="1">  1       -1 0.44161035E-03 0.90476722E+02</pdfrwt>
<totfact> 0.14506509E+05</totfact>
</mgrwt>
</event>
<event>
 7    1  0.3301067E-009  0.8228271E+02  0.7818608E-02  0.1322695E+00
         -1   -1    0    0    0  501 -0.00000000000E+00  0.00000000000E+00  0.47335795898E+02  0.47335796166E+02  0.50400000000E-02 0.  1.
          1   -1    0    0  501    0  0.00000000000E+00 -0.00000000000E+00 -0.35757525300E+02  0.35757525655E+02  0.50400000000E-02 0. -1.
         23    2    1    2    0    0  0.00000000000E+00  0.00000000000E+00  0.11578270598E+02  0.83093321821E+02  0.82282706453E+02 0.  0.
    9000005    2    3    3    0    0  0.42418278147E+01 -0.36190452923E+02 -0.12581486635E+02  0.39373350920E+02  0.80140483373E+01 0.  0.
         22    1    3    3    0    0 -0.42418278147E+01  0.36190452923E+02  0.24159757234E+02  0.43719970901E+02  0.00000000000E+00 0.  1.
         22    1    4    4    0    0  0.95332528769E+00 -0.27848344480E+02 -0.67292120133E+01  0.28665683555E+02  0.00000000000E+00 0. -1.
         22    1    4    4    0    0  0.32885025270E+01 -0.83421084433E+01 -0.58522746221E+01  0.10707667365E+02  0.00000000000E+00 0. -1.
<mgrwt>
<rscale>  0 0.82282706E+02</rscale>
<asrwt>0</asrwt>
<pdfrwt beam="2">  1        1 0.55011578E-02 0.82282706E+02</pdfrwt>
<pdfrwt beam="1">  1       -1 0.72824301E-02 0.82282706E+02</pdfrwt>
<totfact> 0.11896220E+05</totfact>
</mgrwt>
</event>
<event>
 7    1  0.3301067E-009  0.9131913E+02  0.7818608E-02  0.1299688E+00
         -1   -1    0    0    0  501 -0.00000000000E+00  0.00000000000E+00  0.12782634887E+02  0.12782635880E+02  0.50400000000E-02 0.  1.
          1   -1    0    0  501    0  0.00000000000E+00 -0.00000000000E+00 -0.16309592484E+03  0.16309592492E+03  0.50400000000E-02 0. -1.
         23    2    1    2    0    0  0.00000000000E+00  0.00000000000E+00 -0.15031328995E+03  0.17587856080E+03  0.91319127305E+02 0.  0.
    9000005    2    3    3    0    0  0.20885836615E+02 -0.24502966297E+02 -0.13393353768E+02  0.35224081831E+02  0.49739810221E+01 0.  0.
         22    1    3    3    0    0 -0.20885836615E+02  0.24502966297E+02 -0.13691993618E+03  0.14065447897E+03  0.00000000000E+00 0. -1.
         22    1    4    4    0    0  0.52836989976E+01 -0.34905735257E+01 -0.35712484271E+01  0.72701715223E+01  0.00000000000E+00 0. -1.
         22    1    4    4    0    0  0.15602137617E+02 -0.21012392771E+02 -0.98221053408E+01  0.27953910309E+02  0.00000000000E+00 0. -1.
<mgrwt>
<rscale>  0 0.91319127E+02</rscale>
<asrwt>0</asrwt>
<pdfrwt beam="2">  1        1 0.25091679E-01 0.91319127E+02</pdfrwt>
<pdfrwt beam="1">  1       -1 0.19665594E-02 0.91319127E+02</pdfrwt>
<totfact> 0.11340880E+05</totfact>
</mgrwt>
</event>
<event>
 7    1  0.3301067E-009  0.9030079E+02  0.7818608E-02  0.1302125E+00
         -1   -1    0    0    0  501 -0.00000000000E+00  0.00000000000E+00  0.38841901339E+02  0.38841901666E+02  0.50400000000E-02 0.  1.
          1   -1    0    0  501    0  0.00000000000E+00 -0.00000000000E+00 -0.52483478302E+02  0.52483478544E+02  0.50400000000E-02 0. -1.
         23    2    1    2    0    0  0.00000000000E+00  0.00000000000E+00 -0.13641576962E+02  0.91325380210E+02  0.90300788748E+02 0.  0.
    9000005    2    3    3    0    0 -0.29740597448E+02 -0.16816066096E+02 -0.36005547549E+02  0.50491198500E+02  0.92562657750E+01 0.  0.
         22    1    3    3    0    0  0.29740597448E+02  0.16816066096E+02  0.22363970586E+02  0.40834181710E+02  0.00000000000E+00 0.  1.
         22    1    4    4    0    0 -0.27476127854E+02 -0.12627411499E+02 -0.28198393643E+02  0.41346566086E+02  0.00000000000E+00 0. -1.
         22    1    4    4    0    0 -0.22644695942E+01 -0.41886545975E+01 -0.78071539057E+01  0.91446324140E+01  0.00000000000E+00 0. -1.
<mgrwt>
<rscale>  0 0.90300789E+02</rscale>
<asrwt>0</asrwt>
<pdfrwt beam="2">  1        1 0.80743813E-02 0.90300789E+02</pdfrwt>
<pdfrwt beam="1">  1       -1 0.59756772E-02 0.90300789E+02</pdfrwt>
<totfact> 0.97022624E+04</totfact>
</mgrwt>
</event>
<event>
 7    1  0.3301067E-009  0.9322967E+02  0.7818608E-02  0.1295214E+00
         -1   -1    0    0    0  501 -0.00000000000E+00  0.00000000000E+00  0.37939739644E+01  0.37939773120E+01  0.50400000000E-02 0.  1.
          1   -1    0    0  501    0  0.00000000000E+00 -0.00000000000E+00 -0.57273510472E+03  0.57273510474E+03  0.50400000000E-02 0. -1.
         23    2    1    2    0    0  0.35527136788E-14  0.00000000000E+00 -0.56894113075E+03  0.57652908205E+03  0.93229674400E+02 0.  0.
    9000005    2    3    3    0    0  0.28000495970E+02  0.16850487268E+02 -0.48920808494E+03  0.49035875485E+03  0.76935940613E+01 0.  0.
         22    1    3    3    0    0 -0.28000495970E+02 -0.16850487268E+02 -0.79733045810E+02  0.86170327201E+02  0.00000000000E+00 0.  1.
         22    1    4    4    0    0  0.14582781110E+01  0.24567713438E+01 -0.73544117035E+02  0.73599588660E+02  0.00000000000E+00 0.  1.
         22    1    4    4    0    0  0.26542217859E+02  0.14393715925E+02 -0.41566396791E+03  0.41675916619E+03  0.00000000000E+00 0.  1.
<mgrwt>
<rscale>  0 0.93229674E+02</rscale>
<asrwt>0</asrwt>
<pdfrwt beam="2">  1        1 0.88113024E-01 0.93229674E+02</pdfrwt>
<pdfrwt beam="1">  1       -1 0.58368902E-03 0.93229674E+02</pdfrwt>
<totfact> 0.13304800E+05</totfact>
</mgrwt>
</event>
<event>
 7    1  0.3301067E-009  0.9030505E+02  0.7818608E-02  0.1302115E+00
          1   -1    0    0  501    0  0.00000000000E+00  0.00000000000E+00  0.19623287987E+02  0.19623288634E+02  0.50400000000E-02 0. -1.
         -1   -1    0    0    0  501 -0.00000000000E+00 -0.00000000000E+00 -0.10389443522E+03  0.10389443535E+03  0.50400000000E-02 0.  1.
         23    2    1    2    0    0 -0.88817841970E-15  0.00000000000E+00 -0.84271147237E+02  0.12351772398E+03  0.90305049031E+02 0.  0.
    9000005    2    3    3    0    0 -0.74509516133E+01 -0.18799143817E+02  0.99043867094E+01  0.27195578643E+02  0.15250512564E+02 0.  0.
         22    1    3    3    0    0  0.74509516133E+01  0.18799143817E+02 -0.94175533946E+02  0.96322145337E+02  0.00000000000E+00 0.  1.
         22    1    4    4    0    0 -0.85218328318E+01 -0.79718732444E+01  0.11278691058E+02  0.16229025535E+02  0.00000000000E+00 0.  1.
         22    1    4    4    0    0  0.10708812184E+01 -0.10827270572E+02 -0.13743043483E+01  0.10966553108E+02  0.00000000000E+00 0.  1.
<mgrwt>
<rscale>  0 0.90305049E+02</rscale>
<asrwt>0</asrwt>
<pdfrwt beam="1">  1        1 0.30189675E-02 0.90305049E+02</pdfrwt>
<pdfrwt beam="2">  1       -1 0.15983759E-01 0.90305049E+02</pdfrwt>
<totfact> 0.82812985E+04</totfact>
</mgrwt>
</event>
<event>
 7    1  0.3301067E-009  0.9088867E+02  0.7818608E-02  0.1300714E+00
         -1   -1    0    0    0  501 -0.00000000000E+00  0.00000000000E+00  0.17848777773E+03  0.17848777780E+03  0.50400000000E-02 0.  1.
          1   -1    0    0  501    0  0.00000000000E+00 -0.00000000000E+00 -0.11570468704E+02  0.11570469802E+02  0.50400000000E-02 0. -1.
         23    2    1    2    0    0 -0.35527136788E-14  0.00000000000E+00  0.16691730902E+03  0.19005824760E+03  0.90888665021E+02 0.  0.
    9000005    2    3    3    0    0  0.26672596969E+02  0.34631798154E+02  0.59576722651E+02  0.74158332350E+02  0.62676552669E+01 0.  0.
         22    1    3    3    0    0 -0.26672596969E+02 -0.34631798154E+02  0.10734058637E+03  0.11589991525E+03  0.00000000000E+00 0.  1.
         22    1    4    4    0    0  0.23335379236E+02  0.29584215491E+02  0.54513953444E+02  0.66268671711E+02  0.00000000000E+00 0. -1.
         22    1    4    4    0    0  0.33372177335E+01  0.50475826633E+01  0.50627692076E+01  0.78896606386E+01  0.00000000000E+00 0. -1.
<mgrwt>
<rscale>  0 0.90888665E+02</rscale>
<asrwt>0</asrwt>
<pdfrwt beam="2">  1        1 0.17800722E-02 0.90888665E+02</pdfrwt>
<pdfrwt beam="1">  1       -1 0.27459658E-01 0.90888665E+02</pdfrwt>
<totfact> 0.72221370E+04</totfact>
</mgrwt>
</event>
<event>
 7    1  0.3301067E-009  0.9254433E+02  0.7818608E-02  0.1296805E+00
          1   -1    0    0  501    0  0.00000000000E+00  0.00000000000E+00  0.68970866286E+03  0.68970866288E+03  0.50400000000E-02 0. -1.
         -1   -1    0    0    0  501 -0.00000000000E+00 -0.00000000000E+00 -0.31043712423E+01  0.31043753336E+01  0.50400000000E-02 0.  1.
         23    2    1    2    0    0  0.00000000000E+00  0.17763568394E-14  0.68660429162E+03  0.69281303822E+03  0.92544328020E+02 0.  0.
    9000005    2    3    3    0    0 -0.18199234110E+02  0.95975727787E+01  0.65337225234E+03  0.65372731243E+03  0.63854023818E+01 0.  0.
         22    1    3    3    0    0  0.18199234110E+02 -0.95975727787E+01  0.33232039284E+02  0.39085725789E+02  0.00000000000E+00 0.  1.
         22    1    4    4    0    0 -0.12513956283E+02  0.93710223327E+01  0.43466994010E+03  0.43495099952E+03  0.00000000000E+00 0. -1.
         22    1    4    4    0    0 -0.56852778272E+01  0.22655044599E+00  0.21870231224E+03  0.21877631290E+03  0.00000000000E+00 0. -1.
<mgrwt>
<rscale>  0 0.92544328E+02</rscale>
<asrwt>0</asrwt>
<pdfrwt beam="1">  1        1 0.10610908E+00 0.92544328E+02</pdfrwt>
<pdfrwt beam="2">  1       -1 0.47759564E-03 0.92544328E+02</pdfrwt>
<totfact> 0.13669174E+05</totfact>
</mgrwt>
</event>
<event>
 7    1  0.3301067E-009  0.9063377E+02  0.7818608E-02  0.1301324E+00
         -1   -1    0    0    0  501 -0.00000000000E+00  0.00000000000E+00  0.18956257827E+04  0.18956257827E+04  0.50400000000E-02 0.  1.
          1   -1    0    0  501    0  0.00000000000E+00 -0.00000000000E+00 -0.10833409204E+01  0.10833526441E+01  0.50400000000E-02 0. -1.
         23    2    1    2    0    0  0.22204460493E-15  0.00000000000E+00  0.18945424418E+04  0.18967091354E+04  0.90633770852E+02 0.  0.
    9000005    2    3    3    0    0 -0.15567128916E+01  0.20690814866E+02  0.17900565200E+04  0.17901828896E+04  0.46797861967E+01 0.  0.
         22    1    3    3    0    0  0.15567128916E+01 -0.20690814866E+02  0.10448592185E+03  0.10652624578E+03  0.00000000000E+00 0. -1.
         22    1    4    4    0    0 -0.27237711678E+01  0.18444255522E+02  0.15149641211E+04  0.15150788420E+04  0.00000000000E+00 0.  1.
         22    1    4    4    0    0  0.11670582762E+01  0.22465593446E+01  0.27509239890E+03  0.27510404756E+03  0.00000000000E+00 0.  1.
<mgrwt>
<rscale>  0 0.90633771E+02</rscale>
<asrwt>0</asrwt>
<pdfrwt beam="2">  1        1 0.16667103E-03 0.90633771E+02</pdfrwt>
<pdfrwt beam="1">  1       -1 0.29163072E+00 0.90633771E+02</pdfrwt>
<totfact> 0.82216790E+03</totfact>
</mgrwt>
</event>
<event>
 7    1  0.3301067E-009  0.9083828E+02  0.7818608E-02  0.1300834E+00
          1   -1    0    0  501    0  0.00000000000E+00  0.00000000000E+00  0.22026119672E+02  0.22026120249E+02  0.50400000000E-02 0. -1.
         -1   -1    0    0    0  501 -0.00000000000E+00 -0.00000000000E+00 -0.93656911290E+02  0.93656911426E+02  0.50400000000E-02 0.  1.
         23    2    1    2    0    0  0.00000000000E+00  0.00000000000E+00 -0.71630791618E+02  0.11568303167E+03  0.90838282181E+02 0.  0.
    9000005    2    3    3    0    0  0.32897397277E+01  0.96215124991E+01 -0.92127722395E+02  0.92802470896E+02  0.46244437875E+01 0.  0.
         22    1    3    3    0    0 -0.32897397277E+01 -0.96215124991E+01  0.20496930777E+02  0.22880560778E+02  0.00000000000E+00 0. -1.
         22    1    4    4    0    0  0.22939553227E+01  0.95315199627E+01 -0.73914160298E+02  0.74561486012E+02  0.00000000000E+00 0.  1.
         22    1    4    4    0    0  0.99578440495E+00  0.89992536486E-01 -0.18213562098E+02  0.18240984884E+02  0.00000000000E+00 0.  1.
<mgrwt>
<rscale>  0 0.90838282E+02</rscale>
<asrwt>0</asrwt>
<pdfrwt beam="1">  1        1 0.33886339E-02 0.90838282E+02</pdfrwt>
<pdfrwt beam="2">  1       -1 0.14408755E-01 0.90838282E+02</pdfrwt>
<totfact> 0.83144472E+04</totfact>
</mgrwt>
</event>
<event>
 7    1  0.3301067E-009  0.8998453E+02  0.7818608E-02  0.1302889E+00
          1   -1    0    0  501    0  0.00000000000E+00  0.00000000000E+00  0.11220584680E+04  0.11220584680E+04  0.50400000000E-02 0. -1.
         -1   -1    0    0    0  501 -0.00000000000E+00 -0.00000000000E+00 -0.18040950099E+01  0.18041020499E+01  0.50400000000E-02 0.  1.
         23    2    1    2    0    0  0.35527136788E-14  0.00000000000E+00  0.11202543730E+04  0.11238625701E+04  0.89984533012E+02 0.  0.
    9000005    2    3    3    0    0 -0.26603471443E+02 -0.22121041139E+02  0.91825634294E+03  0.91892284893E+03  0.52350529952E+01 0.  0.
         22    1    3    3    0    0  0.26603471443E+02  0.22121041139E+02  0.20199803007E+03  0.20493972115E+03  0.00000000000E+00 0.  1.
         22    1    4    4    0    0 -0.18988726934E+02 -0.12616583643E+02  0.58513082147E+03  0.58557478443E+03  0.00000000000E+00 0.  1.
         22    1    4    4    0    0 -0.76147445091E+01 -0.95044574960E+01  0.33312552147E+03  0.33334806450E+03  0.00000000000E+00 0.  1.
<mgrwt>
<rscale>  0 0.89984533E+02</rscale>
<asrwt>0</asrwt>
<pdfrwt beam="1">  1        1 0.17262453E+00 0.89984533E+02</pdfrwt>
<pdfrwt beam="2">  1       -1 0.27755338E-03 0.89984533E+02</pdfrwt>
<totfact> 0.13565560E+05</totfact>
</mgrwt>
</event>
<event>
 7    1  0.3301067E-009  0.7753121E+02  0.7818608E-02  0.1336207E+00
          1   -1    0    0  501    0  0.00000000000E+00  0.00000000000E+00  0.12160339055E+03  0.12160339066E+03  0.50400000000E-02 0. -1.
         -1   -1    0    0    0  501 -0.00000000000E+00 -0.00000000000E+00 -0.12357977683E+02  0.12357978711E+02  0.50400000000E-02 0.  1.
         23    2    1    2    0    0  0.00000000000E+00  0.00000000000E+00  0.10924541287E+03  0.13396136937E+03  0.77531208231E+02 0.  0.
    9000005    2    3    3    0    0 -0.11528479879E+02  0.12302211282E+02  0.11461517594E+03  0.11626717240E+03  0.98573105717E+01 0.  0.
         22    1    3    3    0    0  0.11528479879E+02 -0.12302211282E+02 -0.53697630726E+01  0.17694196964E+02  0.00000000000E+00 0.  1.
         22    1    4    4    0    0 -0.32641705831E+01  0.12174505630E+01  0.75752164554E+01  0.83379193937E+01  0.00000000000E+00 0. -1.
         22    1    4    4    0    0 -0.82643092956E+01  0.11084760719E+02  0.10703995949E+03  0.10792925301E+03  0.00000000000E+00 0. -1.
<mgrwt>
<rscale>  0 0.77531208E+02</rscale>
<asrwt>0</asrwt>
<pdfrwt beam="1">  1        1 0.18708213E-01 0.77531208E+02</pdfrwt>
<pdfrwt beam="2">  1       -1 0.19012275E-02 0.77531208E+02</pdfrwt>
<totfact> 0.16684473E+05</totfact>
</mgrwt>
</event>
<event>
 7    1  0.3301067E-009  0.9001775E+02  0.7818608E-02  0.1302809E+00
         -1   -1    0    0    0  501 -0.00000000000E+00  0.00000000000E+00  0.55601608597E+01  0.55601631439E+01  0.50400000000E-02 0.  1.
          1   -1    0    0  501    0  0.00000000000E+00 -0.00000000000E+00 -0.36434166075E+03  0.36434166079E+03  0.50400000000E-02 0. -1.
         23    2    1    2    0    0  0.00000000000E+00  0.00000000000E+00 -0.35878149989E+03  0.36990182393E+03  0.90017746486E+02 0.  0.
    9000005    2    3    3    0    0 -0.34657560596E+02  0.26218033438E+02 -0.20190714206E+03  0.20711946638E+03  0.15602806020E+02 0.  0.
         22    1    3    3    0    0  0.34657560596E+02 -0.26218033438E+02 -0.15687435783E+03  0.16278235755E+03  0.00000000000E+00 0.  1.
         22    1    4    4    0    0 -0.23503026048E+02  0.25222619586E+02 -0.13818531604E+03  0.14242104599E+03  0.00000000000E+00 0. -1.
         22    1    4    4    0    0 -0.11154534548E+02  0.99541385186E+00 -0.63721826022E+02  0.64698420393E+02  0.00000000000E+00 0. -1.
<mgrwt>
<rscale>  0 0.90017746E+02</rscale>
<asrwt>0</asrwt>
<pdfrwt beam="2">  1        1 0.56052545E-01 0.90017746E+02</pdfrwt>
<pdfrwt beam="1">  1       -1 0.85540982E-03 0.90017746E+02</pdfrwt>
<totfact> 0.13735767E+05</totfact>
</mgrwt>
</event>
<event>
 7    1  0.3301067E-009  0.9231213E+02  0.7818608E-02  0.1297347E+00
          1   -1    0    0  501    0  0.00000000000E+00  0.00000000000E+00  0.11198422111E+03  0.11198422122E+03  0.50400000000E-02 0. -1.
         -1   -1    0    0    0  501 -0.00000000000E+00 -0.00000000000E+00 -0.19023951889E+02  0.19023952556E+02  0.50400000000E-02 0.  1.
         23    2    1    2    0    0  0.00000000000E+00  0.17763568394E-14  0.92960269219E+02  0.13100817378E+03  0.92312133240E+02 0.  0.
    9000005    2    3    3    0    0 -0.42535256114E+02  0.15759405188E+02  0.52802059463E+02  0.70425266325E+02  0.10679596848E+02 0.  0.
         22    1    3    3    0    0  0.42535256114E+02 -0.15759405188E+02  0.40158209756E+02  0.60582907452E+02  0.00000000000E+00 0. -1.
         22    1    4    4    0    0 -0.54550405821E+01  0.61920397711E+01  0.81020763580E+01  0.11564707761E+02  0.00000000000E+00 0. -1.
         22    1    4    4    0    0 -0.37080215532E+02  0.95673654170E+01  0.44699983105E+02  0.58860558565E+02  0.00000000000E+00 0. -1.
<mgrwt>
<rscale>  0 0.92312133E+02</rscale>
<asrwt>0</asrwt>
<pdfrwt beam="1">  1        1 0.17228342E-01 0.92312133E+02</pdfrwt>
<pdfrwt beam="2">  1       -1 0.29267618E-02 0.92312133E+02</pdfrwt>
<totfact> 0.10293754E+05</totfact>
</mgrwt>
</event>
<event>
 7    1  0.3301067E-009  0.9223121E+02  0.7818608E-02  0.1297537E+00
          1   -1    0    0  501    0  0.00000000000E+00  0.00000000000E+00  0.55195485700E+01  0.55195508710E+01  0.50400000000E-02 0. -1.
         -1   -1    0    0    0  501 -0.00000000000E+00 -0.00000000000E+00 -0.38529396621E+03  0.38529396624E+03  0.50400000000E-02 0.  1.
         23    2    1    2    0    0  0.00000000000E+00  0.00000000000E+00 -0.37977441764E+03  0.39081351711E+03  0.92231214159E+02 0.  0.
    9000005    2    3    3    0    0 -0.11182521509E+01 -0.44960657381E+02 -0.20467947986E+03  0.21003478928E+03  0.14078779541E+02 0.  0.
         22    1    3    3    0    0  0.11182521509E+01  0.44960657381E+02 -0.17509493778E+03  0.18077872783E+03  0.00000000000E+00 0.  1.
         22    1    4    4    0    0  0.99088345377E+00 -0.41377863203E+01 -0.45201724589E+02  0.45401531158E+02  0.00000000000E+00 0.  1.
         22    1    4    4    0    0 -0.21091356047E+01 -0.40822871061E+02 -0.15947775527E+03  0.16463325813E+03  0.00000000000E+00 0.  1.
<mgrwt>
<rscale>  0 0.92231214E+02</rscale>
<asrwt>0</asrwt>
<pdfrwt beam="1">  1        1 0.84916180E-03 0.92231214E+02</pdfrwt>
<pdfrwt beam="2">  1       -1 0.59275974E-01 0.92231214E+02</pdfrwt>
<totfact> 0.52678824E+04</totfact>
</mgrwt>
</event>
<event>
 7    1  0.3301067E-009  0.9132561E+02  0.7818608E-02  0.1299673E+00
         -1   -1    0    0    0  501 -0.00000000000E+00  0.00000000000E+00  0.77469300106E+02  0.77469300270E+02  0.50400000000E-02 0.  1.
          1   -1    0    0  501    0  0.00000000000E+00 -0.00000000000E+00 -0.26915073426E+02  0.26915073898E+02  0.50400000000E-02 0. -1.
         23    2    1    2    0    0  0.00000000000E+00  0.00000000000E+00  0.50554226679E+02  0.10438437417E+03  0.91325613797E+02 0.  0.
    9000005    2    3    3    0    0 -0.20479021836E+02 -0.81595229485E+01  0.70721005061E+02  0.74506839123E+02  0.79900168429E+01 0.  0.
         22    1    3    3    0    0  0.20479021836E+02  0.81595229485E+01 -0.20166778381E+02  0.29877535046E+02  0.00000000000E+00 0. -1.
         22    1    4    4    0    0 -0.15460109059E+02 -0.45466941988E+01  0.39167293554E+02  0.42352854503E+02  0.00000000000E+00 0. -1.
         22    1    4    4    0    0 -0.50189127771E+01 -0.36128287497E+01  0.31553711507E+02  0.32153984619E+02  0.00000000000E+00 0. -1.
<mgrwt>
<rscale>  0 0.91325614E+02</rscale>
<asrwt>0</asrwt>
<pdfrwt beam="2">  1        1 0.41407806E-02 0.91325614E+02</pdfrwt>
<pdfrwt beam="1">  1       -1 0.11918354E-01 0.91325614E+02</pdfrwt>
<totfact> 0.84754812E+04</totfact>
</mgrwt>
</event>
<event>
 7    1  0.3301067E-009  0.9377005E+02  0.7818608E-02  0.1293971E+00
         -1   -1    0    0    0  501 -0.00000000000E+00  0.00000000000E+00  0.69198291608E+01  0.69198309962E+01  0.50400000000E-02 0.  1.
          1   -1    0    0  501    0  0.00000000000E+00 -0.00000000000E+00 -0.31766754429E+03  0.31766754433E+03  0.50400000000E-02 0. -1.
         23    2    1    2    0    0 -0.35527136788E-14  0.00000000000E+00 -0.31074771513E+03  0.32458737533E+03  0.93770047260E+02 0.  0.
    9000005    2    3    3    0    0 -0.17681316360E+02 -0.38218107213E+02 -0.22473783794E+03  0.22882228961E+03  0.89045918199E+01 0.  0.
         22    1    3    3    0    0  0.17681316360E+02  0.38218107213E+02 -0.86009877191E+02  0.95765085713E+02  0.00000000000E+00 0.  1.
         22    1    4    4    0    0 -0.18351420567E+02 -0.33806609499E+02 -0.20598536723E+03  0.20954625503E+03  0.00000000000E+00 0.  1.
         22    1    4    4    0    0  0.67010420735E+00 -0.44114977142E+01 -0.18752470706E+02  0.19276034584E+02  0.00000000000E+00 0.  1.
<mgrwt>
<rscale>  0 0.93770047E+02</rscale>
<asrwt>0</asrwt>
<pdfrwt beam="2">  1        1 0.48871919E-01 0.93770047E+02</pdfrwt>
<pdfrwt beam="1">  1       -1 0.10645895E-02 0.93770047E+02</pdfrwt>
<totfact> 0.12017773E+05</totfact>
</mgrwt>
</event>
<event>
 7    1  0.3301067E-009  0.9062390E+02  0.7818608E-02  0.1301348E+00
          1   -1    0    0  501    0  0.00000000000E+00  0.00000000000E+00  0.31095249091E+02  0.31095249499E+02  0.50400000000E-02 0. -1.
         -1   -1    0    0    0  501 -0.00000000000E+00 -0.00000000000E+00 -0.66028502852E+02  0.66028503044E+02  0.50400000000E-02 0.  1.
         23    2    1    2    0    0  0.00000000000E+00  0.00000000000E+00 -0.34933253761E+02  0.97123752543E+02  0.90623899110E+02 0.  0.
    9000005    2    3    3    0    0  0.22315826024E+02  0.25103809302E+02  0.13355483183E+02  0.38301992554E+02  0.12667926823E+02 0.  0.
         22    1    3    3    0    0 -0.22315826024E+02 -0.25103809302E+02 -0.48288736944E+02  0.58821759989E+02  0.00000000000E+00 0.  1.
         22    1    4    4    0    0  0.40279198976E+01  0.13235538824E+02  0.74576218922E+01  0.15716861994E+02  0.00000000000E+00 0. -1.
         22    1    4    4    0    0  0.18287906126E+02  0.11868270478E+02  0.58978612912E+01  0.22585130560E+02  0.00000000000E+00 0. -1.
<mgrwt>
<rscale>  0 0.90623899E+02</rscale>
<asrwt>0</asrwt>
<pdfrwt beam="1">  1        1 0.47838845E-02 0.90623899E+02</pdfrwt>
<pdfrwt beam="2">  1       -1 0.10158231E-01 0.90623899E+02</pdfrwt>
<totfact> 0.88715803E+04</totfact>
</mgrwt>
</event>
<event>
 7    1  0.3301067E-009  0.9089230E+02  0.7818608E-02  0.1300705E+00
          1   -1    0    0  501    0  0.00000000000E+00  0.00000000000E+00  0.21569969974E+03  0.21569969980E+03  0.50400000000E-02 0. -1.
         -1   -1    0    0    0  501 -0.00000000000E+00 -0.00000000000E+00 -0.95751296579E+01  0.95751309843E+01  0.50400000000E-02 0.  1.
         23    2    1    2    0    0  0.00000000000E+00  0.17763568394E-14  0.20612457008E+03  0.22527483079E+03  0.90892304366E+02 0.  0.
    9000005    2    3    3    0    0  0.27697514442E+01  0.12767148441E+02  0.21093232950E+03  0.21135412129E+03  0.27286176069E+01 0.  0.
         22    1    3    3    0    0 -0.27697514442E+01 -0.12767148441E+02 -0.48077594151E+01  0.13920709500E+02  0.00000000000E+00 0.  1.
         22    1    4    4    0    0  0.17913427305E+01  0.32746076509E+01  0.69570899352E+02  0.69670955216E+02  0.00000000000E+00 0. -1.
         22    1    4    4    0    0  0.97840871367E+00  0.94925407903E+01  0.14136143015E+03  0.14168316607E+03  0.00000000000E+00 0. -1.
<mgrwt>
<rscale>  0 0.90892304E+02</rscale>
<asrwt>0</asrwt>
<pdfrwt beam="1">  1        1 0.33184565E-01 0.90892304E+02</pdfrwt>
<pdfrwt beam="2">  1       -1 0.14730972E-02 0.90892304E+02</pdfrwt>
<totfact> 0.12116955E+05</totfact>
</mgrwt>
</event>
<event>
 7    1  0.3301067E-009  0.9105613E+02  0.7818608E-02  0.1300314E+00
         -1   -1    0    0    0  501 -0.00000000000E+00  0.00000000000E+00  0.10968804643E+02  0.10968805801E+02  0.50400000000E-02 0.  1.
          1   -1    0    0  501    0  0.00000000000E+00 -0.00000000000E+00 -0.18897269425E+03  0.18897269432E+03  0.50400000000E-02 0. -1.
         23    2    1    2    0    0 -0.71054273576E-14 -0.17763568394E-14 -0.17800388961E+03  0.19994150012E+03  0.91056129691E+02 0.  0.
    9000005    2    3    3    0    0  0.42896304069E+02  0.13368919441E+02 -0.73111226742E+02  0.85830625822E+02  0.16804592700E+01 0.  0.
         22    1    3    3    0    0 -0.42896304069E+02 -0.13368919441E+02 -0.10489266287E+03  0.11411087430E+03  0.00000000000E+00 0.  1.
         22    1    4    4    0    0  0.31948433686E+02  0.91858551297E+01 -0.53967679657E+02  0.63384483882E+02  0.00000000000E+00 0. -1.
         22    1    4    4    0    0  0.10947870384E+02  0.41830643114E+01 -0.19143547085E+02  0.22446141940E+02  0.00000000000E+00 0. -1.
<mgrwt>
<rscale>  0 0.91056130E+02</rscale>
<asrwt>0</asrwt>
<pdfrwt beam="2">  1        1 0.29072720E-01 0.91056130E+02</pdfrwt>
<pdfrwt beam="1">  1       -1 0.16875086E-02 0.91056130E+02</pdfrwt>
<totfact> 0.11753242E+05</totfact>
</mgrwt>
</event>
<event>
 7    1  0.3301067E-009  0.9359621E+02  0.7818608E-02  0.1294369E+00
          1   -1    0    0  501    0  0.00000000000E+00  0.00000000000E+00  0.81046970716E+03  0.81046970717E+03  0.50400000000E-02 0. -1.
         -1   -1    0    0    0  501 -0.00000000000E+00 -0.00000000000E+00 -0.27022118184E+01  0.27022165186E+01  0.50400000000E-02 0.  1.
         23    2    1    2    0    0  0.00000000000E+00  0.00000000000E+00  0.80776749534E+03  0.81317192369E+03  0.93596212286E+02 0.  0.
    9000005    2    3    3    0    0  0.80510059063E+01  0.22963936756E+02  0.75025741215E+03  0.75072538051E+03  0.10500064862E+02 0.  0.
         22    1    3    3    0    0 -0.80510059063E+01 -0.22963936756E+02  0.57510083186E+02  0.62446543183E+02  0.00000000000E+00 0.  1.
         22    1    4    4    0    0  0.99389973016E+00  0.16909716068E+02  0.53298421341E+03  0.53325331512E+03  0.00000000000E+00 0.  1.
         22    1    4    4    0    0  0.70571061762E+01  0.60542206884E+01  0.21727319874E+03  0.21747206539E+03  0.00000000000E+00 0.  1.
<mgrwt>
<rscale>  0 0.93596212E+02</rscale>
<asrwt>0</asrwt>
<pdfrwt beam="1">  1        1 0.12468761E+00 0.93596212E+02</pdfrwt>
<pdfrwt beam="2">  1       -1 0.41572537E-03 0.93596212E+02</pdfrwt>
<totfact> 0.13167770E+05</totfact>
</mgrwt>
</event>
<event>
 7    1  0.3301067E-009  0.9236438E+02  0.7818608E-02  0.1297225E+00
         -1   -1    0    0    0  501 -0.00000000000E+00  0.00000000000E+00  0.24657963432E+03  0.24657963437E+03  0.50400000000E-02 0.  1.
          1   -1    0    0  501    0  0.00000000000E+00 -0.00000000000E+00 -0.86495162734E+01  0.86495177417E+01  0.50400000000E-02 0. -1.
         23    2    1    2    0    0  0.00000000000E+00 -0.35527136788E-14  0.23793011804E+03  0.25522915211E+03  0.92364381742E+02 0.  0.
    9000005    2    3    3    0    0 -0.28657156643E+02 -0.23062202741E+02  0.19332716534E+03  0.19741461059E+03  0.15621708960E+02 0.  0.
         22    1    3    3    0    0  0.28657156643E+02  0.23062202741E+02  0.44602952700E+02  0.57814541524E+02  0.00000000000E+00 0. -1.
         22    1    4    4    0    0 -0.71405698191E+01 -0.61038797260E+01  0.22160097290E+02  0.24068963354E+02  0.00000000000E+00 0.  1.
         22    1    4    4    0    0 -0.21516586824E+02 -0.16958323015E+02  0.17116706805E+03  0.17334564723E+03  0.00000000000E+00 0.  1.
<mgrwt>
<rscale>  0 0.92364382E+02</rscale>
<asrwt>0</asrwt>
<pdfrwt beam="2">  1        1 0.13306949E-02 0.92364382E+02</pdfrwt>
<pdfrwt beam="1">  1       -1 0.37935329E-01 0.92364382E+02</pdfrwt>
<totfact> 0.62902302E+04</totfact>
</mgrwt>
</event>
<event>
 7    1  0.3301067E-009  0.9188936E+02  0.7818608E-02  0.1298340E+00
          1   -1    0    0  501    0  0.00000000000E+00  0.00000000000E+00  0.19413360801E+02  0.19413361455E+02  0.50400000000E-02 0. -1.
         -1   -1    0    0    0  501 -0.00000000000E+00 -0.00000000000E+00 -0.10873509982E+03  0.10873509994E+03  0.50400000000E-02 0.  1.
         23    2    1    2    0    0  0.00000000000E+00  0.00000000000E+00 -0.89321739021E+02  0.12814846139E+03  0.91889363345E+02 0.  0.
    9000005    2    3    3    0    0  0.32315162219E+02  0.32148925194E+02 -0.47934753218E+02  0.66579754293E+02  0.75696773522E+01 0.  0.
         22    1    3    3    0    0 -0.32315162219E+02 -0.32148925194E+02 -0.41386985803E+02  0.61568707102E+02  0.00000000000E+00 0.  1.
         22    1    4    4    0    0  0.68777488349E+01  0.11025462159E+02 -0.11191945837E+02  0.17150040713E+02  0.00000000000E+00 0. -1.
         22    1    4    4    0    0  0.25437413384E+02  0.21123463035E+02 -0.36742807382E+02  0.49429713579E+02  0.00000000000E+00 0. -1.
<mgrwt>
<rscale>  0 0.91889363E+02</rscale>
<asrwt>0</asrwt>
<pdfrwt beam="1">  1        1 0.29866710E-02 0.91889363E+02</pdfrwt>
<pdfrwt beam="2">  1       -1 0.16728477E-01 0.91889363E+02</pdfrwt>
<totfact> 0.78493005E+04</totfact>
</mgrwt>
</event>
<event>
 7    1  0.3301067E-009  0.8805312E+02  0.7818608E-02  0.1307636E+00
         -1   -1    0    0    0  501 -0.00000000000E+00  0.00000000000E+00  0.98453383091E+02  0.98453383220E+02  0.50400000000E-02 0.  1.
          1   -1    0    0  501    0  0.00000000000E+00 -0.00000000000E+00 -0.19687876281E+02  0.19687876926E+02  0.50400000000E-02 0. -1.
         23    2    1    2    0    0  0.00000000000E+00  0.00000000000E+00  0.78765506810E+02  0.11814126015E+03  0.88053121955E+02 0.  0.
    9000005    2    3    3    0    0 -0.34597266978E+02 -0.26681113240E+02  0.42449415403E+02  0.61328311084E+02  0.70962092917E+01 0.  0.
         22    1    3    3    0    0  0.34597266978E+02  0.26681113240E+02  0.36316091407E+02  0.56812949063E+02  0.00000000000E+00 0. -1.
         22    1    4    4    0    0 -0.26316068650E+02 -0.22528406677E+02  0.30111531646E+02  0.45899552445E+02  0.00000000000E+00 0. -1.
         22    1    4    4    0    0 -0.82811983276E+01 -0.41527065635E+01  0.12337883756E+02  0.15428758639E+02  0.00000000000E+00 0. -1.
<mgrwt>
<rscale>  0 0.88053122E+02</rscale>
<asrwt>0</asrwt>
<pdfrwt beam="2">  1        1 0.30289040E-02 0.88053122E+02</pdfrwt>
<pdfrwt beam="1">  1       -1 0.15146675E-01 0.88053122E+02</pdfrwt>
<totfact> 0.89256143E+04</totfact>
</mgrwt>
</event>
<event>
 7    1  0.3301067E-009  0.9151716E+02  0.7818608E-02  0.1299219E+00
         -1   -1    0    0    0  501 -0.00000000000E+00  0.00000000000E+00  0.24849491672E+03  0.24849491678E+03  0.50400000000E-02 0.  1.
          1   -1    0    0  501    0  0.00000000000E+00 -0.00000000000E+00 -0.84261171524E+01  0.84261186598E+01  0.50400000000E-02 0. -1.
         23    2    1    2    0    0  0.00000000000E+00  0.17763568394E-14  0.24006879957E+03  0.25692103544E+03  0.91517156431E+02 0.  0.
    9000005    2    3    3    0    0 -0.23893109378E+01 -0.13958254332E+02  0.24201523916E+03  0.24262662052E+03  0.97856694607E+01 0.  0.
         22    1    3    3    0    0  0.23893109378E+01  0.13958254332E+02 -0.19464395896E+01  0.14294414917E+02  0.00000000000E+00 0. -1.
         22    1    4    4    0    0 -0.18502779433E+01 -0.15003253252E+01  0.10128686565E+02  0.10405037053E+02  0.00000000000E+00 0.  1.
         22    1    4    4    0    0 -0.53903299448E+00 -0.12457929007E+02  0.23188655260E+03  0.23222158346E+03  0.00000000000E+00 0.  1.
<mgrwt>
<rscale>  0 0.91517156E+02</rscale>
<asrwt>0</asrwt>
<pdfrwt beam="2">  1        1 0.12963258E-02 0.91517156E+02</pdfrwt>
<pdfrwt beam="1">  1       -1 0.38229990E-01 0.91517156E+02</pdfrwt>
<totfact> 0.64268533E+04</totfact>
</mgrwt>
</event>
<event>
 7    1  0.3301067E-009  0.9145523E+02  0.7818608E-02  0.1299365E+00
          1   -1    0    0  501    0  0.00000000000E+00  0.00000000000E+00  0.57109535361E+03  0.57109535363E+03  0.50400000000E-02 0. -1.
         -1   -1    0    0    0  501 -0.00000000000E+00 -0.00000000000E+00 -0.36614093422E+01  0.36614128110E+01  0.50400000000E-02 0.  1.
         23    2    1    2    0    0  0.11102230246E-15  0.71054273576E-14  0.56743394427E+03  0.57475676644E+03  0.91455232027E+02 0.  0.
    9000005    2    3    3    0    0  0.81014742488E+00  0.44917857999E+02  0.31156954388E+03  0.31497828063E+03  0.10838186582E+02 0.  0.
         22    1    3    3    0    0 -0.81014742488E+00 -0.44917857999E+02  0.25586440039E+03  0.25977848581E+03  0.00000000000E+00 0.  1.
         22    1    4    4    0    0 -0.13106252118E+01  0.43618365344E+02  0.29867490462E+03  0.30184595108E+03  0.00000000000E+00 0.  1.
         22    1    4    4    0    0  0.21207726367E+01  0.12994926549E+01  0.12894639266E+02  0.13132329555E+02  0.00000000000E+00 0.  1.
<mgrwt>
<rscale>  0 0.91455232E+02</rscale>
<asrwt>0</asrwt>
<pdfrwt beam="1">  1        1 0.87860809E-01 0.91455232E+02</pdfrwt>
<pdfrwt beam="2">  1       -1 0.56329411E-03 0.91455232E+02</pdfrwt>
<totfact> 0.13997169E+05</totfact>
</mgrwt>
</event>
<event>
 7    1  0.3301067E-009  0.9067989E+02  0.7818608E-02  0.1301214E+00
         -1   -1    0    0    0  501 -0.00000000000E+00  0.00000000000E+00  0.38376483226E+02  0.38376483557E+02  0.50400000000E-02 0.  1.
          1   -1    0    0  501    0  0.00000000000E+00 -0.00000000000E+00 -0.53566937715E+02  0.53566937952E+02  0.50400000000E-02 0. -1.
         23    2    1    2    0    0  0.00000000000E+00  0.00000000000E+00 -0.15190454489E+02  0.91943421509E+02  0.90679892209E+02 0.  0.
    9000005    2    3    3    0    0  0.90994587344E+01 -0.42190285659E+02  0.63594953083E+01  0.43702145722E+02  0.25717711505E+01 0.  0.
         22    1    3    3    0    0 -0.90994587344E+01  0.42190285659E+02 -0.21549949797E+02  0.48241275787E+02  0.00000000000E+00 0. -1.
         22    1    4    4    0    0  0.82467809994E+01 -0.36877078846E+02  0.47493720918E+01  0.38085231735E+02  0.00000000000E+00 0.  1.
         22    1    4    4    0    0  0.85267773502E+00 -0.53132068134E+01  0.16101232165E+01  0.56169139867E+01  0.00000000000E+00 0.  1.
<mgrwt>
<rscale>  0 0.90679892E+02</rscale>
<asrwt>0</asrwt>
<pdfrwt beam="2">  1        1 0.82410674E-02 0.90679892E+02</pdfrwt>
<pdfrwt beam="1">  1       -1 0.59040744E-02 0.90679892E+02</pdfrwt>
<totfact> 0.96191305E+04</totfact>
</mgrwt>
</event>
<event>
 7    1  0.3301067E-009  0.9840152E+02  0.7818608E-02  0.1283694E+00
          1   -1    0    0  501    0  0.00000000000E+00  0.00000000000E+00  0.61888708689E+02  0.61888708894E+02  0.50400000000E-02 0. -1.
         -1   -1    0    0    0  501 -0.00000000000E+00 -0.00000000000E+00 -0.39114000762E+02  0.39114001087E+02  0.50400000000E-02 0.  1.
         23    2    1    2    0    0 -0.71054273576E-14  0.00000000000E+00  0.22774707927E+02  0.10100270998E+03  0.98401524898E+02 0.  0.
    9000005    2    3    3    0    0 -0.42115576755E+02  0.18823921468E+02 -0.40591996483E+01  0.47634925498E+02  0.11160071706E+02 0.  0.
         22    1    3    3    0    0  0.42115576755E+02 -0.18823921468E+02  0.26833907575E+02  0.53367784483E+02  0.00000000000E+00 0. -1.
         22    1    4    4    0    0 -0.72047738589E+01  0.34549563248E+00 -0.37599685347E+01  0.81342176619E+01  0.00000000000E+00 0. -1.
         22    1    4    4    0    0 -0.34910802897E+02  0.18478425836E+02 -0.29923111361E+00  0.39500707836E+02  0.00000000000E+00 0. -1.
<mgrwt>
<rscale>  0 0.98401525E+02</rscale>
<asrwt>0</asrwt>
<pdfrwt beam="1">  1        1 0.95213399E-02 0.98401525E+02</pdfrwt>
<pdfrwt beam="2">  1       -1 0.60175386E-02 0.98401525E+02</pdfrwt>
<totfact> 0.78278433E+04</totfact>
</mgrwt>
</event>
<event>
 7    1  0.3301067E-009  0.1114172E+03  0.7818608E-02  0.1257968E+00
          1   -1    0    0  501    0  0.00000000000E+00  0.00000000000E+00  0.44916947701E+02  0.44916947984E+02  0.50400000000E-02 0. -1.
         -1   -1    0    0    0  501 -0.00000000000E+00 -0.00000000000E+00 -0.69093007078E+02  0.69093007262E+02  0.50400000000E-02 0.  1.
         23    2    1    2    0    0  0.00000000000E+00  0.00000000000E+00 -0.24176059377E+02  0.11400995525E+03  0.11141718022E+03 0.  0.
    9000005    2    3    3    0    0 -0.11224734582E+02  0.18147600246E+02  0.40290491515E+02  0.46103650347E+02  0.68478323347E+01 0.  0.
         22    1    3    3    0    0  0.11224734582E+02 -0.18147600246E+02 -0.64466550892E+02  0.67906304898E+02  0.00000000000E+00 0.  1.
         22    1    4    4    0    0 -0.11930791549E+02  0.18130344641E+02  0.38978376608E+02  0.44613529639E+02  0.00000000000E+00 0. -1.
         22    1    4    4    0    0  0.70605696733E+00  0.17255604499E-01  0.13121149065E+01  0.14901207082E+01  0.00000000000E+00 0. -1.
<mgrwt>
<rscale>  0 0.11141718E+03</rscale>
<asrwt>0</asrwt>
<pdfrwt beam="1">  1        1 0.69102997E-02 0.11141718E+03</pdfrwt>
<pdfrwt beam="2">  1       -1 0.10629693E-01 0.11141718E+03</pdfrwt>
<totfact> 0.52010944E+04</totfact>
</mgrwt>
</event>
<event>
 7    1  0.3301067E-009  0.9464872E+02  0.7818608E-02  0.1291969E+00
          1   -1    0    0  501    0  0.00000000000E+00  0.00000000000E+00  0.11498562103E+03  0.11498562114E+03  0.50400000000E-02 0. -1.
         -1   -1    0    0    0  501 -0.00000000000E+00 -0.00000000000E+00 -0.19477174997E+02  0.19477175649E+02  0.50400000000E-02 0.  1.
         23    2    1    2    0    0  0.00000000000E+00 -0.35527136788E-14  0.95508446035E+02  0.13446279679E+03  0.94648721371E+02 0.  0.
    9000005    2    3    3    0    0  0.24129223605E+02  0.18553404819E+02 -0.36782413859E+01  0.30710942719E+02  0.17844553203E+01 0.  0.
         22    1    3    3    0    0 -0.24129223605E+02 -0.18553404819E+02  0.99186687421E+02  0.10375185407E+03  0.00000000000E+00 0. -1.
         22    1    4    4    0    0  0.44606209777E+01  0.39761545112E+01 -0.15884967040E+00  0.59776397868E+01  0.00000000000E+00 0. -1.
         22    1    4    4    0    0  0.19668602628E+02  0.14577250308E+02 -0.35193917155E+01  0.24733302932E+02  0.00000000000E+00 0. -1.
<mgrwt>
<rscale>  0 0.94648721E+02</rscale>
<asrwt>0</asrwt>
<pdfrwt beam="1">  1        1 0.17690096E-01 0.94648721E+02</pdfrwt>
<pdfrwt beam="2">  1       -1 0.29964885E-02 0.94648721E+02</pdfrwt>
<totfact> 0.96595965E+04</totfact>
</mgrwt>
</event>
<event>
 7    1  0.3301067E-009  0.9848786E+02  0.7818608E-02  0.1283508E+00
         -1   -1    0    0    0  501 -0.00000000000E+00  0.00000000000E+00  0.40107534005E+03  0.40107534008E+03  0.50400000000E-02 0.  1.
          1   -1    0    0  501    0  0.00000000000E+00 -0.00000000000E+00 -0.60461558718E+01  0.60461579724E+01  0.50400000000E-02 0. -1.
         23    2    1    2    0    0 -0.71054273576E-14  0.00000000000E+00  0.39502918418E+03  0.40712149805E+03  0.98487856232E+02 0.  0.
    9000005    2    3    3    0    0  0.33633073045E+02  0.22147351494E+02  0.31414260420E+03  0.31676482923E+03  0.57177340038E+01 0.  0.
         22    1    3    3    0    0 -0.33633073045E+02 -0.22147351494E+02  0.80886579981E+02  0.90356668828E+02  0.00000000000E+00 0. -1.
         22    1    4    4    0    0  0.96008270314E+01  0.69935894565E+01  0.11369604647E+03  0.11431481600E+03  0.00000000000E+00 0.  1.
         22    1    4    4    0    0  0.24032246014E+02  0.15153762037E+02  0.20044655772E+03  0.20245001323E+03  0.00000000000E+00 0.  1.
<mgrwt>
<rscale>  0 0.98487856E+02</rscale>
<asrwt>0</asrwt>
<pdfrwt beam="2">  1        1 0.93017783E-03 0.98487856E+02</pdfrwt>
<pdfrwt beam="1">  1       -1 0.61703909E-01 0.98487856E+02</pdfrwt>
<totfact> 0.43452011E+04</totfact>
</mgrwt>
</event>
<event>
 7    1  0.3301067E-009  0.8889267E+02  0.7818608E-02  0.1305556E+00
         -1   -1    0    0    0  501 -0.00000000000E+00  0.00000000000E+00  0.72612973807E+01  0.72612991298E+01  0.50400000000E-02 0.  1.
          1   -1    0    0  501    0  0.00000000000E+00 -0.00000000000E+00 -0.27205556087E+03  0.27205556091E+03  0.50400000000E-02 0. -1.
         23    2    1    2    0    0  0.00000000000E+00  0.00000000000E+00 -0.26479426348E+03  0.27931686004E+03  0.88892667466E+02 0.  0.
    9000005    2    3    3    0    0 -0.38604963920E+02 -0.18259542126E+02 -0.99701705481E+02  0.10879030250E+03  0.84347925225E+01 0.  0.
         22    1    3    3    0    0  0.38604963920E+02  0.18259542126E+02 -0.16509255800E+03  0.17052655754E+03  0.00000000000E+00 0. -1.
         22    1    4    4    0    0 -0.13360307392E+02 -0.98376955323E+01 -0.31989568414E+02  0.36036239458E+02  0.00000000000E+00 0. -1.
         22    1    4    4    0    0 -0.25244656529E+02 -0.84218465936E+01 -0.67712137067E+02  0.72754063044E+02  0.00000000000E+00 0. -1.
<mgrwt>
<rscale>  0 0.88892667E+02</rscale>
<asrwt>0</asrwt>
<pdfrwt beam="2">  1        1 0.41854694E-01 0.88892667E+02</pdfrwt>
<pdfrwt beam="1">  1       -1 0.11171230E-02 0.88892667E+02</pdfrwt>
<totfact> 0.13451652E+05</totfact>
</mgrwt>
</event>
<event>
 7    1  0.3301067E-009  0.9050753E+02  0.7818608E-02  0.1301627E+00
          1   -1    0    0  501    0  0.00000000000E+00  0.00000000000E+00  0.15324984626E+03  0.15324984634E+03  0.50400000000E-02 0. -1.
         -1   -1    0    0    0  501 -0.00000000000E+00 -0.00000000000E+00 -0.13363164773E+02  0.13363165723E+02  0.50400000000E-02 0.  1.
         23    2    1    2    0    0  0.00000000000E+00 -0.35527136788E-14  0.13988668148E+03  0.16661301206E+03  0.90507525278E+02 0.  0.
    9000005    2    3    3    0    0 -0.37782285950E+02  0.23768109486E+02  0.73870793530E+02  0.86922851927E+02  0.10308437815E+02 0.  0.
         22    1    3    3    0    0  0.37782285950E+02 -0.23768109486E+02  0.66015887954E+02  0.79690160136E+02  0.00000000000E+00 0.  1.
         22    1    4    4    0    0 -0.31329715719E+02  0.19211867289E+02  0.67160505528E+02  0.76558346602E+02  0.00000000000E+00 0.  1.
         22    1    4    4    0    0 -0.64525702310E+01  0.45562421972E+01  0.67102880024E+01  0.10364505324E+02  0.00000000000E+00 0.  1.
<mgrwt>
<rscale>  0 0.90507525E+02</rscale>
<asrwt>0</asrwt>
<pdfrwt beam="1">  1        1 0.23576901E-01 0.90507525E+02</pdfrwt>
<pdfrwt beam="2">  1       -1 0.20558715E-02 0.90507525E+02</pdfrwt>
<totfact> 0.11483334E+05</totfact>
</mgrwt>
</event>
<event>
 7    1  0.3301067E-009  0.9137194E+02  0.7818608E-02  0.1299563E+00
         -1   -1    0    0    0  501 -0.00000000000E+00  0.00000000000E+00  0.51034712844E+02  0.51034713093E+02  0.50400000000E-02 0.  1.
          1   -1    0    0  501    0  0.00000000000E+00 -0.00000000000E+00 -0.40897803564E+02  0.40897803874E+02  0.50400000000E-02 0. -1.
         23    2    1    2    0    0  0.00000000000E+00  0.00000000000E+00  0.10136909280E+02  0.91932516967E+02  0.91371936316E+02 0.  0.
    9000005    2    3    3    0    0 -0.16513750912E+02 -0.10243100359E+02 -0.36051674121E+02  0.41822534820E+02  0.84720798897E+01 0.  0.
         22    1    3    3    0    0  0.16513750912E+02  0.10243100359E+02  0.46188583401E+02  0.50109982147E+02  0.00000000000E+00 0.  1.
         22    1    4    4    0    0 -0.29974120941E+01 -0.42124348766E+01 -0.16560469454E+02  0.17348724315E+02  0.00000000000E+00 0.  1.
         22    1    4    4    0    0 -0.13516338818E+02 -0.60306654825E+01 -0.19491204668E+02  0.24473810505E+02  0.00000000000E+00 0.  1.
<mgrwt>
<rscale>  0 0.91371936E+02</rscale>
<asrwt>0</asrwt>
<pdfrwt beam="2">  1        1 0.62919698E-02 0.91371936E+02</pdfrwt>
<pdfrwt beam="1">  1       -1 0.78514943E-02 0.91371936E+02</pdfrwt>
<totfact> 0.90422021E+04</totfact>
</mgrwt>
</event>
<event>
 7    1  0.3301067E-009  0.9180817E+02  0.7818608E-02  0.1298531E+00
          1   -1    0    0  501    0  0.00000000000E+00  0.00000000000E+00  0.41966468706E+01  0.41966498970E+01  0.50400000000E-02 0. -1.
         -1   -1    0    0    0  501 -0.00000000000E+00 -0.00000000000E+00 -0.50211145480E+03  0.50211145482E+03  0.50400000000E-02 0.  1.
         23    2    1    2    0    0 -0.88817841970E-15  0.00000000000E+00 -0.49791480793E+03  0.50630810472E+03  0.91808174757E+02 0.  0.
    9000005    2    3    3    0    0  0.61991851597E+01 -0.41796417603E+02 -0.34714140158E+03  0.34972588835E+03  0.39590241153E+01 0.  0.
         22    1    3    3    0    0 -0.61991851597E+01  0.41796417603E+02 -0.15077340635E+03  0.15658221637E+03  0.00000000000E+00 0.  1.
         22    1    4    4    0    0  0.15351640583E+01 -0.84182246779E+01 -0.58231798390E+02  0.58857162513E+02  0.00000000000E+00 0.  1.
         22    1    4    4    0    0  0.46640211014E+01 -0.33378192925E+02 -0.28890960319E+03  0.29086872584E+03  0.00000000000E+00 0.  1.
<mgrwt>
<rscale>  0 0.91808175E+02</rscale>
<asrwt>0</asrwt>
<pdfrwt beam="1">  1        1 0.64563861E-03 0.91808175E+02</pdfrwt>
<pdfrwt beam="2">  1       -1 0.77247869E-01 0.91808175E+02</pdfrwt>
<totfact> 0.46078024E+04</totfact>
</mgrwt>
</event>
<event>
 7    1  0.3301067E-009  0.6169620E+02  0.7818608E-02  0.1390848E+00
          1   -1    0    0  501    0  0.00000000000E+00  0.00000000000E+00  0.13641407815E+03  0.13641407824E+03  0.50400000000E-02 0. -1.
         -1   -1    0    0    0  501 -0.00000000000E+00 -0.00000000000E+00 -0.69758572323E+01  0.69758590530E+01  0.50400000000E-02 0.  1.
         23    2    1    2    0    0  0.00000000000E+00  0.00000000000E+00  0.12943822092E+03  0.14338993729E+03  0.61696199910E+02 0.  0.
    9000005    2    3    3    0    0  0.17599930323E+02  0.17217497080E+02  0.26941971169E+02  0.37977978934E+02  0.10500348584E+02 0.  0.
         22    1    3    3    0    0 -0.17599930323E+02 -0.17217497080E+02  0.10249624975E+03  0.10541195836E+03  0.00000000000E+00 0. -1.
         22    1    4    4    0    0  0.28498320114E+01  0.77928813948E+00 -0.22873987154E+00  0.29633012716E+01  0.00000000000E+00 0. -1.
         22    1    4    4    0    0  0.14750098312E+02  0.16438208941E+02  0.27170711040E+02  0.35014677663E+02  0.00000000000E+00 0. -1.
<mgrwt>
<rscale>  0 0.61696200E+02</rscale>
<asrwt>0</asrwt>
<pdfrwt beam="1">  1        1 0.20986781E-01 0.61696200E+02</pdfrwt>
<pdfrwt beam="2">  1       -1 0.10732090E-02 0.61696200E+02</pdfrwt>
<totfact> 0.30910849E+05</totfact>
</mgrwt>
</event>
<event>
 7    1  0.3301067E-009  0.9616851E+02  0.7818608E-02  0.1288566E+00
          1   -1    0    0  501    0  0.00000000000E+00  0.00000000000E+00  0.48822180528E+03  0.48822180530E+03  0.50400000000E-02 0. -1.
         -1   -1    0    0    0  501 -0.00000000000E+00 -0.00000000000E+00 -0.47357465934E+01  0.47357492753E+01  0.50400000000E-02 0.  1.
         23    2    1    2    0    0  0.00000000000E+00  0.35527136788E-14  0.48348605868E+03  0.49295755458E+03  0.96168506666E+02 0.  0.
    9000005    2    3    3    0    0  0.40124240731E+02 -0.24660368245E+02  0.25688488339E+03  0.26151386574E+03  0.13474798937E+02 0.  0.
         22    1    3    3    0    0 -0.40124240731E+02  0.24660368245E+02  0.22660117530E+03  0.23144368884E+03  0.00000000000E+00 0. -1.
         22    1    4    4    0    0  0.99426757387E+01 -0.13317153315E+02  0.96400469511E+02  0.97822563324E+02  0.00000000000E+00 0. -1.
         22    1    4    4    0    0  0.30181564993E+02 -0.11343214931E+02  0.16048441388E+03  0.16369130242E+03  0.00000000000E+00 0. -1.
<mgrwt>
<rscale>  0 0.96168507E+02</rscale>
<asrwt>0</asrwt>
<pdfrwt beam="1">  1        1 0.75111091E-01 0.96168507E+02</pdfrwt>
<pdfrwt beam="2">  1       -1 0.72857618E-03 0.96168507E+02</pdfrwt>
<totfact> 0.12051801E+05</totfact>
</mgrwt>
</event>
<event>
 7    1  0.3301067E-009  0.8832283E+02  0.7818608E-02  0.1306965E+00
         -1   -1    0    0    0  501 -0.00000000000E+00  0.00000000000E+00  0.66554890299E+01  0.66554909382E+01  0.50400000000E-02 0.  1.
          1   -1    0    0  501    0  0.00000000000E+00 -0.00000000000E+00 -0.29302584768E+03  0.29302584772E+03  0.50400000000E-02 0. -1.
         23    2    1    2    0    0  0.00000000000E+00 -0.35527136788E-14 -0.28637035865E+03  0.29968133866E+03  0.88322830732E+02 0.  0.
    9000005    2    3    3    0    0 -0.11616044521E+02 -0.25764897991E+02 -0.25698199691E+03  0.25890832964E+03  0.13964739981E+02 0.  0.
         22    1    3    3    0    0  0.11616044521E+02  0.25764897991E+02 -0.29388361738E+02  0.40773009019E+02  0.00000000000E+00 0.  1.
         22    1    4    4    0    0 -0.64668950782E+00 -0.16408893424E+02 -0.10969335940E+03  0.11091574770E+03  0.00000000000E+00 0.  1.
         22    1    4    4    0    0 -0.10969355013E+02 -0.93560045674E+01 -0.14728863751E+03  0.14799258195E+03  0.00000000000E+00 0.  1.
<mgrwt>
<rscale>  0 0.88322831E+02</rscale>
<asrwt>0</asrwt>
<pdfrwt beam="2">  1        1 0.45080890E-01 0.88322831E+02</pdfrwt>
<pdfrwt beam="1">  1       -1 0.10239218E-02 0.88322831E+02</pdfrwt>
<totfact> 0.13880409E+05</totfact>
</mgrwt>
</event>
<event>
 7    1  0.3301067E-009  0.1038725E+03  0.7818608E-02  0.1272357E+00
         -1   -1    0    0    0  501 -0.00000000000E+00  0.00000000000E+00  0.34761256921E+01  0.34761293459E+01  0.50400000000E-02 0.  1.
          1   -1    0    0  501    0  0.00000000000E+00 -0.00000000000E+00 -0.77597120825E+03  0.77597120826E+03  0.50400000000E-02 0. -1.
         23    2    1    2    0    0  0.35527136788E-14  0.00000000000E+00 -0.77249508255E+03  0.77944733761E+03  0.10387251578E+03 0.  0.
    9000005    2    3    3    0    0 -0.25197916163E+02  0.43763322347E+02 -0.47603684817E+03  0.47871880871E+03  0.32332076010E+01 0.  0.
         22    1    3    3    0    0  0.25197916163E+02 -0.43763322347E+02 -0.29645823438E+03  0.30072852890E+03  0.00000000000E+00 0.  1.
         22    1    4    4    0    0 -0.10406384861E+02  0.14975338167E+02 -0.17285399729E+03  0.17381328481E+03  0.00000000000E+00 0.  1.
         22    1    4    4    0    0 -0.14791531302E+02  0.28787984180E+02 -0.30318285088E+03  0.30490552389E+03  0.00000000000E+00 0.  1.
<mgrwt>
<rscale>  0 0.10387252E+03</rscale>
<asrwt>0</asrwt>
<pdfrwt beam="2">  1        1 0.11938005E+00 0.10387252E+03</pdfrwt>
<pdfrwt beam="1">  1       -1 0.53478946E-03 0.10387252E+03</pdfrwt>
<totfact> 0.10012171E+05</totfact>
</mgrwt>
</event>
<event>
 7    1  0.3301067E-009  0.8870686E+02  0.7818608E-02  0.1306014E+00
          1   -1    0    0  501    0  0.00000000000E+00  0.00000000000E+00  0.97906030024E+03  0.97906030026E+03  0.50400000000E-02 0. -1.
         -1   -1    0    0    0  501 -0.00000000000E+00 -0.00000000000E+00 -0.20092977154E+01  0.20093040364E+01  0.50400000000E-02 0.  1.
         23    2    1    2    0    0 -0.35527136788E-14  0.00000000000E+00  0.97705100253E+03  0.98106960429E+03  0.88706859522E+02 0.  0.
    9000005    2    3    3    0    0  0.29510589970E+02  0.22419242562E+02  0.75526425120E+03  0.75620773464E+03  0.72492369865E+01 0.  0.
         22    1    3    3    0    0 -0.29510589970E+02 -0.22419242562E+02  0.22178675133E+03  0.22486186965E+03  0.00000000000E+00 0.  1.
         22    1    4    4    0    0  0.14871481040E+02  0.87342746762E+01  0.29032265270E+03  0.29083447384E+03  0.00000000000E+00 0. -1.
         22    1    4    4    0    0  0.14639108930E+02  0.13684967886E+02  0.46494159850E+03  0.46537326080E+03  0.00000000000E+00 0. -1.
<mgrwt>
<rscale>  0 0.88706860E+02</rscale>
<asrwt>0</asrwt>
<pdfrwt beam="1">  1        1 0.15062500E+00 0.88706860E+02</pdfrwt>
<pdfrwt beam="2">  1       -1 0.30912252E-03 0.88706860E+02</pdfrwt>
<totfact> 0.14703746E+05</totfact>
</mgrwt>
</event>
<event>
 7    1  0.3301067E-009  0.9243836E+02  0.7818608E-02  0.1297052E+00
          1   -1    0    0  501    0  0.00000000000E+00  0.00000000000E+00  0.13295823922E+03  0.13295823932E+03  0.50400000000E-02 0. -1.
         -1   -1    0    0    0  501 -0.00000000000E+00 -0.00000000000E+00 -0.16066793374E+02  0.16066794165E+02  0.50400000000E-02 0.  1.
         23    2    1    2    0    0  0.00000000000E+00  0.00000000000E+00  0.11689144585E+03  0.14902503348E+03  0.92438360501E+02 0.  0.
    9000005    2    3    3    0    0 -0.39875731819E+02  0.62446055627E+01  0.92926564816E+02  0.10208480969E+03  0.12525686989E+02 0.  0.
         22    1    3    3    0    0  0.39875731819E+02 -0.62446055627E+01  0.23964881034E+02  0.46940223792E+02  0.00000000000E+00 0. -1.
         22    1    4    4    0    0 -0.25612140763E+01  0.41520472087E+01  0.11419846150E+02  0.12418220471E+02  0.00000000000E+00 0. -1.
         22    1    4    4    0    0 -0.37314517743E+02  0.20925583540E+01  0.81506718666E+02  0.89666589221E+02  0.00000000000E+00 0. -1.
<mgrwt>
<rscale>  0 0.92438361E+02</rscale>
<asrwt>0</asrwt>
<pdfrwt beam="1">  1        1 0.20455114E-01 0.92438361E+02</pdfrwt>
<pdfrwt beam="2">  1       -1 0.24718144E-02 0.92438361E+02</pdfrwt>
<totfact> 0.10569653E+05</totfact>
</mgrwt>
</event>
<event>
 7    1  0.3301067E-009  0.8726438E+02  0.7818608E-02  0.1309615E+00
          1   -1    0    0  501    0  0.00000000000E+00  0.00000000000E+00  0.13073736025E+02  0.13073736996E+02  0.50400000000E-02 0. -1.
         -1   -1    0    0    0  501 -0.00000000000E+00 -0.00000000000E+00 -0.14561773134E+03  0.14561773143E+03  0.50400000000E-02 0.  1.
         23    2    1    2    0    0  0.00000000000E+00  0.00000000000E+00 -0.13254399532E+03  0.15869146842E+03  0.87264376789E+02 0.  0.
    9000005    2    3    3    0    0 -0.15740597803E+02 -0.36506809626E+02 -0.96741882124E+02  0.10519095555E+03  0.11208559468E+02 0.  0.
         22    1    3    3    0    0  0.15740597803E+02  0.36506809626E+02 -0.35802113192E+02  0.53500512869E+02  0.00000000000E+00 0. -1.
         22    1    4    4    0    0 -0.77394186039E+00 -0.11257363618E+02 -0.19073355753E+02  0.22161230140E+02  0.00000000000E+00 0. -1.
         22    1    4    4    0    0 -0.14966655943E+02 -0.25249446008E+02 -0.77668526371E+02  0.83029725415E+02  0.00000000000E+00 0. -1.
<mgrwt>
<rscale>  0 0.87264377E+02</rscale>
<asrwt>0</asrwt>
<pdfrwt beam="1">  1        1 0.20113442E-02 0.87264377E+02</pdfrwt>
<pdfrwt beam="2">  1       -1 0.22402727E-01 0.87264377E+02</pdfrwt>
<totfact> 0.84361488E+04</totfact>
</mgrwt>
</event>
<event>
 7    1  0.4575891E-009  0.9460355E+02  0.7818608E-02  0.1292072E+00
         -1   -1    0    0    0  501 -0.00000000000E+00  0.00000000000E+00  0.88038227584E+02  0.88038227728E+02  0.50400000000E-02 0.  1.
          1   -1    0    0  501    0  0.00000000000E+00 -0.00000000000E+00 -0.25414615974E+02  0.25414616474E+02  0.50400000000E-02 0. -1.
         23    2    1    2    0    0  0.00000000000E+00 -0.35527136788E-14  0.62623611610E+02  0.11345284420E+03  0.94603547113E+02 0.  0.
    9000005    2    3    3    0    0 -0.14812334877E+02 -0.19605087998E+02  0.79067730038E+02  0.83886414407E+02  0.13470703347E+02 0.  0.
         22    1    3    3    0    0  0.14812334877E+02  0.19605087998E+02 -0.16444118428E+02  0.29566429795E+02  0.00000000000E+00 0. -1.
         22    1    4    4    0    0 -0.89816503850E+01 -0.13381997722E+02  0.68166687621E+02  0.70046022070E+02  0.00000000000E+00 0.  1.
         22    1    4    4    0    0 -0.58306844923E+01 -0.62230902768E+01  0.10901042417E+02  0.13840392336E+02  0.00000000000E+00 0.  1.
<mgrwt>
<rscale>  0 0.94603547E+02</rscale>
<asrwt>0</asrwt>
<pdfrwt beam="2">  1        1 0.39099411E-02 0.94603547E+02</pdfrwt>
<pdfrwt beam="1">  1       -1 0.13544342E-01 0.94603547E+02</pdfrwt>
<totfact> 0.75732270E+04</totfact>
</mgrwt>
</event>
<event>
 7    1  0.3301067E-009  0.9094998E+02  0.7818608E-02  0.1300567E+00
          1   -1    0    0  501    0  0.00000000000E+00  0.00000000000E+00  0.87642996370E+02  0.87642996515E+02  0.50400000000E-02 0. -1.
         -1   -1    0    0    0  501 -0.00000000000E+00 -0.00000000000E+00 -0.23595436254E+02  0.23595436792E+02  0.50400000000E-02 0.  1.
         23    2    1    2    0    0  0.00000000000E+00  0.00000000000E+00  0.64047560116E+02  0.11123843331E+03  0.90949981242E+02 0.  0.
    9000005    2    3    3    0    0  0.12323770879E+02 -0.42589751855E+02  0.30347872268E+02  0.55547938133E+02  0.14100276163E+02 0.  0.
         22    1    3    3    0    0 -0.12323770879E+02  0.42589751855E+02  0.33699687848E+02  0.55690495175E+02  0.00000000000E+00 0.  1.
         22    1    4    4    0    0 -0.81300407275E+00 -0.22335516720E+02  0.13540257980E+02  0.26131874578E+02  0.00000000000E+00 0. -1.
         22    1    4    4    0    0  0.13136774952E+02 -0.20254235135E+02  0.16807614288E+02  0.29416063555E+02  0.00000000000E+00 0. -1.
<mgrwt>
<rscale>  0 0.90949981E+02</rscale>
<asrwt>0</asrwt>
<pdfrwt beam="1">  1        1 0.13483538E-01 0.90949981E+02</pdfrwt>
<pdfrwt beam="2">  1       -1 0.36300672E-02 0.90949981E+02</pdfrwt>
<totfact> 0.10292025E+05</totfact>
</mgrwt>
</event>
<event>
 7    1  0.3301067E-009  0.9611588E+02  0.7818608E-02  0.1288682E+00
          1   -1    0    0  501    0  0.00000000000E+00  0.00000000000E+00  0.43526163426E+02  0.43526163718E+02  0.50400000000E-02 0. -1.
         -1   -1    0    0    0  501 -0.00000000000E+00 -0.00000000000E+00 -0.53061548415E+02  0.53061548654E+02  0.50400000000E-02 0.  1.
         23    2    1    2    0    0  0.00000000000E+00  0.00000000000E+00 -0.95353849886E+01  0.96587712372E+02  0.96115881177E+02 0.  0.
    9000005    2    3    3    0    0  0.23803934389E+02  0.13448891232E+02  0.33388883421E+02  0.45695740646E+02  0.15026084297E+02 0.  0.
         22    1    3    3    0    0 -0.23803934389E+02 -0.13448891232E+02 -0.42924268409E+02  0.50891971727E+02  0.00000000000E+00 0.  1.
         22    1    4    4    0    0  0.22926561402E+02  0.12641978932E+02  0.21865316433E+02  0.34110686181E+02  0.00000000000E+00 0.  1.
         22    1    4    4    0    0  0.87737298665E+00  0.80691230047E+00  0.11523566988E+02  0.11585054464E+02  0.00000000000E+00 0.  1.
<mgrwt>
<rscale>  0 0.96115881E+02</rscale>
<asrwt>0</asrwt>
<pdfrwt beam="1">  1        1 0.66963329E-02 0.96115881E+02</pdfrwt>
<pdfrwt beam="2">  1       -1 0.81633152E-02 0.96115881E+02</pdfrwt>
<totfact> 0.79103468E+04</totfact>
</mgrwt>
</event>
<event>
 7    1  0.3301067E-009  0.9280222E+02  0.7818608E-02  0.1296204E+00
         -1   -1    0    0    0  501 -0.00000000000E+00  0.00000000000E+00  0.25171674228E+03  0.25171674233E+03  0.50400000000E-02 0.  1.
          1   -1    0    0  501    0  0.00000000000E+00 -0.00000000000E+00 -0.85535141872E+01  0.85535156720E+01  0.50400000000E-02 0. -1.
         23    2    1    2    0    0  0.00000000000E+00  0.00000000000E+00  0.24316322809E+03  0.26027025800E+03  0.92802218207E+02 0.  0.
    9000005    2    3    3    0    0  0.34860130161E+02 -0.40325172620E+00  0.20733456532E+03  0.21027941521E+03  0.37972620540E+01 0.  0.
         22    1    3    3    0    0 -0.34860130161E+02  0.40325172620E+00  0.35828662775E+02  0.49990842792E+02  0.00000000000E+00 0. -1.
         22    1    4    4    0    0  0.31277586561E+02  0.33816405987E-01  0.19160631785E+03  0.19414239518E+03  0.00000000000E+00 0. -1.
         22    1    4    4    0    0  0.35825435991E+01 -0.43706813219E+00  0.15728247463E+02  0.16137020030E+02  0.00000000000E+00 0. -1.
<mgrwt>
<rscale>  0 0.92802218E+02</rscale>
<asrwt>0</asrwt>
<pdfrwt beam="2">  1        1 0.13159253E-02 0.92802218E+02</pdfrwt>
<pdfrwt beam="1">  1       -1 0.38725656E-01 0.92802218E+02</pdfrwt>
<totfact> 0.61697202E+04</totfact>
</mgrwt>
</event>
<event>
 7    1  0.3301067E-009  0.8954470E+02  0.7818608E-02  0.1303958E+00
          1   -1    0    0  501    0  0.00000000000E+00  0.00000000000E+00  0.20138635464E+03  0.20138635471E+03  0.50400000000E-02 0. -1.
         -1   -1    0    0    0  501 -0.00000000000E+00 -0.00000000000E+00 -0.99538185773E+01  0.99538198533E+01  0.50400000000E-02 0.  1.
         23    2    1    2    0    0 -0.17763568394E-14 -0.71054273576E-14  0.19143253607E+03  0.21134017456E+03  0.89544701229E+02 0.  0.
    9000005    2    3    3    0    0 -0.10012459715E+02 -0.40100300445E+02  0.13607824491E+03  0.14225775281E+03  0.34199490492E+01 0.  0.
         22    1    3    3    0    0  0.10012459715E+02  0.40100300445E+02  0.55354291154E+02  0.69082421748E+02  0.00000000000E+00 0.  1.
         22    1    4    4    0    0 -0.31260971062E+01 -0.14754658658E+02  0.55083551529E+02  0.57111032947E+02  0.00000000000E+00 0. -1.
         22    1    4    4    0    0 -0.68863626085E+01 -0.25345641787E+02  0.80994693384E+02  0.85146719866E+02  0.00000000000E+00 0. -1.
<mgrwt>
<rscale>  0 0.89544701E+02</rscale>
<asrwt>0</asrwt>
<pdfrwt beam="1">  1        1 0.30982516E-01 0.89544701E+02</pdfrwt>
<pdfrwt beam="2">  1       -1 0.15313568E-02 0.89544701E+02</pdfrwt>
<totfact> 0.12443919E+05</totfact>
</mgrwt>
</event>
<event>
 7    1  0.3301067E-009  0.7267389E+02  0.7818608E-02  0.1351229E+00
          1   -1    0    0  501    0  0.00000000000E+00  0.00000000000E+00  0.57656234638E+01  0.57656256666E+01  0.50400000000E-02 0. -1.
         -1   -1    0    0    0  501 -0.00000000000E+00 -0.00000000000E+00 -0.22900790282E+03  0.22900790288E+03  0.50400000000E-02 0.  1.
         23    2    1    2    0    0  0.00000000000E+00 -0.17763568394E-14 -0.22324227936E+03  0.23477352854E+03  0.72673890855E+02 0.  0.
    9000005    2    3    3    0    0 -0.23963784542E+02  0.14463148417E+02 -0.18444502429E+03  0.18693345504E+03  0.11861871590E+02 0.  0.
         22    1    3    3    0    0  0.23963784542E+02 -0.14463148417E+02 -0.38797255071E+02  0.47840073503E+02  0.00000000000E+00 0. -1.
         22    1    4    4    0    0 -0.15433835902E+02  0.70216555990E+01 -0.14185556135E+03  0.14286534648E+03  0.00000000000E+00 0. -1.
         22    1    4    4    0    0 -0.85299486394E+01  0.74414928182E+01 -0.42589462933E+02  0.44068108561E+02  0.00000000000E+00 0. -1.
<mgrwt>
<rscale>  0 0.72673891E+02</rscale>
<asrwt>0</asrwt>
<pdfrwt beam="1">  1        1 0.88701934E-03 0.72673891E+02</pdfrwt>
<pdfrwt beam="2">  1       -1 0.35231978E-01 0.72673891E+02</pdfrwt>
<totfact> 0.11988414E+05</totfact>
</mgrwt>
</event>
<event>
 7    1  0.3301067E-009  0.8865334E+02  0.7818608E-02  0.1306146E+00
         -1   -1    0    0    0  501 -0.00000000000E+00  0.00000000000E+00  0.54838898364E+02  0.54838898596E+02  0.50400000000E-02 0.  1.
          1   -1    0    0  501    0  0.00000000000E+00 -0.00000000000E+00 -0.35829562760E+02  0.35829563115E+02  0.50400000000E-02 0. -1.
         23    2    1    2    0    0  0.17763568394E-14  0.71054273576E-14  0.19009335604E+02  0.90668461710E+02  0.88653342344E+02 0.  0.
    9000005    2    3    3    0    0  0.15040397666E+02  0.37376096428E+02 -0.70668126894E+01  0.42677299441E+02  0.12174805950E+02 0.  0.
         22    1    3    3    0    0 -0.15040397666E+02 -0.37376096428E+02  0.26076148293E+02  0.47991162269E+02  0.00000000000E+00 0.  1.
         22    1    4    4    0    0  0.14126237214E+02  0.19238220776E+02 -0.51374964412E+01  0.24414208693E+02  0.00000000000E+00 0. -1.
         22    1    4    4    0    0  0.91416045197E+00  0.18137875652E+02 -0.19293162483E+01  0.18263090748E+02  0.00000000000E+00 0. -1.
<mgrwt>
<rscale>  0 0.88653342E+02</rscale>
<asrwt>0</asrwt>
<pdfrwt beam="2">  1        1 0.55122405E-02 0.88653342E+02</pdfrwt>
<pdfrwt beam="1">  1       -1 0.84367536E-02 0.88653342E+02</pdfrwt>
<totfact> 0.96521521E+04</totfact>
</mgrwt>
</event>
<event>
 7    1  0.3301067E-009  0.9031710E+02  0.7818608E-02  0.1302086E+00
          1   -1    0    0  501    0  0.00000000000E+00  0.00000000000E+00  0.10864299018E+03  0.10864299030E+03  0.50400000000E-02 0. -1.
         -1   -1    0    0    0  501 -0.00000000000E+00 -0.00000000000E+00 -0.18770606362E+02  0.18770607039E+02  0.50400000000E-02 0.  1.
         23    2    1    2    0    0  0.00000000000E+00  0.00000000000E+00  0.89872383822E+02  0.12741359734E+03  0.90317104766E+02 0.  0.
    9000005    2    3    3    0    0 -0.10508512265E+02  0.17430313714E+02 -0.11522540433E+02  0.23996116561E+02  0.53665636841E+01 0.  0.
         22    1    3    3    0    0  0.10508512265E+02 -0.17430313714E+02  0.10139492425E+03  0.10341748078E+03  0.00000000000E+00 0. -1.
         22    1    4    4    0    0  0.16594644760E+00  0.17486504662E+01  0.81650349763E-01  0.17584036670E+01  0.00000000000E+00 0.  1.
         22    1    4    4    0    0 -0.10674458712E+02  0.15681663248E+02 -0.11604190782E+02  0.22237712894E+02  0.00000000000E+00 0.  1.
<mgrwt>
<rscale>  0 0.90317105E+02</rscale>
<asrwt>0</asrwt>
<pdfrwt beam="1">  1        1 0.16714306E-01 0.90317105E+02</pdfrwt>
<pdfrwt beam="2">  1       -1 0.28877857E-02 0.90317105E+02</pdfrwt>
<totfact> 0.10867708E+05</totfact>
</mgrwt>
</event>
<event>
 7    1  0.3301067E-009  0.8845956E+02  0.7818608E-02  0.1306626E+00
         -1   -1    0    0    0  501 -0.00000000000E+00  0.00000000000E+00  0.25077510436E+02  0.25077510942E+02  0.50400000000E-02 0.  1.
          1   -1    0    0  501    0  0.00000000000E+00 -0.00000000000E+00 -0.78009067767E+02  0.78009067930E+02  0.50400000000E-02 0. -1.
         23    2    1    2    0    0  0.00000000000E+00  0.00000000000E+00 -0.52931557331E+02  0.10308657887E+03  0.88459555629E+02 0.  0.
    9000005    2    3    3    0    0 -0.39612636620E+01 -0.42373670053E+02 -0.14564055562E+02  0.45786624984E+02  0.85489057451E+01 0.  0.
         22    1    3    3    0    0  0.39612636620E+01  0.42373670053E+02 -0.38367501769E+02  0.57299953888E+02  0.00000000000E+00 0.  1.
         22    1    4    4    0    0 -0.39757983630E+01 -0.14931958265E+02 -0.19164857100E+01  0.15570589833E+02  0.00000000000E+00 0.  1.
         22    1    4    4    0    0  0.14534700922E-01 -0.27441711788E+02 -0.12647569852E+02  0.30216035151E+02  0.00000000000E+00 0.  1.
<mgrwt>
<rscale>  0 0.88459556E+02</rscale>
<asrwt>0</asrwt>
<pdfrwt beam="2">  1        1 0.12001395E-01 0.88459556E+02</pdfrwt>
<pdfrwt beam="1">  1       -1 0.38580786E-02 0.88459556E+02</pdfrwt>
<totfact> 0.10901524E+05</totfact>
</mgrwt>
</event>
<event>
 7    1  0.3301067E-009  0.9291207E+02  0.7818608E-02  0.1295949E+00
          1   -1    0    0  501    0  0.00000000000E+00  0.00000000000E+00  0.17128730732E+03  0.17128730739E+03  0.50400000000E-02 0. -1.
         -1   -1    0    0    0  501 -0.00000000000E+00 -0.00000000000E+00 -0.12599668126E+02  0.12599669134E+02  0.50400000000E-02 0.  1.
         23    2    1    2    0    0  0.00000000000E+00  0.00000000000E+00  0.15868763919E+03  0.18388697653E+03  0.92912072971E+02 0.  0.
    9000005    2    3    3    0    0 -0.34607058560E+02 -0.19479937715E+02  0.34100132392E+02  0.53123207362E+02  0.90630930561E+01 0.  0.
         22    1    3    3    0    0  0.34607058560E+02  0.19479937715E+02  0.12458750680E+03  0.13076376917E+03  0.00000000000E+00 0. -1.
         22    1    4    4    0    0 -0.29947861696E+01  0.86549692454E+00  0.21510843295E+01  0.37874784383E+01  0.00000000000E+00 0. -1.
         22    1    4    4    0    0 -0.31612272390E+02 -0.20345434639E+02  0.31949048062E+02  0.49335728924E+02  0.00000000000E+00 0. -1.
<mgrwt>
<rscale>  0 0.92912073E+02</rscale>
<asrwt>0</asrwt>
<pdfrwt beam="1">  1        1 0.26351894E-01 0.92912073E+02</pdfrwt>
<pdfrwt beam="2">  1       -1 0.19384106E-02 0.92912073E+02</pdfrwt>
<totfact> 0.10924518E+05</totfact>
</mgrwt>
</event>
<event>
 7    1  0.3301067E-009  0.9149348E+02  0.7818608E-02  0.1299275E+00
         -1   -1    0    0    0  501 -0.00000000000E+00  0.00000000000E+00  0.25136871855E+02  0.25136872360E+02  0.50400000000E-02 0.  1.
          1   -1    0    0  501    0  0.00000000000E+00 -0.00000000000E+00 -0.83254765930E+02  0.83254766083E+02  0.50400000000E-02 0. -1.
         23    2    1    2    0    0  0.35527136788E-14  0.00000000000E+00 -0.58117894075E+02  0.10839163844E+03  0.91493484318E+02 0.  0.
    9000005    2    3    3    0    0  0.30742887562E+02 -0.32834034381E+02 -0.32953554296E+02  0.56850946307E+02  0.11085774933E+02 0.  0.
         22    1    3    3    0    0 -0.30742887562E+02  0.32834034381E+02 -0.25164339779E+02  0.51540692136E+02  0.00000000000E+00 0. -1.
         22    1    4    4    0    0  0.31103303975E+02 -0.29508556802E+02 -0.29496199531E+02  0.52040332719E+02  0.00000000000E+00 0.  1.
         22    1    4    4    0    0 -0.36041641387E+00 -0.33254775791E+01 -0.34573547646E+01  0.48106135876E+01  0.00000000000E+00 0.  1.
<mgrwt>
<rscale>  0 0.91493484E+02</rscale>
<asrwt>0</asrwt>
<pdfrwt beam="2">  1        1 0.12808425E-01 0.91493484E+02</pdfrwt>
<pdfrwt beam="1">  1       -1 0.38672111E-02 0.91493484E+02</pdfrwt>
<totfact> 0.10042284E+05</totfact>
</mgrwt>
</event>
<event>
 7    1  0.3301067E-009  0.9073743E+02  0.7818608E-02  0.1301076E+00
          1   -1    0    0  501    0  0.00000000000E+00  0.00000000000E+00  0.11282971179E+02  0.11282972304E+02  0.50400000000E-02 0. -1.
         -1   -1    0    0    0  501 -0.00000000000E+00 -0.00000000000E+00 -0.18242715190E+03  0.18242715197E+03  0.50400000000E-02 0.  1.
         23    2    1    2    0    0  0.00000000000E+00  0.00000000000E+00 -0.17114418072E+03  0.19371012427E+03  0.90737432471E+02 0.  0.
    9000005    2    3    3    0    0 -0.34411044406E+01  0.36908813879E+02 -0.14111157023E+03  0.14600205960E+03  0.54794537326E+01 0.  0.
         22    1    3    3    0    0  0.34411044406E+01 -0.36908813879E+02 -0.30032610484E+02  0.47708064666E+02  0.00000000000E+00 0. -1.
         22    1    4    4    0    0 -0.36813263062E+00  0.64350222719E+00 -0.70197641921E+01  0.70588034441E+01  0.00000000000E+00 0. -1.
         22    1    4    4    0    0 -0.30729718100E+01  0.36265311652E+02 -0.13409180604E+03  0.13894325616E+03  0.00000000000E+00 0. -1.
<mgrwt>
<rscale>  0 0.90737432E+02</rscale>
<asrwt>0</asrwt>
<pdfrwt beam="1">  1        1 0.17358419E-02 0.90737432E+02</pdfrwt>
<pdfrwt beam="2">  1       -1 0.28065714E-01 0.90737432E+02</pdfrwt>
<totfact> 0.72115193E+04</totfact>
</mgrwt>
</event>
<event>
 7    1  0.3301067E-009  0.9027783E+02  0.7818608E-02  0.1302180E+00
          1   -1    0    0  501    0  0.00000000000E+00  0.00000000000E+00  0.65346950229E+03  0.65346950231E+03  0.50400000000E-02 0. -1.
         -1   -1    0    0    0  501 -0.00000000000E+00 -0.00000000000E+00 -0.31180033839E+01  0.31180074573E+01  0.50400000000E-02 0.  1.
         23    2    1    2    0    0 -0.88817841970E-15  0.71054273576E-14  0.65035149890E+03  0.65658750976E+03  0.90277825917E+02 0.  0.
    9000005    2    3    3    0    0  0.54592139781E+01  0.32239971916E+02  0.54780123104E+03  0.54895026600E+03  0.13819804832E+02 0.  0.
         22    1    3    3    0    0 -0.54592139781E+01 -0.32239971916E+02  0.10255026786E+03  0.10763724376E+03  0.00000000000E+00 0.  1.
         22    1    4    4    0    0  0.95767058633E+01  0.27137658128E+02  0.46517179312E+03  0.46606111498E+03  0.00000000000E+00 0.  1.
         22    1    4    4    0    0 -0.41174918852E+01  0.51023137871E+01  0.82629437923E+02  0.82889151021E+02  0.00000000000E+00 0.  1.
<mgrwt>
<rscale>  0 0.90277826E+02</rscale>
<asrwt>0</asrwt>
<pdfrwt beam="1">  1        1 0.10053391E+00 0.90277826E+02</pdfrwt>
<pdfrwt beam="2">  1       -1 0.47969245E-03 0.90277826E+02</pdfrwt>
<totfact> 0.14587320E+05</totfact>
</mgrwt>
</event>
<event>
 7    1  0.3301067E-009  0.9070080E+02  0.7818608E-02  0.1301163E+00
          1   -1    0    0  501    0  0.00000000000E+00  0.00000000000E+00  0.34401524704E+03  0.34401524708E+03  0.50400000000E-02 0. -1.
         -1   -1    0    0    0  501 -0.00000000000E+00 -0.00000000000E+00 -0.59783935761E+01  0.59783957006E+01  0.50400000000E-02 0.  1.
         23    2    1    2    0    0  0.00000000000E+00  0.00000000000E+00  0.33803685347E+03  0.34999364278E+03  0.90700803111E+02 0.  0.
    9000005    2    3    3    0    0 -0.66604162351E+01  0.42396497526E+02  0.21810977987E+03  0.22261889203E+03  0.12061130445E+02 0.  0.
         22    1    3    3    0    0  0.66604162351E+01 -0.42396497526E+02  0.11992707360E+03  0.12737475075E+03  0.00000000000E+00 0. -1.
         22    1    4    4    0    0 -0.31486007206E+01  0.40212481305E+02  0.20191592072E+03  0.20590530926E+03  0.00000000000E+00 0.  1.
         22    1    4    4    0    0 -0.35118155145E+01  0.21840162208E+01  0.16193859143E+02  0.16713582770E+02  0.00000000000E+00 0.  1.
<mgrwt>
<rscale>  0 0.90700803E+02</rscale>
<asrwt>0</asrwt>
<pdfrwt beam="1">  1        1 0.52925420E-01 0.90700803E+02</pdfrwt>
<pdfrwt beam="2">  1       -1 0.91975307E-03 0.90700803E+02</pdfrwt>
<totfact> 0.13326684E+05</totfact>
</mgrwt>
</event>
<event>
 7    1  0.3301067E-009  0.9018341E+02  0.7818608E-02  0.1302408E+00
          1   -1    0    0  501    0  0.00000000000E+00  0.00000000000E+00  0.20219504784E+02  0.20219505412E+02  0.50400000000E-02 0. -1.
         -1   -1    0    0    0  501 -0.00000000000E+00 -0.00000000000E+00 -0.10055943116E+03  0.10055943129E+03  0.50400000000E-02 0.  1.
         23    2    1    2    0    0  0.00000000000E+00  0.00000000000E+00 -0.80339926380E+02  0.12077893670E+03  0.90183411890E+02 0.  0.
    9000005    2    3    3    0    0  0.24217177691E+02 -0.26164171034E+01  0.10489598272E+02  0.26740009218E+02  0.34174679587E+01 0.  0.
         22    1    3    3    0    0 -0.24217177691E+02  0.26164171034E+01 -0.90829524652E+02  0.94038927484E+02  0.00000000000E+00 0.  1.
         22    1    4    4    0    0  0.16221387965E+01 -0.81561083975E+00  0.13630144193E+00  0.18207507792E+01  0.00000000000E+00 0. -1.
         22    1    4    4    0    0  0.22595038895E+02 -0.18008062636E+01  0.10353296831E+02  0.24919258438E+02  0.00000000000E+00 0. -1.
<mgrwt>
<rscale>  0 0.90183412E+02</rscale>
<asrwt>0</asrwt>
<pdfrwt beam="1">  1        1 0.31106932E-02 0.90183412E+02</pdfrwt>
<pdfrwt beam="2">  1       -1 0.15470681E-01 0.90183412E+02</pdfrwt>
<totfact> 0.83610124E+04</totfact>
</mgrwt>
</event>
<event>
 7    1  0.3301067E-009  0.9181186E+02  0.7818608E-02  0.1298522E+00
          1   -1    0    0  501    0  0.00000000000E+00  0.00000000000E+00  0.10709027546E+02  0.10709028732E+02  0.50400000000E-02 0. -1.
         -1   -1    0    0    0  501 -0.00000000000E+00 -0.00000000000E+00 -0.19678296553E+03  0.19678296559E+03  0.50400000000E-02 0.  1.
         23    2    1    2    0    0  0.00000000000E+00  0.00000000000E+00 -0.18607393798E+03  0.20749199432E+03  0.91811858235E+02 0.  0.
    9000005    2    3    3    0    0  0.28004478890E+02  0.28257183361E+02 -0.42326242169E+02  0.58340664122E+02  0.54224592807E+01 0.  0.
         22    1    3    3    0    0 -0.28004478890E+02 -0.28257183361E+02 -0.14374769581E+03  0.14915133020E+03  0.00000000000E+00 0.  1.
         22    1    4    4    0    0  0.71880433171E+01  0.10493787365E+02 -0.11895836235E+02  0.17415466107E+02  0.00000000000E+00 0.  1.
         22    1    4    4    0    0  0.20816435573E+02  0.17763395996E+02 -0.30430405933E+02  0.40925198015E+02  0.00000000000E+00 0.  1.
<mgrwt>
<rscale>  0 0.91811858E+02</rscale>
<asrwt>0</asrwt>
<pdfrwt beam="1">  1        1 0.16475430E-02 0.91811858E+02</pdfrwt>
<pdfrwt beam="2">  1       -1 0.30274300E-01 0.91811858E+02</pdfrwt>
<totfact> 0.68494530E+04</totfact>
</mgrwt>
</event>
<event>
 7    1  0.3947901E-009  0.9139878E+02  0.7818608E-02  0.1299499E+00
         -1   -1    0    0    0  501 -0.00000000000E+00  0.00000000000E+00  0.51399624330E+02  0.51399624577E+02  0.50400000000E-02 0.  1.
          1   -1    0    0  501    0  0.00000000000E+00 -0.00000000000E+00 -0.40631316093E+02  0.40631316406E+02  0.50400000000E-02 0. -1.
         23    2    1    2    0    0  0.00000000000E+00  0.00000000000E+00  0.10768308237E+02  0.92030940983E+02  0.91398783558E+02 0.  0.
    9000005    2    3    3    0    0  0.25182374666E+01 -0.32184231619E+02  0.36111559119E+02  0.50988930188E+02  0.15926707599E+02 0.  0.
         22    1    3    3    0    0 -0.25182374666E+01  0.32184231619E+02 -0.25343250882E+02  0.41042010795E+02  0.00000000000E+00 0. -1.
         22    1    4    4    0    0  0.39894642418E+01 -0.26120297342E+02  0.18368260529E+02  0.32180409461E+02  0.00000000000E+00 0.  1.
         22    1    4    4    0    0 -0.14712267752E+01 -0.60639342764E+01  0.17743298589E+02  0.18808520728E+02  0.00000000000E+00 0.  1.
<mgrwt>
<rscale>  0 0.91398784E+02</rscale>
<asrwt>0</asrwt>
<pdfrwt beam="2">  1        1 0.62509717E-02 0.91398784E+02</pdfrwt>
<pdfrwt beam="1">  1       -1 0.79076346E-02 0.91398784E+02</pdfrwt>
<totfact> 0.90257278E+04</totfact>
</mgrwt>
</event>
<event>
 7    1  0.3301067E-009  0.9058036E+02  0.7818608E-02  0.1301452E+00
         -1   -1    0    0    0  501 -0.00000000000E+00  0.00000000000E+00  0.10191519303E+03  0.10191519315E+03  0.50400000000E-02 0.  1.
          1   -1    0    0  501    0  0.00000000000E+00 -0.00000000000E+00 -0.20126542603E+02  0.20126543234E+02  0.50400000000E-02 0. -1.
         23    2    1    2    0    0 -0.88817841970E-15  0.71054273576E-14  0.81788650425E+02  0.12204173639E+03  0.90580362562E+02 0.  0.
    9000005    2    3    3    0    0 -0.22304083042E+01  0.40778555194E+02  0.19428254962E+02  0.47498566296E+02  0.14518657802E+02 0.  0.
         22    1    3    3    0    0  0.22304083042E+01 -0.40778555194E+02  0.62360395463E+02  0.74543170091E+02  0.00000000000E+00 0.  1.
         22    1    4    4    0    0 -0.46162504725E+01  0.21466239369E+02  0.17240706756E+02  0.27916861759E+02  0.00000000000E+00 0. -1.
         22    1    4    4    0    0  0.23858421683E+01  0.19312315825E+02  0.21875482062E+01  0.19581704536E+02  0.00000000000E+00 0. -1.
<mgrwt>
<rscale>  0 0.90580363E+02</rscale>
<asrwt>0</asrwt>
<pdfrwt beam="2">  1        1 0.30963912E-02 0.90580363E+02</pdfrwt>
<pdfrwt beam="1">  1       -1 0.15679260E-01 0.90580363E+02</pdfrwt>
<totfact> 0.82464533E+04</totfact>
</mgrwt>
</event>
<event>
 7    1  0.3301067E-009  0.9095313E+02  0.7818608E-02  0.1300560E+00
          1   -1    0    0  501    0  0.00000000000E+00  0.00000000000E+00  0.18623728739E+02  0.18623729421E+02  0.50400000000E-02 0. -1.
         -1   -1    0    0    0  501 -0.00000000000E+00 -0.00000000000E+00 -0.11104747855E+03  0.11104747866E+03  0.50400000000E-02 0.  1.
         23    2    1    2    0    0  0.00000000000E+00  0.35527136788E-14 -0.92423749809E+02  0.12967120808E+03  0.90953134510E+02 0.  0.
    9000005    2    3    3    0    0 -0.27107136701E+01  0.23740651486E+02  0.75623957745E+01  0.26869477504E+02  0.96856847913E+01 0.  0.
         22    1    3    3    0    0  0.27107136701E+01 -0.23740651486E+02 -0.99986145584E+02  0.10280173058E+03  0.00000000000E+00 0.  1.
         22    1    4    4    0    0 -0.28026522458E+01  0.46268203500E+01  0.53832185120E+01  0.76316032202E+01  0.00000000000E+00 0. -1.
         22    1    4    4    0    0  0.91938575777E-01  0.19113831136E+02  0.21791772626E+01  0.19237874284E+02  0.00000000000E+00 0. -1.
<mgrwt>
<rscale>  0 0.90953135E+02</rscale>
<asrwt>0</asrwt>
<pdfrwt beam="1">  1        1 0.28651892E-02 0.90953135E+02</pdfrwt>
<pdfrwt beam="2">  1       -1 0.17084227E-01 0.90953135E+02</pdfrwt>
<totfact> 0.80266810E+04</totfact>
</mgrwt>
</event>
<event>
 7    1  0.3301067E-009  0.8582650E+02  0.7818608E-02  0.1313285E+00
         -1   -1    0    0    0  501 -0.00000000000E+00  0.00000000000E+00  0.18151539799E+02  0.18151540498E+02  0.50400000000E-02 0.  1.
          1   -1    0    0  501    0  0.00000000000E+00 -0.00000000000E+00 -0.10145403929E+03  0.10145403941E+03  0.50400000000E-02 0. -1.
         23    2    1    2    0    0  0.71054273576E-14 -0.17763568394E-14 -0.83302499490E+02  0.11960557991E+03  0.85826501297E+02 0.  0.
    9000005    2    3    3    0    0  0.32180228967E+02 -0.91278281131E+01 -0.78545970490E+02  0.85819355640E+02  0.87525961794E+01 0.  0.
         22    1    3    3    0    0 -0.32180228967E+02  0.91278281131E+01 -0.47565290001E+01  0.33786224272E+02  0.00000000000E+00 0.  1.
         22    1    4    4    0    0  0.11045048243E+02 -0.31020179695E+01 -0.38077969190E+02  0.39768672895E+02  0.00000000000E+00 0. -1.
         22    1    4    4    0    0  0.21135180724E+02 -0.60258101436E+01 -0.40468001300E+02  0.46050682746E+02  0.00000000000E+00 0. -1.
<mgrwt>
<rscale>  0 0.85826501E+02</rscale>
<asrwt>0</asrwt>
<pdfrwt beam="2">  1        1 0.15608313E-01 0.85826501E+02</pdfrwt>
<pdfrwt beam="1">  1       -1 0.27925447E-02 0.85826501E+02</pdfrwt>
<totfact> 0.12336428E+05</totfact>
</mgrwt>
</event>
<event>
 7    1  0.3301067E-009  0.9095133E+02  0.7818608E-02  0.1300564E+00
         -1   -1    0    0    0  501 -0.00000000000E+00  0.00000000000E+00  0.30873421239E+03  0.30873421243E+03  0.50400000000E-02 0.  1.
          1   -1    0    0  501    0  0.00000000000E+00 -0.00000000000E+00 -0.66984348805E+01  0.66984367766E+01  0.50400000000E-02 0. -1.
         23    2    1    2    0    0  0.35527136788E-14  0.00000000000E+00  0.30203577751E+03  0.31543264920E+03  0.90951334736E+02 0.  0.
    9000005    2    3    3    0    0  0.26767588895E+02 -0.34369994933E+02  0.11514819019E+03  0.12353483614E+03  0.10195571028E+02 0.  0.
         22    1    3    3    0    0 -0.26767588895E+02  0.34369994933E+02  0.18688758731E+03  0.19189781306E+03  0.00000000000E+00 0. -1.
         22    1    4    4    0    0  0.21014078377E+02 -0.28324353324E+02  0.10234801719E+03  0.10825422442E+03  0.00000000000E+00 0.  1.
         22    1    4    4    0    0  0.57535105175E+01 -0.60456416092E+01  0.12800172999E+02  0.15280611720E+02  0.00000000000E+00 0.  1.
<mgrwt>
<rscale>  0 0.90951335E+02</rscale>
<asrwt>0</asrwt>
<pdfrwt beam="2">  1        1 0.10305287E-02 0.90951335E+02</pdfrwt>
<pdfrwt beam="1">  1       -1 0.47497567E-01 0.90951335E+02</pdfrwt>
<totfact> 0.60286911E+04</totfact>
</mgrwt>
</event>
<event>
 7    1  0.3301067E-009  0.1124699E+03  0.7818608E-02  0.1256063E+00
         -1   -1    0    0    0  501 -0.00000000000E+00  0.00000000000E+00  0.14018197832E+02  0.14018198738E+02  0.50400000000E-02 0.  1.
          1   -1    0    0  501    0  0.00000000000E+00 -0.00000000000E+00 -0.22559041529E+03  0.22559041535E+03  0.50400000000E-02 0. -1.
         23    2    1    2    0    0  0.00000000000E+00  0.22204460493E-15 -0.21157221746E+03  0.23960861408E+03  0.11246992817E+03 0.  0.
    9000005    2    3    3    0    0 -0.10075937548E+02  0.14020199696E+01 -0.22346195829E+03  0.22396073517E+03  0.10939557501E+02 0.  0.
         22    1    3    3    0    0  0.10075937548E+02 -0.14020199696E+01  0.11889740831E+02  0.15647878913E+02  0.00000000000E+00 0.  1.
         22    1    4    4    0    0 -0.10263727883E+02  0.30767673460E+01 -0.21753813716E+03  0.21780186346E+03  0.00000000000E+00 0. -1.
         22    1    4    4    0    0  0.18779033520E+00 -0.16747473764E+01 -0.59238211269E+01  0.61588717091E+01  0.00000000000E+00 0. -1.
<mgrwt>
<rscale>  0 0.11246993E+03</rscale>
<asrwt>0</asrwt>
<pdfrwt beam="2">  1        1 0.34706215E-01 0.11246993E+03</pdfrwt>
<pdfrwt beam="1">  1       -1 0.21566461E-02 0.11246993E+03</pdfrwt>
<totfact> 0.68661223E+04</totfact>
</mgrwt>
</event>
<event>
 7    1  0.3301067E-009  0.8829339E+02  0.7818608E-02  0.1307038E+00
          1   -1    0    0  501    0  0.00000000000E+00  0.00000000000E+00  0.11394714690E+03  0.11394714701E+03  0.50400000000E-02 0. -1.
         -1   -1    0    0    0  501 -0.00000000000E+00 -0.00000000000E+00 -0.17103811360E+02  0.17103812102E+02  0.50400000000E-02 0.  1.
         23    2    1    2    0    0  0.71054273576E-14  0.55511151231E-16  0.96843335542E+02  0.13105095912E+03  0.88293387330E+02 0.  0.
    9000005    2    3    3    0    0  0.39328588352E+02  0.44361565099E+00  0.76988244381E+02  0.86992369696E+02  0.96720192246E+01 0.  0.
         22    1    3    3    0    0 -0.39328588352E+02 -0.44361565099E+00  0.19855091161E+02  0.44058589419E+02  0.00000000000E+00 0. -1.
         22    1    4    4    0    0  0.12062641357E+02 -0.29463500803E+00  0.14871345363E+02  0.19150745134E+02  0.00000000000E+00 0.  1.
         22    1    4    4    0    0  0.27265946995E+02  0.73825065902E+00  0.62116899019E+02  0.67841624562E+02  0.00000000000E+00 0.  1.
<mgrwt>
<rscale>  0 0.88293387E+02</rscale>
<asrwt>0</asrwt>
<pdfrwt beam="1">  1        1 0.17530330E-01 0.88293387E+02</pdfrwt>
<pdfrwt beam="2">  1       -1 0.26313558E-02 0.88293387E+02</pdfrwt>
<totfact> 0.11649003E+05</totfact>
</mgrwt>
</event>
<event>
 7    1  0.3301067E-009  0.9231194E+02  0.7818608E-02  0.1297348E+00
          1   -1    0    0  501    0  0.00000000000E+00  0.00000000000E+00  0.17258986831E+02  0.17258987567E+02  0.50400000000E-02 0. -1.
         -1   -1    0    0    0  501 -0.00000000000E+00 -0.00000000000E+00 -0.12343560767E+03  0.12343560778E+03  0.50400000000E-02 0.  1.
         23    2    1    2    0    0  0.35527136788E-14  0.00000000000E+00 -0.10617662084E+03  0.14069459534E+03  0.92311940426E+02 0.  0.
    9000005    2    3    3    0    0  0.23067307240E+02 -0.49258062905E+01 -0.11288312410E+03  0.11617233165E+03  0.14037332494E+02 0.  0.
         22    1    3    3    0    0 -0.23067307240E+02  0.49258062905E+01  0.67065032535E+01  0.24522263697E+02  0.00000000000E+00 0. -1.
         22    1    4    4    0    0  0.50156994936E+01 -0.63044769796E+01 -0.20386430569E+02  0.21920543395E+02  0.00000000000E+00 0. -1.
         22    1    4    4    0    0  0.18051607747E+02  0.13786706891E+01 -0.92496693527E+02  0.94251788251E+02  0.00000000000E+00 0. -1.
<mgrwt>
<rscale>  0 0.92311940E+02</rscale>
<asrwt>0</asrwt>
<pdfrwt beam="1">  1        1 0.26552289E-02 0.92311940E+02</pdfrwt>
<pdfrwt beam="2">  1       -1 0.18990093E-01 0.92311940E+02</pdfrwt>
<totfact> 0.75612728E+04</totfact>
</mgrwt>
</event>
<event>
 7    1  0.3301067E-009  0.9241242E+02  0.7818608E-02  0.1297113E+00
          1   -1    0    0  501    0  0.00000000000E+00  0.00000000000E+00  0.10902948201E+03  0.10902948212E+03  0.50400000000E-02 0. -1.
         -1   -1    0    0    0  501 -0.00000000000E+00 -0.00000000000E+00 -0.19581986043E+02  0.19581986691E+02  0.50400000000E-02 0.  1.
         23    2    1    2    0    0 -0.17763568394E-14  0.00000000000E+00  0.89447495965E+02  0.12861146882E+03  0.92412420034E+02 0.  0.
    9000005    2    3    3    0    0  0.12231143862E+02  0.30187103693E+02  0.25197474989E+01  0.35782079273E+02  0.14599519171E+02 0.  0.
         22    1    3    3    0    0 -0.12231143862E+02 -0.30187103693E+02  0.86927748466E+02  0.92829389543E+02  0.00000000000E+00 0. -1.
         22    1    4    4    0    0  0.10007169555E+02  0.11004626808E+02  0.62153617626E+01  0.16120669202E+02  0.00000000000E+00 0. -1.
         22    1    4    4    0    0  0.22239743075E+01  0.19182476886E+02 -0.36956142637E+01  0.19661410071E+02  0.00000000000E+00 0. -1.
<mgrwt>
<rscale>  0 0.92412420E+02</rscale>
<asrwt>0</asrwt>
<pdfrwt beam="1">  1        1 0.16773766E-01 0.92412420E+02</pdfrwt>
<pdfrwt beam="2">  1       -1 0.30126133E-02 0.92412420E+02</pdfrwt>
<totfact> 0.10216418E+05</totfact>
</mgrwt>
</event>
<event>
 7    1  0.3301067E-009  0.9171790E+02  0.7818608E-02  0.1298744E+00
         -1   -1    0    0    0  501 -0.00000000000E+00  0.00000000000E+00  0.31744120823E+01  0.31744160833E+01  0.50400000000E-02 0.  1.
          1   -1    0    0  501    0  0.00000000000E+00 -0.00000000000E+00 -0.66249809726E+03  0.66249809728E+03  0.50400000000E-02 0. -1.
         23    2    1    2    0    0  0.00000000000E+00  0.00000000000E+00 -0.65932368518E+03  0.66567251337E+03  0.91717900161E+02 0.  0.
    9000005    2    3    3    0    0 -0.35916365209E+02 -0.98038745745E+01 -0.52013643811E+03  0.52159201158E+03  0.11411005732E+02 0.  0.
         22    1    3    3    0    0  0.35916365209E+02  0.98038745745E+01 -0.13918724707E+03  0.14408050178E+03  0.00000000000E+00 0.  1.
         22    1    4    4    0    0 -0.22373231182E+02 -0.58476789931E+01 -0.24337188509E+03  0.24446805778E+03  0.00000000000E+00 0.  1.
         22    1    4    4    0    0 -0.13543134027E+02 -0.39561955815E+01 -0.27676455302E+03  0.27712395380E+03  0.00000000000E+00 0.  1.
<mgrwt>
<rscale>  0 0.91717900E+02</rscale>
<asrwt>0</asrwt>
<pdfrwt beam="2">  1        1 0.10192267E+00 0.91717900E+02</pdfrwt>
<pdfrwt beam="1">  1       -1 0.48837193E-03 0.91717900E+02</pdfrwt>
<totfact> 0.13993247E+05</totfact>
</mgrwt>
</event>
<event>
 7    1  0.3301067E-009  0.8874180E+02  0.7818608E-02  0.1305928E+00
         -1   -1    0    0    0  501 -0.00000000000E+00  0.00000000000E+00  0.28609367474E+01  0.28609411867E+01  0.50400000000E-02 0.  1.
          1   -1    0    0  501    0  0.00000000000E+00 -0.00000000000E+00 -0.68815750166E+03  0.68815750168E+03  0.50400000000E-02 0. -1.
         23    2    1    2    0    0 -0.44408920985E-15  0.00000000000E+00 -0.68529656491E+03  0.69101844286E+03  0.88741796797E+02 0.  0.
    9000005    2    3    3    0    0 -0.30071218740E+01 -0.40052241032E+02 -0.48155935832E+03  0.48335989105E+03  0.11141987809E+02 0.  0.
         22    1    3    3    0    0  0.30071218740E+01  0.40052241032E+02 -0.20373720659E+03  0.20765855182E+03  0.00000000000E+00 0.  1.
         22    1    4    4    0    0 -0.41423502557E+01 -0.37561890920E+02 -0.40707894066E+03  0.40882920474E+03  0.00000000000E+00 0. -1.
         22    1    4    4    0    0  0.11352283818E+01 -0.24903501116E+01 -0.74480417657E+02  0.74530686308E+02  0.00000000000E+00 0. -1.
<mgrwt>
<rscale>  0 0.88741797E+02</rscale>
<asrwt>0</asrwt>
<pdfrwt beam="2">  1        1 0.10587025E+00 0.88741797E+02</pdfrwt>
<pdfrwt beam="1">  1       -1 0.44014500E-03 0.88741797E+02</pdfrwt>
<totfact> 0.15272491E+05</totfact>
</mgrwt>
</event>
<event>
 7    1  0.3301067E-009  0.9688622E+02  0.7818608E-02  0.1286983E+00
          1   -1    0    0  501    0  0.00000000000E+00  0.00000000000E+00  0.64621703719E+02  0.64621703915E+02  0.50400000000E-02 0. -1.
         -1   -1    0    0    0  501 -0.00000000000E+00 -0.00000000000E+00 -0.36314963388E+02  0.36314963738E+02  0.50400000000E-02 0.  1.
         23    2    1    2    0    0 -0.17763568394E-14  0.00000000000E+00  0.28306740331E+02  0.10093666765E+03  0.96886218466E+02 0.  0.
    9000005    2    3    3    0    0  0.13999903931E+02 -0.44866346016E+02  0.18983147066E+02  0.53020953047E+02  0.15552339843E+02 0.  0.
         22    1    3    3    0    0 -0.13999903931E+02  0.44866346016E+02  0.93235932647E+01  0.47915714606E+02  0.00000000000E+00 0.  1.
         22    1    4    4    0    0  0.58386326898E+01 -0.35425457446E+02  0.89335492296E+01  0.36998121152E+02  0.00000000000E+00 0.  1.
         22    1    4    4    0    0  0.81612712407E+01 -0.94408885701E+01  0.10049597837E+02  0.16022831895E+02  0.00000000000E+00 0.  1.
<mgrwt>
<rscale>  0 0.96886218E+02</rscale>
<asrwt>0</asrwt>
<pdfrwt beam="1">  1        1 0.99418005E-02 0.96886218E+02</pdfrwt>
<pdfrwt beam="2">  1       -1 0.55869175E-02 0.96886218E+02</pdfrwt>
<totfact> 0.82318825E+04</totfact>
</mgrwt>
</event>
<event>
 7    1  0.3301067E-009  0.8801290E+02  0.7818608E-02  0.1307736E+00
         -1   -1    0    0    0  501 -0.00000000000E+00  0.00000000000E+00  0.33984107010E+01  0.33984144383E+01  0.50400000000E-02 0.  1.
          1   -1    0    0  501    0  0.00000000000E+00 -0.00000000000E+00 -0.56984475221E+03  0.56984475223E+03  0.50400000000E-02 0. -1.
         23    2    1    2    0    0 -0.35527136788E-14  0.00000000000E+00 -0.56644634151E+03  0.57324316667E+03  0.88012898632E+02 0.  0.
    9000005    2    3    3    0    0  0.31761956254E+02  0.41179868356E+01 -0.47931213002E+03  0.48040917240E+03  0.52033892916E+01 0.  0.
         22    1    3    3    0    0 -0.31761956254E+02 -0.41179868356E+01 -0.87134211491E+02  0.92833994274E+02  0.00000000000E+00 0.  1.
         22    1    4    4    0    0  0.23888892092E+02  0.33563925116E+01 -0.32473337118E+03  0.32562817276E+03  0.00000000000E+00 0. -1.
         22    1    4    4    0    0  0.78730641619E+01  0.76159432398E+00 -0.15457875884E+03  0.15478099964E+03  0.00000000000E+00 0. -1.
<mgrwt>
<rscale>  0 0.88012899E+02</rscale>
<asrwt>0</asrwt>
<pdfrwt beam="2">  1        1 0.87668348E-01 0.88012899E+02</pdfrwt>
<pdfrwt beam="1">  1       -1 0.52283316E-03 0.88012899E+02</pdfrwt>
<totfact> 0.15488201E+05</totfact>
</mgrwt>
</event>
<event>
 7    1  0.3301067E-009  0.9020008E+02  0.7818608E-02  0.1302368E+00
         -1   -1    0    0    0  501 -0.00000000000E+00  0.00000000000E+00  0.61477622354E+02  0.61477622561E+02  0.50400000000E-02 0.  1.
          1   -1    0    0  501    0  0.00000000000E+00 -0.00000000000E+00 -0.33085430377E+02  0.33085430761E+02  0.50400000000E-02 0. -1.
         23    2    1    2    0    0  0.17763568394E-14  0.00000000000E+00  0.28392191978E+02  0.94563053322E+02  0.90200080311E+02 0.  0.
    9000005    2    3    3    0    0 -0.14749992112E+02  0.39058779754E+02  0.29918877820E+02  0.52784095546E+02  0.12160219959E+02 0.  0.
         22    1    3    3    0    0  0.14749992112E+02 -0.39058779754E+02 -0.15266858420E+01  0.41778957776E+02  0.00000000000E+00 0.  1.
         22    1    4    4    0    0 -0.16573557449E+02  0.36371194955E+02  0.29082943263E+02  0.49430397711E+02  0.00000000000E+00 0.  1.
         22    1    4    4    0    0  0.18235653368E+01  0.26875847985E+01  0.83593455641E+00  0.33536978351E+01  0.00000000000E+00 0.  1.
<mgrwt>
<rscale>  0 0.90200080E+02</rscale>
<asrwt>0</asrwt>
<pdfrwt beam="2">  1        1 0.50900662E-02 0.90200080E+02</pdfrwt>
<pdfrwt beam="1">  1       -1 0.94580958E-02 0.90200080E+02</pdfrwt>
<totfact> 0.90790228E+04</totfact>
</mgrwt>
</event>
<event>
 7    1  0.3301067E-009  0.9116208E+02  0.7818608E-02  0.1300062E+00
          1   -1    0    0  501    0  0.00000000000E+00  0.00000000000E+00  0.51637636594E+03  0.51637636596E+03  0.50400000000E-02 0. -1.
         -1   -1    0    0    0  501 -0.00000000000E+00 -0.00000000000E+00 -0.40234806589E+01  0.40234838155E+01  0.50400000000E-02 0.  1.
         23    2    1    2    0    0  0.00000000000E+00  0.00000000000E+00  0.51235288528E+03  0.52039984978E+03  0.91162078713E+02 0.  0.
    9000005    2    3    3    0    0 -0.41452845861E+02 -0.16820339302E+01  0.35851013250E+03  0.36106134141E+03  0.10705581884E+02 0.  0.
         22    1    3    3    0    0  0.41452845861E+02  0.16820339302E+01  0.15384275278E+03  0.15933850837E+03  0.00000000000E+00 0.  1.
         22    1    4    4    0    0 -0.11022774627E+01  0.14887017616E+01  0.75013851399E+01  0.77267087144E+01  0.00000000000E+00 0.  1.
         22    1    4    4    0    0 -0.40350568398E+02 -0.31707356918E+01  0.35100874736E+03  0.35333463269E+03  0.00000000000E+00 0.  1.
<mgrwt>
<rscale>  0 0.91162079E+02</rscale>
<asrwt>0</asrwt>
<pdfrwt beam="1">  1        1 0.79442513E-01 0.91162079E+02</pdfrwt>
<pdfrwt beam="2">  1       -1 0.61899731E-03 0.91162079E+02</pdfrwt>
<totfact> 0.13983626E+05</totfact>
</mgrwt>
</event>
<event>
 7    1  0.3301067E-009  0.9071119E+02  0.7818608E-02  0.1301139E+00
         -1   -1    0    0    0  501 -0.00000000000E+00  0.00000000000E+00  0.36269340380E+02  0.36269340730E+02  0.50400000000E-02 0.  1.
          1   -1    0    0  501    0  0.00000000000E+00 -0.00000000000E+00 -0.56718149862E+02  0.56718150086E+02  0.50400000000E-02 0. -1.
         23    2    1    2    0    0 -0.38857805862E-15  0.00000000000E+00 -0.20448809482E+02  0.92987490816E+02  0.90711188058E+02 0.  0.
    9000005    2    3    3    0    0  0.29761829525E+00  0.35278341525E+02 -0.37681466487E+02  0.53724092786E+02  0.14890778073E+02 0.  0.
         22    1    3    3    0    0 -0.29761829525E+00 -0.35278341525E+02  0.17232657005E+02  0.39263398030E+02  0.00000000000E+00 0.  1.
         22    1    4    4    0    0 -0.29744350232E+01  0.32895401508E+02 -0.28257917807E+02  0.43467972381E+02  0.00000000000E+00 0. -1.
         22    1    4    4    0    0  0.32720533185E+01  0.23829400171E+01 -0.94235486795E+01  0.10256120405E+02  0.00000000000E+00 0. -1.
<mgrwt>
<rscale>  0 0.90711188E+02</rscale>
<asrwt>0</asrwt>
<pdfrwt beam="2">  1        1 0.87258693E-02 0.90711188E+02</pdfrwt>
<pdfrwt beam="1">  1       -1 0.55798985E-02 0.90711188E+02</pdfrwt>
<totfact> 0.96925206E+04</totfact>
</mgrwt>
</event>
<event>
 7    1  0.3301067E-009  0.9033682E+02  0.7818608E-02  0.1302038E+00
         -1   -1    0    0    0  501 -0.00000000000E+00  0.00000000000E+00  0.18016393444E+02  0.18016394149E+02  0.50400000000E-02 0.  1.
          1   -1    0    0  501    0  0.00000000000E+00 -0.00000000000E+00 -0.11324048724E+03  0.11324048735E+03  0.50400000000E-02 0. -1.
         23    2    1    2    0    0  0.00000000000E+00  0.00000000000E+00 -0.95224093795E+02  0.13125688150E+03  0.90336819193E+02 0.  0.
    9000005    2    3    3    0    0  0.23375856222E+02  0.29697558080E+02 -0.13310890895E+02  0.41045194788E+02  0.88967740660E+01 0.  0.
         22    1    3    3    0    0 -0.23375856222E+02 -0.29697558080E+02 -0.81913202899E+02  0.90211686711E+02  0.00000000000E+00 0. -1.
         22    1    4    4    0    0  0.10840685555E+02  0.98026684083E+01 -0.89249177173E+01  0.17125038029E+02  0.00000000000E+00 0. -1.
         22    1    4    4    0    0  0.12535170666E+02  0.19894889671E+02 -0.43859731782E+01  0.23920156760E+02  0.00000000000E+00 0. -1.
<mgrwt>
<rscale>  0 0.90336819E+02</rscale>
<asrwt>0</asrwt>
<pdfrwt beam="2">  1        1 0.17421613E-01 0.90336819E+02</pdfrwt>
<pdfrwt beam="1">  1       -1 0.27717530E-02 0.90336819E+02</pdfrwt>
<totfact> 0.10937915E+05</totfact>
</mgrwt>
</event>
<event>
 7    1  0.3301067E-009  0.9146957E+02  0.7818608E-02  0.1299331E+00
         -1   -1    0    0    0  501 -0.00000000000E+00  0.00000000000E+00  0.64458794781E+02  0.64458794978E+02  0.50400000000E-02 0.  1.
          1   -1    0    0  501    0  0.00000000000E+00 -0.00000000000E+00 -0.32449733966E+02  0.32449734357E+02  0.50400000000E-02 0. -1.
         23    2    1    2    0    0  0.00000000000E+00  0.00000000000E+00  0.32009060815E+02  0.96908529335E+02  0.91469574634E+02 0.  0.
    9000005    2    3    3    0    0 -0.21597804366E+02 -0.39189926967E+02  0.25518264402E+02  0.51692979276E+02  0.43205045183E+01 0.  0.
         22    1    3    3    0    0  0.21597804366E+02  0.39189926967E+02  0.64907964130E+01  0.45215550059E+02  0.00000000000E+00 0. -1.
         22    1    4    4    0    0 -0.20839923871E+02 -0.35337008649E+02  0.23089440160E+02  0.47075777786E+02  0.00000000000E+00 0. -1.
         22    1    4    4    0    0 -0.75788049437E+00 -0.38529183175E+01  0.24288242420E+01  0.46172014904E+01  0.00000000000E+00 0. -1.
<mgrwt>
<rscale>  0 0.91469575E+02</rscale>
<asrwt>0</asrwt>
<pdfrwt beam="2">  1        1 0.49922668E-02 0.91469575E+02</pdfrwt>
<pdfrwt beam="1">  1       -1 0.99167377E-02 0.91469575E+02</pdfrwt>
<totfact> 0.86975940E+04</totfact>
</mgrwt>
</event>
<event>
 7    1  0.3301067E-009  0.8899043E+02  0.7818608E-02  0.1305315E+00
         -1   -1    0    0    0  501 -0.00000000000E+00  0.00000000000E+00  0.83246461995E+01  0.83246477251E+01  0.50400000000E-02 0.  1.
          1   -1    0    0  501    0  0.00000000000E+00 -0.00000000000E+00 -0.23782679180E+03  0.23782679185E+03  0.50400000000E-02 0. -1.
         23    2    1    2    0    0  0.00000000000E+00  0.00000000000E+00 -0.22950214560E+03  0.24615143958E+03  0.88990428537E+02 0.  0.
    9000005    2    3    3    0    0 -0.42328629804E+02  0.91478812134E+01 -0.94301159948E+02  0.10418417873E+03  0.92864254739E+01 0.  0.
         22    1    3    3    0    0  0.42328629804E+02 -0.91478812134E+01 -0.13520098565E+03  0.14196726085E+03  0.00000000000E+00 0. -1.
         22    1    4    4    0    0 -0.83314795098E+01 -0.85773573904E+00 -0.12620386369E+02  0.15146729466E+02  0.00000000000E+00 0. -1.
         22    1    4    4    0    0 -0.33997150294E+02  0.10005616952E+02 -0.81680773579E+02  0.89037449262E+02  0.00000000000E+00 0. -1.
<mgrwt>
<rscale>  0 0.88990429E+02</rscale>
<asrwt>0</asrwt>
<pdfrwt beam="2">  1        1 0.36588732E-01 0.88990429E+02</pdfrwt>
<pdfrwt beam="1">  1       -1 0.12807151E-02 0.88990429E+02</pdfrwt>
<totfact> 0.13066742E+05</totfact>
</mgrwt>
</event>
<event>
 7    1  0.3301067E-009  0.9037053E+02  0.7818608E-02  0.1301957E+00
          1   -1    0    0  501    0  0.00000000000E+00  0.00000000000E+00  0.19184246284E+03  0.19184246291E+03  0.50400000000E-02 0. -1.
         -1   -1    0    0    0  501 -0.00000000000E+00 -0.00000000000E+00 -0.10642628539E+02  0.10642629733E+02  0.50400000000E-02 0.  1.
         23    2    1    2    0    0  0.00000000000E+00  0.00000000000E+00  0.18119983430E+03  0.20248509264E+03  0.90370530541E+02 0.  0.
    9000005    2    3    3    0    0  0.40222332273E+02 -0.17957753195E+02  0.68355582175E+02  0.81348219016E+02  0.21749044277E+01 0.  0.
         22    1    3    3    0    0 -0.40222332273E+02  0.17957753195E+02  0.11284425213E+03  0.12113687363E+03  0.00000000000E+00 0. -1.
         22    1    4    4    0    0  0.18046881539E+02 -0.91944078127E+01  0.30822879660E+02  0.36881932960E+02  0.00000000000E+00 0. -1.
         22    1    4    4    0    0  0.22175450734E+02 -0.87633453825E+01  0.37532702514E+02  0.44466286056E+02  0.00000000000E+00 0. -1.
<mgrwt>
<rscale>  0 0.90370531E+02</rscale>
<asrwt>0</asrwt>
<pdfrwt beam="1">  1        1 0.29514224E-01 0.90370531E+02</pdfrwt>
<pdfrwt beam="2">  1       -1 0.16373276E-02 0.90370531E+02</pdfrwt>
<totfact> 0.12028667E+05</totfact>
</mgrwt>
</event>
<event>
 7    1  0.3301067E-009  0.9122579E+02  0.7818608E-02  0.1299910E+00
          1   -1    0    0  501    0  0.00000000000E+00  0.00000000000E+00  0.53836374411E+03  0.53836374414E+03  0.50400000000E-02 0. -1.
         -1   -1    0    0    0  501 -0.00000000000E+00 -0.00000000000E+00 -0.38645527746E+01  0.38645560611E+01  0.50400000000E-02 0.  1.
         23    2    1    2    0    0  0.00000000000E+00 -0.88817841970E-15  0.53449919134E+03  0.54222830020E+03  0.91225785795E+02 0.  0.
    9000005    2    3    3    0    0 -0.31337090892E+02  0.70448180142E+01  0.45621859296E+03  0.45761450222E+03  0.15620030389E+02 0.  0.
         22    1    3    3    0    0  0.31337090892E+02 -0.70448180142E+01  0.78280598373E+02  0.84613797977E+02  0.00000000000E+00 0.  1.
         22    1    4    4    0    0 -0.19211282409E+02  0.10731671305E+02  0.23315632748E+03  0.23419247465E+03  0.00000000000E+00 0. -1.
         22    1    4    4    0    0 -0.12125808483E+02 -0.36868532906E+01  0.22306226548E+03  0.22342202757E+03  0.00000000000E+00 0. -1.
<mgrwt>
<rscale>  0 0.91225786E+02</rscale>
<asrwt>0</asrwt>
<pdfrwt beam="1">  1        1 0.82825151E-01 0.91225786E+02</pdfrwt>
<pdfrwt beam="2">  1       -1 0.59454713E-03 0.91225786E+02</pdfrwt>
<totfact> 0.14017957E+05</totfact>
</mgrwt>
</event>
<event>
 7    1  0.3301067E-009  0.9230736E+02  0.7818608E-02  0.1297358E+00
          1   -1    0    0  501    0  0.00000000000E+00  0.00000000000E+00  0.10434845857E+02  0.10434847075E+02  0.50400000000E-02 0. -1.
         -1   -1    0    0    0  501 -0.00000000000E+00 -0.00000000000E+00 -0.20413928790E+03  0.20413928796E+03  0.50400000000E-02 0.  1.
         23    2    1    2    0    0  0.00000000000E+00  0.00000000000E+00 -0.19370444204E+03  0.21457413503E+03  0.92307359185E+02 0.  0.
    9000005    2    3    3    0    0  0.21427877067E+01 -0.41601878499E+02 -0.51192723130E+02  0.66098891776E+02  0.36139671849E+01 0.  0.
         22    1    3    3    0    0 -0.21427877067E+01  0.41601878499E+02 -0.14251171891E+03  0.14847524326E+03  0.00000000000E+00 0.  1.
         22    1    4    4    0    0  0.23861382642E+01 -0.31207472606E+02 -0.36209164708E+02  0.47861295544E+02  0.00000000000E+00 0.  1.
         22    1    4    4    0    0 -0.24335055749E+00 -0.10394405892E+02 -0.14983558422E+02  0.18237596233E+02  0.00000000000E+00 0.  1.
<mgrwt>
<rscale>  0 0.92307359E+02</rscale>
<asrwt>0</asrwt>
<pdfrwt beam="1">  1        1 0.16053612E-02 0.92307359E+02</pdfrwt>
<pdfrwt beam="2">  1       -1 0.31406041E-01 0.92307359E+02</pdfrwt>
<totfact> 0.66832165E+04</totfact>
</mgrwt>
</event>
<event>
 7    1  0.3301067E-009  0.1152222E+03  0.7818608E-02  0.1251194E+00
         -1   -1    0    0    0  501 -0.00000000000E+00  0.00000000000E+00  0.14039764668E+02  0.14039765573E+02  0.50400000000E-02 0.  1.
          1   -1    0    0  501    0  0.00000000000E+00 -0.00000000000E+00 -0.23640292119E+03  0.23640292124E+03  0.50400000000E-02 0. -1.
         23    2    1    2    0    0  0.00000000000E+00  0.35527136788E-14 -0.22236315652E+03  0.25044268682E+03  0.11522224612E+03 0.  0.
    9000005    2    3    3    0    0  0.24853943070E+02  0.20225869531E+02 -0.21484769222E+03  0.21752936902E+03  0.11519168919E+02 0.  0.
         22    1    3    3    0    0 -0.24853943070E+02 -0.20225869531E+02 -0.75154643053E+01  0.32913317793E+02  0.00000000000E+00 0.  1.
         22    1    4    4    0    0  0.15065372866E+02  0.11113109069E+02 -0.15921156618E+03  0.16030841980E+03  0.00000000000E+00 0.  1.
         22    1    4    4    0    0  0.97885702039E+01  0.91127604613E+01 -0.55636126036E+02  0.57220949225E+02  0.00000000000E+00 0.  1.
<mgrwt>
<rscale>  0 0.11522225E+03</rscale>
<asrwt>0</asrwt>
<pdfrwt beam="2">  1        1 0.36369677E-01 0.11522225E+03</pdfrwt>
<pdfrwt beam="1">  1       -1 0.21599640E-02 0.11522225E+03</pdfrwt>
<totfact> 0.64879325E+04</totfact>
</mgrwt>
</event>
<event>
 7    1  0.3301067E-009  0.9107501E+02  0.7818608E-02  0.1300269E+00
         -1   -1    0    0    0  501 -0.00000000000E+00  0.00000000000E+00  0.33856097301E+02  0.33856097676E+02  0.50400000000E-02 0.  1.
          1   -1    0    0  501    0  0.00000000000E+00 -0.00000000000E+00 -0.61249365561E+02  0.61249365769E+02  0.50400000000E-02 0. -1.
         23    2    1    2    0    0  0.00000000000E+00  0.17763568394E-14 -0.27393268261E+02  0.95105463444E+02  0.91075013209E+02 0.  0.
    9000005    2    3    3    0    0 -0.61275229841E+01  0.11553380171E+02 -0.58881075764E+02  0.61009874981E+02  0.91758722060E+01 0.  0.
         22    1    3    3    0    0  0.61275229841E+01 -0.11553380171E+02  0.31487807504E+02  0.34095588464E+02  0.00000000000E+00 0.  1.
         22    1    4    4    0    0 -0.22477061024E+01  0.94534900019E+00 -0.24396354152E+01  0.34493025982E+01  0.00000000000E+00 0. -1.
         22    1    4    4    0    0 -0.38798168818E+01  0.10608031171E+02 -0.56441440349E+02  0.57560572383E+02  0.00000000000E+00 0. -1.
<mgrwt>
<rscale>  0 0.91075013E+02</rscale>
<asrwt>0</asrwt>
<pdfrwt beam="2">  1        1 0.94229794E-02 0.91075013E+02</pdfrwt>
<pdfrwt beam="1">  1       -1 0.52086304E-02 0.91075013E+02</pdfrwt>
<totfact> 0.96972772E+04</totfact>
</mgrwt>
</event>
<event>
 7    1  0.3323235E-009  0.9248775E+02  0.7818608E-02  0.1296937E+00
          1   -1    0    0  501    0  0.00000000000E+00  0.00000000000E+00  0.64249268419E+03  0.64249268421E+03  0.50400000000E-02 0. -1.
         -1   -1    0    0    0  501 -0.00000000000E+00 -0.00000000000E+00 -0.33284343608E+01  0.33284381767E+01  0.50400000000E-02 0.  1.
         23    2    1    2    0    0  0.00000000000E+00  0.00000000000E+00  0.63916424983E+03  0.64582112239E+03  0.92487749788E+02 0.  0.
    9000005    2    3    3    0    0  0.12959804481E+02 -0.20044443219E+02  0.59483783550E+03  0.59547663666E+03  0.13807172945E+02 0.  0.
         22    1    3    3    0    0 -0.12959804481E+02  0.20044443219E+02  0.44326414327E+02  0.50344485728E+02  0.00000000000E+00 0.  1.
         22    1    4    4    0    0  0.18776655081E+01 -0.15466432638E+02  0.33085726904E+03  0.33122389504E+03  0.00000000000E+00 0. -1.
         22    1    4    4    0    0  0.11082138973E+02 -0.45780105807E+01  0.26398056646E+03  0.26425274162E+03  0.00000000000E+00 0. -1.
<mgrwt>
<rscale>  0 0.92487750E+02</rscale>
<asrwt>0</asrwt>
<pdfrwt beam="1">  1        1 0.98844880E-01 0.92487750E+02</pdfrwt>
<pdfrwt beam="2">  1       -1 0.51206789E-03 0.92487750E+02</pdfrwt>
<totfact> 0.13676480E+05</totfact>
</mgrwt>
</event>
<event>
 7    1  0.3301067E-009  0.9115755E+02  0.7818608E-02  0.1300072E+00
          1   -1    0    0  501    0  0.00000000000E+00  0.00000000000E+00  0.39104843390E+03  0.39104843393E+03  0.50400000000E-02 0. -1.
         -1   -1    0    0    0  501 -0.00000000000E+00 -0.00000000000E+00 -0.53124474215E+01  0.53124498123E+01  0.50400000000E-02 0.  1.
         23    2    1    2    0    0 -0.17763568394E-14  0.00000000000E+00  0.38573598648E+03  0.39636088374E+03  0.91157549871E+02 0.  0.
    9000005    2    3    3    0    0  0.94850624599E+01 -0.57405833706E+01  0.38479062453E+03  0.38523369108E+03  0.14773331212E+02 0.  0.
         22    1    3    3    0    0 -0.94850624599E+01  0.57405833706E+01  0.94536195225E+00  0.11127192661E+02  0.00000000000E+00 0.  1.
         22    1    4    4    0    0  0.13361525979E+02 -0.41112988989E+01  0.32129086976E+03  0.32159486337E+03  0.00000000000E+00 0.  1.
         22    1    4    4    0    0 -0.38764635188E+01 -0.16292844717E+01  0.63499754766E+02  0.63638827713E+02  0.00000000000E+00 0.  1.
<mgrwt>
<rscale>  0 0.91157550E+02</rscale>
<asrwt>0</asrwt>
<pdfrwt beam="1">  1        1 0.60161303E-01 0.91157550E+02</pdfrwt>
<pdfrwt beam="2">  1       -1 0.81729972E-03 0.91157550E+02</pdfrwt>
<totfact> 0.13446306E+05</totfact>
</mgrwt>
</event>
<event>
 7    1  0.3301067E-009  0.9019204E+02  0.7818608E-02  0.1302387E+00
         -1   -1    0    0    0  501 -0.00000000000E+00  0.00000000000E+00  0.12865891761E+03  0.12865891771E+03  0.50400000000E-02 0.  1.
          1   -1    0    0  501    0  0.00000000000E+00 -0.00000000000E+00 -0.15806528698E+02  0.15806529501E+02  0.50400000000E-02 0. -1.
         23    2    1    2    0    0  0.00000000000E+00  0.00000000000E+00  0.11285238891E+03  0.14446544721E+03  0.90192038198E+02 0.  0.
    9000005    2    3    3    0    0 -0.31047433078E+02 -0.11192087106E+02  0.10457648761E+03  0.11044050846E+03  0.13101840851E+02 0.  0.
         22    1    3    3    0    0  0.31047433078E+02  0.11192087106E+02  0.82759013018E+01  0.34024938749E+02  0.00000000000E+00 0. -1.
         22    1    4    4    0    0 -0.85922847388E+01 -0.93145075439E+01  0.30977593749E+02  0.33469369911E+02  0.00000000000E+00 0.  1.
         22    1    4    4    0    0 -0.22455148339E+02 -0.18775795625E+01  0.73598893861E+02  0.76971138549E+02  0.00000000000E+00 0.  1.
<mgrwt>
<rscale>  0 0.90192038E+02</rscale>
<asrwt>0</asrwt>
<pdfrwt beam="2">  1        1 0.24317737E-02 0.90192038E+02</pdfrwt>
<pdfrwt beam="1">  1       -1 0.19793680E-01 0.90192038E+02</pdfrwt>
<totfact> 0.79600744E+04</totfact>
</mgrwt>
</event>
<event>
 7    1  0.3301067E-009  0.9132994E+02  0.7818608E-02  0.1299663E+00
          1   -1    0    0  501    0  0.00000000000E+00  0.00000000000E+00  0.31555732898E+03  0.31555732902E+03  0.50400000000E-02 0. -1.
         -1   -1    0    0    0  501 -0.00000000000E+00 -0.00000000000E+00 -0.66082742306E+01  0.66082761526E+01  0.50400000000E-02 0.  1.
         23    2    1    2    0    0  0.00000000000E+00 -0.55511151231E-16  0.30894905475E+03  0.32216560517E+03  0.91329944300E+02 0.  0.
    9000005    2    3    3    0    0  0.44344272123E+02  0.25641445184E+00  0.14226501669E+03  0.14968358071E+03  0.14119459701E+02 0.  0.
         22    1    3    3    0    0 -0.44344272123E+02 -0.25641445184E+00  0.16668403806E+03  0.17248202447E+03  0.00000000000E+00 0. -1.
         22    1    4    4    0    0  0.31899281395E+02  0.24523430313E+01  0.80216561016E+02  0.86361303841E+02  0.00000000000E+00 0.  1.
         22    1    4    4    0    0  0.12444990729E+02 -0.21959285794E+01  0.62048455670E+02  0.63322276866E+02  0.00000000000E+00 0.  1.
<mgrwt>
<rscale>  0 0.91329944E+02</rscale>
<asrwt>0</asrwt>
<pdfrwt beam="1">  1        1 0.48547284E-01 0.91329944E+02</pdfrwt>
<pdfrwt beam="2">  1       -1 0.10166577E-02 0.91329944E+02</pdfrwt>
<totfact> 0.12877577E+05</totfact>
</mgrwt>
</event>
<event>
 7    1  0.3301067E-009  0.8959171E+02  0.7818608E-02  0.1303843E+00
         -1   -1    0    0    0  501 -0.00000000000E+00  0.00000000000E+00  0.73557573101E+01  0.73557590367E+01  0.50400000000E-02 0.  1.
          1   -1    0    0  501    0  0.00000000000E+00 -0.00000000000E+00 -0.27280243331E+03  0.27280243336E+03  0.50400000000E-02 0. -1.
         23    2    1    2    0    0  0.00000000000E+00  0.00000000000E+00 -0.26544667600E+03  0.28015819239E+03  0.89591712595E+02 0.  0.
    9000005    2    3    3    0    0  0.36442604909E+02 -0.23536029489E+02 -0.11279946268E+03  0.12146610100E+03  0.12177305713E+02 0.  0.
         22    1    3    3    0    0 -0.36442604909E+02  0.23536029489E+02 -0.15264721332E+03  0.15869209139E+03  0.00000000000E+00 0.  1.
         22    1    4    4    0    0  0.44656693006E+01 -0.35643023618E+01 -0.29269282163E+02  0.29821759371E+02  0.00000000000E+00 0.  1.
         22    1    4    4    0    0  0.31976935609E+02 -0.19971727127E+02 -0.83530180521E+02  0.91644341633E+02  0.00000000000E+00 0.  1.
<mgrwt>
<rscale>  0 0.89591713E+02</rscale>
<asrwt>0</asrwt>
<pdfrwt beam="2">  1        1 0.41969597E-01 0.89591713E+02</pdfrwt>
<pdfrwt beam="1">  1       -1 0.11316553E-02 0.89591713E+02</pdfrwt>
<totfact> 0.13181225E+05</totfact>
</mgrwt>
</event>
<event>
 7    1  0.3301067E-009  0.9182020E+02  0.7818608E-02  0.1298503E+00
         -1   -1    0    0    0  501 -0.00000000000E+00  0.00000000000E+00  0.51712545694E+03  0.51712545696E+03  0.50400000000E-02 0.  1.
          1   -1    0    0  501    0  0.00000000000E+00 -0.00000000000E+00 -0.40758708108E+01  0.40758739269E+01  0.50400000000E-02 0. -1.
         23    2    1    2    0    0  0.71054273576E-14  0.00000000000E+00  0.51304958613E+03  0.52120133089E+03  0.91820202002E+02 0.  0.
    9000005    2    3    3    0    0  0.41364317575E+02 -0.10792041579E+02  0.33784781412E+03  0.34085961125E+03  0.14719176007E+02 0.  0.
         22    1    3    3    0    0 -0.41364317575E+02  0.10792041579E+02  0.17520177200E+03  0.18034171964E+03  0.00000000000E+00 0. -1.
         22    1    4    4    0    0  0.27671372666E+01 -0.42888501604E+01  0.21397198040E+02  0.21997530959E+02  0.00000000000E+00 0. -1.
         22    1    4    4    0    0  0.38597180309E+02 -0.65031914187E+01  0.31645061608E+03  0.31886208029E+03  0.00000000000E+00 0. -1.
<mgrwt>
<rscale>  0 0.91820202E+02</rscale>
<asrwt>0</asrwt>
<pdfrwt beam="2">  1        1 0.62705761E-03 0.91820202E+02</pdfrwt>
<pdfrwt beam="1">  1       -1 0.79557723E-01 0.91820202E+02</pdfrwt>
<totfact> 0.45217969E+04</totfact>
</mgrwt>
</event>
<event>
 7    1  0.3301067E-009  0.9036786E+02  0.7818608E-02  0.1301963E+00
          1   -1    0    0  501    0  0.00000000000E+00  0.00000000000E+00  0.23026579004E+03  0.23026579009E+03  0.50400000000E-02 0. -1.
         -1   -1    0    0    0  501 -0.00000000000E+00 -0.00000000000E+00 -0.88662206568E+01  0.88662220893E+01  0.50400000000E-02 0.  1.
         23    2    1    2    0    0  0.00000000000E+00  0.88817841970E-15  0.22139956938E+03  0.23913201218E+03  0.90367858933E+02 0.  0.
    9000005    2    3    3    0    0  0.43422398486E+02  0.42197083047E+01  0.12810829355E+03  0.13614379550E+03  0.14835347974E+02 0.  0.
         22    1    3    3    0    0 -0.43422398486E+02 -0.42197083047E+01  0.93291275835E+02  0.10298821668E+03  0.00000000000E+00 0. -1.
         22    1    4    4    0    0  0.12764182594E+02 -0.49010547546E+01  0.30401803647E+02  0.33334882030E+02  0.00000000000E+00 0. -1.
         22    1    4    4    0    0  0.30658215892E+02  0.91207630593E+01  0.97706489898E+02  0.10280891347E+03  0.00000000000E+00 0. -1.
<mgrwt>
<rscale>  0 0.90367859E+02</rscale>
<asrwt>0</asrwt>
<pdfrwt beam="1">  1        1 0.35425498E-01 0.90367859E+02</pdfrwt>
<pdfrwt beam="2">  1       -1 0.13640344E-02 0.90367859E+02</pdfrwt>
<totfact> 0.12463587E+05</totfact>
</mgrwt>
</event>
<event>
 7    1  0.3301067E-009  0.9522034E+02  0.7818608E-02  0.1290681E+00
         -1   -1    0    0    0  501 -0.00000000000E+00  0.00000000000E+00  0.55533511281E+01  0.55533534152E+01  0.50400000000E-02 0.  1.
          1   -1    0    0  501    0  0.00000000000E+00 -0.00000000000E+00 -0.40817296337E+03  0.40817296340E+03  0.50400000000E-02 0. -1.
         23    2    1    2    0    0  0.00000000000E+00  0.19428902931E-15 -0.40261961224E+03  0.41372631681E+03  0.95220339553E+02 0.  0.
    9000005    2    3    3    0    0  0.43254268131E+02 -0.21504023389E+00 -0.27859044476E+03  0.28237102632E+03  0.15804513351E+02 0.  0.
         22    1    3    3    0    0 -0.43254268131E+02  0.21504023389E+00 -0.12402916748E+03  0.13135529049E+03  0.00000000000E+00 0.  1.
         22    1    4    4    0    0  0.39900782371E+02  0.38619303643E+01 -0.22712410332E+03  0.23063465752E+03  0.00000000000E+00 0. -1.
         22    1    4    4    0    0  0.33534857607E+01 -0.40769705981E+01 -0.51466341439E+02  0.51736368805E+02  0.00000000000E+00 0. -1.
<mgrwt>
<rscale>  0 0.95220340E+02</rscale>
<asrwt>0</asrwt>
<pdfrwt beam="2">  1        1 0.62795817E-01 0.95220340E+02</pdfrwt>
<pdfrwt beam="1">  1       -1 0.85436221E-03 0.95220340E+02</pdfrwt>
<totfact> 0.12057296E+05</totfact>
</mgrwt>
</event>
<event>
 6    1  0.3301067E-009  0.6721950E+03  0.7818608E-02  0.9766001E-01
         -1   -1    0    0    0  501 -0.00000000000E+00  0.00000000000E+00  0.20001268650E+03  0.20001268656E+03  0.50400000000E-02 0.  1.
          1   -1    0    0  501    0  0.00000000000E+00 -0.00000000000E+00 -0.56477183326E+03  0.56477183328E+03  0.50400000000E-02 0. -1.
    9000005    2    1    2    0    0  0.42706948014E+02 -0.99934153989E+02 -0.54422617802E+03  0.55497714663E+03  0.26042086004E+01 0.  0.
         22    1    1    2    0    0 -0.42706948014E+02  0.99934153989E+02  0.17946703126E+03  0.20980737321E+03  0.00000000000E+00 0.  1.
         22    1    3    3    0    0  0.20259104692E+02 -0.50711665157E+02 -0.27292462981E+03  0.27833425564E+03  0.00000000000E+00 0. -1.
         22    1    3    3    0    0  0.22447843322E+02 -0.49222488832E+02 -0.27130154821E+03  0.27664289099E+03  0.00000000000E+00 0. -1.
<mgrwt>
<rscale>  0 0.67219501E+03</rscale>
<asrwt>0</asrwt>
<pdfrwt beam="2">  1        1 0.86887974E-01 0.67219501E+03</pdfrwt>
<pdfrwt beam="1">  1       -1 0.30771183E-01 0.67219501E+03</pdfrwt>
<totfact> 0.36873545E+02</totfact>
</mgrwt>
</event>
<event>
 7    1  0.3301067E-009  0.9531870E+02  0.7818608E-02  0.1290460E+00
         -1   -1    0    0    0  501 -0.00000000000E+00  0.00000000000E+00  0.12135261558E+03  0.12135261568E+03  0.50400000000E-02 0.  1.
          1   -1    0    0  501    0  0.00000000000E+00 -0.00000000000E+00 -0.18717466824E+02  0.18717467502E+02  0.50400000000E-02 0. -1.
         23    2    1    2    0    0  0.17763568394E-14  0.00000000000E+00  0.10263514876E+03  0.14007008319E+03  0.95318699339E+02 0.  0.
    9000005    2    3    3    0    0 -0.14722956500E+02 -0.73663102090E+00  0.11769140222E+03  0.11899880317E+03  0.95990064834E+01 0.  0.
         22    1    3    3    0    0  0.14722956500E+02  0.73663102090E+00 -0.15056253462E+02  0.21071280020E+02  0.00000000000E+00 0. -1.
         22    1    4    4    0    0 -0.13556699554E+02 -0.38801042851E+01  0.88646920745E+02  0.89761438656E+02  0.00000000000E+00 0.  1.
         22    1    4    4    0    0 -0.11662569462E+01  0.31434732642E+01  0.29044481473E+02  0.29237364509E+02  0.00000000000E+00 0.  1.
<mgrwt>
<rscale>  0 0.95318699E+02</rscale>
<asrwt>0</asrwt>
<pdfrwt beam="2">  1        1 0.28796104E-02 0.95318699E+02</pdfrwt>
<pdfrwt beam="1">  1       -1 0.18669633E-01 0.95318699E+02</pdfrwt>
<totfact> 0.69834045E+04</totfact>
</mgrwt>
</event>
<event>
 7    1  0.3301067E-009  0.9190539E+02  0.7818608E-02  0.1298302E+00
         -1   -1    0    0    0  501 -0.00000000000E+00  0.00000000000E+00  0.10457082904E+02  0.10457084118E+02  0.50400000000E-02 0.  1.
          1   -1    0    0  501    0  0.00000000000E+00 -0.00000000000E+00 -0.20193489147E+03  0.20193489153E+03  0.50400000000E-02 0. -1.
         23    2    1    2    0    0 -0.35527136788E-14  0.00000000000E+00 -0.19147780856E+03  0.21239197565E+03  0.91905386935E+02 0.  0.
    9000005    2    3    3    0    0 -0.25332610900E+02  0.26842747593E+02 -0.15823316854E+03  0.16271823647E+03  0.87871828143E+01 0.  0.
         22    1    3    3    0    0  0.25332610900E+02 -0.26842747593E+02 -0.33244640026E+02  0.49673739177E+02  0.00000000000E+00 0.  1.
         22    1    4    4    0    0 -0.18554414592E+02  0.20076655968E+02 -0.98544947592E+02  0.10226653955E+03  0.00000000000E+00 0.  1.
         22    1    4    4    0    0 -0.67781963078E+01  0.67660916247E+01 -0.59688220944E+02  0.60451696920E+02  0.00000000000E+00 0.  1.
<mgrwt>
<rscale>  0 0.91905387E+02</rscale>
<asrwt>0</asrwt>
<pdfrwt beam="2">  1        1 0.31066904E-01 0.91905387E+02</pdfrwt>
<pdfrwt beam="1">  1       -1 0.16087822E-02 0.91905387E+02</pdfrwt>
<totfact> 0.11611967E+05</totfact>
</mgrwt>
</event>
<event>
 7    1  0.3301067E-009  0.8901497E+02  0.7818608E-02  0.1305255E+00
         -1   -1    0    0    0  501 -0.00000000000E+00  0.00000000000E+00  0.50131215989E+02  0.50131216242E+02  0.50400000000E-02 0.  1.
          1   -1    0    0  501    0  0.00000000000E+00 -0.00000000000E+00 -0.39514621312E+02  0.39514621633E+02  0.50400000000E-02 0. -1.
         23    2    1    2    0    0  0.00000000000E+00  0.00000000000E+00  0.10616594677E+02  0.89645837876E+02  0.89014965966E+02 0.  0.
    9000005    2    3    3    0    0 -0.29244467003E+01 -0.39474305342E+02  0.24030265524E+02  0.47852300859E+02  0.12067139910E+02 0.  0.
         22    1    3    3    0    0  0.29244467003E+01  0.39474305342E+02 -0.13413670847E+02  0.41793537016E+02  0.00000000000E+00 0. -1.
         22    1    4    4    0    0 -0.56108973990E+00 -0.12263213308E+02  0.13503611289E+01  0.12350088968E+02  0.00000000000E+00 0. -1.
         22    1    4    4    0    0 -0.23633569604E+01 -0.27211092034E+02  0.22679904395E+02  0.35502211891E+02  0.00000000000E+00 0. -1.
<mgrwt>
<rscale>  0 0.89014966E+02</rscale>
<asrwt>0</asrwt>
<pdfrwt beam="2">  1        1 0.60791726E-02 0.89014966E+02</pdfrwt>
<pdfrwt beam="1">  1       -1 0.77124948E-02 0.89014966E+02</pdfrwt>
<totfact> 0.96827342E+04</totfact>
</mgrwt>
</event>
<event>
 7    1  0.3301067E-009  0.9113948E+02  0.7818608E-02  0.1300116E+00
         -1   -1    0    0    0  501 -0.00000000000E+00  0.00000000000E+00  0.54155845782E+01  0.54155869234E+01  0.50400000000E-02 0.  1.
          1   -1    0    0  501    0  0.00000000000E+00 -0.00000000000E+00 -0.38344905355E+03  0.38344905358E+03  0.50400000000E-02 0. -1.
         23    2    1    2    0    0  0.00000000000E+00 -0.44408920985E-15 -0.37803346897E+03  0.38886464050E+03  0.91139480870E+02 0.  0.
    9000005    2    3    3    0    0  0.39371324560E+02 -0.33715941971E+01 -0.27959479137E+03  0.28279088271E+03  0.15361221885E+02 0.  0.
         22    1    3    3    0    0 -0.39371324560E+02  0.33715941971E+01 -0.98438677604E+02  0.10607375780E+03  0.00000000000E+00 0.  1.
         22    1    4    4    0    0  0.46248350598E+01  0.20750828319E+01 -0.14237692772E+02  0.15113138772E+02  0.00000000000E+00 0.  1.
         22    1    4    4    0    0  0.34746489500E+02 -0.54466770289E+01 -0.26535709859E+03  0.26767774393E+03  0.00000000000E+00 0.  1.
<mgrwt>
<rscale>  0 0.91139481E+02</rscale>
<asrwt>0</asrwt>
<pdfrwt beam="2">  1        1 0.58992141E-01 0.91139481E+02</pdfrwt>
<pdfrwt beam="1">  1       -1 0.83316734E-03 0.91139481E+02</pdfrwt>
<totfact> 0.13409006E+05</totfact>
</mgrwt>
</event>
<event>
 7    1  0.3301067E-009  0.9264947E+02  0.7818608E-02  0.1296560E+00
         -1   -1    0    0    0  501 -0.00000000000E+00  0.00000000000E+00  0.11498047717E+02  0.11498048822E+02  0.50400000000E-02 0.  1.
          1   -1    0    0  501    0  0.00000000000E+00 -0.00000000000E+00 -0.18663870456E+03  0.18663870463E+03  0.50400000000E-02 0. -1.
         23    2    1    2    0    0  0.00000000000E+00  0.00000000000E+00 -0.17514065685E+03  0.19813675345E+03  0.92649465128E+02 0.  0.
    9000005    2    3    3    0    0 -0.19292562172E+02 -0.18925878069E+02 -0.16756646341E+03  0.17006968695E+03  0.10713866915E+02 0.  0.
         22    1    3    3    0    0  0.19292562172E+02  0.18925878069E+02 -0.75741934383E+01  0.28067066503E+02  0.00000000000E+00 0.  1.
         22    1    4    4    0    0 -0.14774169669E+02 -0.18983218892E+02 -0.12751065603E+03  0.12975980152E+03  0.00000000000E+00 0.  1.
         22    1    4    4    0    0 -0.45183925031E+01  0.57340822843E-01 -0.40055807375E+02  0.40309885429E+02  0.00000000000E+00 0.  1.
<mgrwt>
<rscale>  0 0.92649465E+02</rscale>
<asrwt>0</asrwt>
<pdfrwt beam="2">  1        1 0.28713645E-01 0.92649465E+02</pdfrwt>
<pdfrwt beam="1">  1       -1 0.17689306E-02 0.92649465E+02</pdfrwt>
<totfact> 0.11190677E+05</totfact>
</mgrwt>
</event>
<event>
 7    1  0.3301067E-009  0.8781326E+02  0.7818608E-02  0.1308235E+00
         -1   -1    0    0    0  501 -0.00000000000E+00  0.00000000000E+00  0.26213476687E+02  0.26213477172E+02  0.50400000000E-02 0.  1.
          1   -1    0    0  501    0  0.00000000000E+00 -0.00000000000E+00 -0.73542018252E+02  0.73542018425E+02  0.50400000000E-02 0. -1.
         23    2    1    2    0    0  0.00000000000E+00 -0.22204460493E-15 -0.47328541565E+02  0.99755495597E+02  0.87813256716E+02 0.  0.
    9000005    2    3    3    0    0 -0.31932593418E+02 -0.18375917770E+01 -0.57613169917E+02  0.66157268764E+02  0.58685259170E+01 0.  0.
         22    1    3    3    0    0  0.31932593418E+02  0.18375917770E+01  0.10284628352E+02  0.33598226833E+02  0.00000000000E+00 0.  1.
         22    1    4    4    0    0 -0.22079256193E+02  0.13565764084E+01 -0.40748366179E+02  0.46365538925E+02  0.00000000000E+00 0. -1.
         22    1    4    4    0    0 -0.98533372257E+01 -0.31941681853E+01 -0.16864803738E+02  0.19791729838E+02  0.00000000000E+00 0. -1.
<mgrwt>
<rscale>  0 0.87813257E+02</rscale>
<asrwt>0</asrwt>
<pdfrwt beam="2">  1        1 0.11314157E-01 0.87813257E+02</pdfrwt>
<pdfrwt beam="1">  1       -1 0.40328426E-02 0.87813257E+02</pdfrwt>
<totfact> 0.11022377E+05</totfact>
</mgrwt>
</event>
<event>
 7    1  0.3301067E-009  0.9072165E+02  0.7818608E-02  0.1301113E+00
          1   -1    0    0  501    0  0.00000000000E+00  0.00000000000E+00  0.38744774479E+03  0.38744774482E+03  0.50400000000E-02 0. -1.
         -1   -1    0    0    0  501 -0.00000000000E+00 -0.00000000000E+00 -0.53106622433E+01  0.53106646348E+01  0.50400000000E-02 0.  1.
         23    2    1    2    0    0  0.17763568394E-14  0.00000000000E+00  0.38213708255E+03  0.39275840946E+03  0.90721653107E+02 0.  0.
    9000005    2    3    3    0    0  0.13984732746E+02 -0.15073333410E+01  0.37755909286E+03  0.37796642537E+03  0.10483572955E+02 0.  0.
         22    1    3    3    0    0 -0.13984732746E+02  0.15073333410E+01  0.45779896913E+01  0.14791984092E+02  0.00000000000E+00 0.  1.
         22    1    4    4    0    0  0.14125082013E+02  0.10001021297E+01  0.35188333347E+03  0.35216813955E+03  0.00000000000E+00 0.  1.
         22    1    4    4    0    0 -0.14034926710E+00 -0.25074354707E+01  0.25675759391E+02  0.25798285813E+02  0.00000000000E+00 0.  1.
<mgrwt>
<rscale>  0 0.90721653E+02</rscale>
<asrwt>0</asrwt>
<pdfrwt beam="1">  1        1 0.59607359E-01 0.90721653E+02</pdfrwt>
<pdfrwt beam="2">  1       -1 0.81702496E-03 0.90721653E+02</pdfrwt>
<totfact> 0.13597403E+05</totfact>
</mgrwt>
</event>
<event>
 7    1  0.3301067E-009  0.1009059E+03  0.7818608E-02  0.1278402E+00
         -1   -1    0    0    0  501 -0.00000000000E+00  0.00000000000E+00  0.20654590084E+02  0.20654590699E+02  0.50400000000E-02 0.  1.
          1   -1    0    0  501    0  0.00000000000E+00 -0.00000000000E+00 -0.12324129525E+03  0.12324129536E+03  0.50400000000E-02 0. -1.
         23    2    1    2    0    0  0.00000000000E+00  0.71054273576E-14 -0.10258670517E+03  0.14389588606E+03  0.10090586676E+03 0.  0.
    9000005    2    3    3    0    0 -0.33817913286E+02 -0.35002177545E+02 -0.35871701675E+02  0.61314439089E+02  0.10192044341E+02 0.  0.
         22    1    3    3    0    0  0.33817913286E+02  0.35002177545E+02 -0.66715003495E+02  0.82581446967E+02  0.00000000000E+00 0. -1.
         22    1    4    4    0    0  0.15548948602E+00 -0.29919309141E+01 -0.28659733039E+01  0.41460379344E+01  0.00000000000E+00 0.  1.
         22    1    4    4    0    0 -0.33973402772E+02 -0.32010246631E+02 -0.33005728371E+02  0.57168401155E+02  0.00000000000E+00 0.  1.
<mgrwt>
<rscale>  0 0.10090587E+03</rscale>
<asrwt>0</asrwt>
<pdfrwt beam="2">  1        1 0.18960199E-01 0.10090587E+03</pdfrwt>
<pdfrwt beam="1">  1       -1 0.31776294E-02 0.10090587E+03</pdfrwt>
<totfact> 0.82076545E+04</totfact>
</mgrwt>
</event>
<event>
 7    1  0.3301067E-009  0.9117786E+02  0.7818608E-02  0.1300024E+00
         -1   -1    0    0    0  501 -0.00000000000E+00  0.00000000000E+00  0.85857277832E+00  0.85858757111E+00  0.50400000000E-02 0.  1.
          1   -1    0    0  501    0  0.00000000000E+00 -0.00000000000E+00 -0.24206828899E+04  0.24206828899E+04  0.50400000000E-02 0. -1.
         23    2    1    2    0    0  0.00000000000E+00  0.00000000000E+00 -0.24198243171E+04  0.24215414775E+04  0.91177855891E+02 0.  0.
    9000005    2    3    3    0    0  0.72536939493E+01  0.17116335072E+02 -0.23148747320E+04  0.23149581747E+04  0.63828679319E+01 0.  0.
         22    1    3    3    0    0 -0.72536939493E+01 -0.17116335072E+02 -0.10494958514E+03  0.10658330274E+03  0.00000000000E+00 0.  1.
         22    1    4    4    0    0  0.42741577751E+01  0.13343036239E+02 -0.19715020712E+04  0.19715518562E+04  0.00000000000E+00 0.  1.
         22    1    4    4    0    0  0.29795361743E+01  0.37732988327E+01 -0.34337266078E+03  0.34340631851E+03  0.00000000000E+00 0.  1.
<mgrwt>
<rscale>  0 0.91177856E+02</rscale>
<asrwt>0</asrwt>
<pdfrwt beam="2">  1        1 0.37240729E+00 0.91177856E+02</pdfrwt>
<pdfrwt beam="1">  1       -1 0.13209120E-03 0.91177856E+02</pdfrwt>
<totfact> 0.56255302E+04</totfact>
</mgrwt>
</event>
<event>
 7    1  0.3301067E-009  0.9029580E+02  0.7818608E-02  0.1302137E+00
         -1   -1    0    0    0  501 -0.00000000000E+00  0.00000000000E+00  0.82542509412E+01  0.82542524799E+01  0.50400000000E-02 0.  1.
          1   -1    0    0  501    0  0.00000000000E+00 -0.00000000000E+00 -0.24694337445E+03  0.24694337450E+03  0.50400000000E-02 0. -1.
         23    2    1    2    0    0 -0.71054273576E-14  0.00000000000E+00 -0.23868912351E+03  0.25519762698E+03  0.90295797995E+02 0.  0.
    9000005    2    3    3    0    0  0.44650476108E+02  0.26184069879E+01 -0.13167446657E+03  0.13921203360E+03  0.64268251319E+01 0.  0.
         22    1    3    3    0    0 -0.44650476108E+02 -0.26184069879E+01 -0.10701465694E+03  0.11598559338E+03  0.00000000000E+00 0. -1.
         22    1    4    4    0    0  0.11544291687E+02  0.94610413508E+00 -0.26072699556E+02  0.28529834310E+02  0.00000000000E+00 0.  1.
         22    1    4    4    0    0  0.33106184421E+02  0.16723028529E+01 -0.10560176701E+03  0.11068219929E+03  0.00000000000E+00 0.  1.
<mgrwt>
<rscale>  0 0.90295798E+02</rscale>
<asrwt>0</asrwt>
<pdfrwt beam="2">  1        1 0.37991283E-01 0.90295798E+02</pdfrwt>
<pdfrwt beam="1">  1       -1 0.12698851E-02 0.90295798E+02</pdfrwt>
<totfact> 0.12661354E+05</totfact>
</mgrwt>
</event>
<event>
 7    1  0.3599684E-009  0.8593662E+02  0.7818608E-02  0.1313001E+00
          1   -1    0    0  501    0  0.00000000000E+00  0.00000000000E+00  0.52266656999E+03  0.52266657002E+03  0.50400000000E-02 0. -1.
         -1   -1    0    0    0  501 -0.00000000000E+00 -0.00000000000E+00 -0.35324140243E+01  0.35324176198E+01  0.50400000000E-02 0.  1.
         23    2    1    2    0    0 -0.17763568394E-14  0.00000000000E+00  0.51913415597E+03  0.52619898764E+03  0.85936620233E+02 0.  0.
    9000005    2    3    3    0    0  0.12396231356E+02 -0.68935037090E+01  0.50753935724E+03  0.50787888112E+03  0.11982144964E+02 0.  0.
         22    1    3    3    0    0 -0.12396231356E+02  0.68935037090E+01  0.11594798735E+02  0.18320106521E+02  0.00000000000E+00 0.  1.
         22    1    4    4    0    0  0.66689479011E+00 -0.16172213782E+01  0.87196534678E+01  0.88933970026E+01  0.00000000000E+00 0.  1.
         22    1    4    4    0    0  0.11729336566E+02 -0.52762823308E+01  0.49881970377E+03  0.49898548412E+03  0.00000000000E+00 0.  1.
<mgrwt>
<rscale>  0 0.85936620E+02</rscale>
<asrwt>0</asrwt>
<pdfrwt beam="1">  1        1 0.80410235E-01 0.85936620E+02</pdfrwt>
<pdfrwt beam="2">  1       -1 0.54344864E-03 0.85936620E+02</pdfrwt>
<totfact> 0.16363629E+05</totfact>
</mgrwt>
</event>
<event>
 7    1  0.3301067E-009  0.9095940E+02  0.7818608E-02  0.1300545E+00
          1   -1    0    0  501    0  0.00000000000E+00  0.00000000000E+00  0.38577152524E+01  0.38577185447E+01  0.50400000000E-02 0. -1.
         -1   -1    0    0    0  501 -0.00000000000E+00 -0.00000000000E+00 -0.53617286380E+03  0.53617286382E+03  0.50400000000E-02 0.  1.
         23    2    1    2    0    0  0.00000000000E+00  0.00000000000E+00 -0.53231514854E+03  0.54003058236E+03  0.90959400393E+02 0.  0.
    9000005    2    3    3    0    0 -0.18172024565E+01 -0.30784609694E+02 -0.46404159899E+03  0.46511548383E+03  0.68420240347E+01 0.  0.
         22    1    3    3    0    0  0.18172024565E+01  0.30784609694E+02 -0.68273549556E+02  0.74915098530E+02  0.00000000000E+00 0. -1.
         22    1    4    4    0    0 -0.34743450270E+01 -0.14303419977E+02 -0.25075589844E+03  0.25118753850E+03  0.00000000000E+00 0.  1.
         22    1    4    4    0    0  0.16571425704E+01 -0.16481189717E+02 -0.21328570055E+03  0.21392794533E+03  0.00000000000E+00 0.  1.
<mgrwt>
<rscale>  0 0.90959400E+02</rscale>
<asrwt>0</asrwt>
<pdfrwt beam="1">  1        1 0.59349533E-03 0.90959400E+02</pdfrwt>
<pdfrwt beam="2">  1       -1 0.82488074E-01 0.90959400E+02</pdfrwt>
<totfact> 0.45277726E+04</totfact>
</mgrwt>
</event>
<event>
 7    1  0.3301067E-009  0.9118590E+02  0.7818608E-02  0.1300005E+00
          1   -1    0    0  501    0  0.00000000000E+00  0.00000000000E+00  0.22179612168E+02  0.22179612740E+02  0.50400000000E-02 0. -1.
         -1   -1    0    0    0  501 -0.00000000000E+00 -0.00000000000E+00 -0.93721980484E+02  0.93721980619E+02  0.50400000000E-02 0.  1.
         23    2    1    2    0    0  0.00000000000E+00  0.35527136788E-14 -0.71542368316E+02  0.11590159336E+03  0.91185902853E+02 0.  0.
    9000005    2    3    3    0    0  0.30176490514E+02 -0.18981824430E+02 -0.70586162494E+02  0.80238663474E+02  0.13598034494E+02 0.  0.
         22    1    3    3    0    0 -0.30176490514E+02  0.18981824430E+02 -0.95620582198E+00  0.35662929885E+02  0.00000000000E+00 0. -1.
         22    1    4    4    0    0  0.14865805608E+00  0.16916984529E+01 -0.30317867607E+01  0.34750070267E+01  0.00000000000E+00 0. -1.
         22    1    4    4    0    0  0.30027832458E+02 -0.20673522883E+02 -0.67554375733E+02  0.76763656448E+02  0.00000000000E+00 0. -1.
<mgrwt>
<rscale>  0 0.91185903E+02</rscale>
<asrwt>0</asrwt>
<pdfrwt beam="1">  1        1 0.34122481E-02 0.91185903E+02</pdfrwt>
<pdfrwt beam="2">  1       -1 0.14418766E-01 0.91185903E+02</pdfrwt>
<totfact> 0.82321821E+04</totfact>
</mgrwt>
</event>
<event>
 6    1  0.3301067E-009  0.1525933E+03  0.7818608E-02  0.1197322E+00
          1   -1    0    0  501    0  0.00000000000E+00  0.00000000000E+00  0.92910076455E+03  0.92910076456E+03  0.50400000000E-02 0. -1.
         -1   -1    0    0    0  501 -0.00000000000E+00 -0.00000000000E+00 -0.62653907277E+01  0.62653927548E+01  0.50400000000E-02 0.  1.
    9000005    2    1    2    0    0  0.50445650286E+02 -0.49356377593E+02  0.63755117474E+03  0.64148201367E+03  0.68452763339E+01 0.  0.
         22    1    1    2    0    0 -0.50445650286E+02  0.49356377593E+02  0.28528419908E+03  0.29388414365E+03  0.00000000000E+00 0.  1.
         22    1    3    3    0    0  0.42520249921E+02 -0.44791719617E+02  0.55460690833E+03  0.55803502808E+03  0.00000000000E+00 0.  1.
         22    1    3    3    0    0  0.79254003659E+01 -0.45646579758E+01  0.82944266405E+02  0.83446985583E+02  0.00000000000E+00 0.  1.
<mgrwt>
<rscale>  0 0.15259332E+03</rscale>
<asrwt>0</asrwt>
<pdfrwt beam="1">  1        1 0.14293867E+00 0.15259332E+03</pdfrwt>
<pdfrwt beam="2">  1       -1 0.96390584E-03 0.15259332E+03</pdfrwt>
<totfact> 0.34314613E+04</totfact>
</mgrwt>
</event>
<event>
 7    1  0.3301067E-009  0.9135629E+02  0.7818608E-02  0.1299600E+00
         -1   -1    0    0    0  501 -0.00000000000E+00  0.00000000000E+00  0.17776775786E+01  0.17776847231E+01  0.50400000000E-02 0.  1.
          1   -1    0    0  501    0  0.00000000000E+00 -0.00000000000E+00 -0.11737160839E+04  0.11737160839E+04  0.50400000000E-02 0. -1.
         23    2    1    2    0    0  0.00000000000E+00  0.00000000000E+00 -0.11719384064E+04  0.11754937687E+04  0.91356290896E+02 0.  0.
    9000005    2    3    3    0    0 -0.85426016463E+01 -0.12075623141E+02 -0.11418826693E+04  0.11419953501E+04  0.62090639220E+01 0.  0.
         22    1    3    3    0    0  0.85426016463E+01  0.12075623141E+02 -0.30055737086E+02  0.33498418603E+02  0.00000000000E+00 0.  1.
         22    1    4    4    0    0  0.12524424726E+00 -0.30459933807E+01 -0.13243145520E+03  0.13246653950E+03  0.00000000000E+00 0.  1.
         22    1    4    4    0    0 -0.86678458935E+01 -0.90296297600E+01 -0.10094512141E+04  0.10095288106E+04  0.00000000000E+00 0.  1.
<mgrwt>
<rscale>  0 0.91356291E+02</rscale>
<asrwt>0</asrwt>
<pdfrwt beam="2">  1        1 0.18057109E+00 0.91356291E+02</pdfrwt>
<pdfrwt beam="1">  1       -1 0.27349035E-03 0.91356291E+02</pdfrwt>
<totfact> 0.12792791E+05</totfact>
</mgrwt>
</event>
<event>
 7    1  0.3301067E-009  0.1279075E+03  0.7818608E-02  0.1230594E+00
          1   -1    0    0  501    0  0.00000000000E+00  0.00000000000E+00  0.33844849046E+03  0.33844849050E+03  0.50400000000E-02 0. -1.
         -1   -1    0    0    0  501 -0.00000000000E+00 -0.00000000000E+00 -0.12084807522E+02  0.12084808573E+02  0.50400000000E-02 0.  1.
         23    2    1    2    0    0  0.00000000000E+00  0.00000000000E+00  0.32636368294E+03  0.35053329907E+03  0.12790754558E+03 0.  0.
    9000005    2    3    3    0    0 -0.58212844047E+02  0.23844431731E+02  0.14466914848E+03  0.15825694590E+03  0.12601835864E+02 0.  0.
         22    1    3    3    0    0  0.58212844047E+02 -0.23844431731E+02  0.18169453446E+03  0.19227635317E+03  0.00000000000E+00 0. -1.
         22    1    4    4    0    0 -0.21024355636E+02  0.12294728290E+02  0.68690672513E+02  0.72880672088E+02  0.00000000000E+00 0.  1.
         22    1    4    4    0    0 -0.37188488412E+02  0.11549703441E+02  0.75978475966E+02  0.85376273812E+02  0.00000000000E+00 0.  1.
<mgrwt>
<rscale>  0 0.12790755E+03</rscale>
<asrwt>0</asrwt>
<pdfrwt beam="1">  1        1 0.52068993E-01 0.12790755E+03</pdfrwt>
<pdfrwt beam="2">  1       -1 0.18592014E-02 0.12790755E+03</pdfrwt>
<totfact> 0.52392608E+04</totfact>
</mgrwt>
</event>
<event>
 6    1  0.3301067E-009  0.3547643E+03  0.7818608E-02  0.1060676E+00
         -1   -1    0    0    0  501 -0.00000000000E+00  0.00000000000E+00  0.27542445029E+03  0.27542445033E+03  0.50400000000E-02 0.  1.
          1   -1    0    0  501    0  0.00000000000E+00 -0.00000000000E+00 -0.11423979150E+03  0.11423979161E+03  0.50400000000E-02 0. -1.
    9000005    2    1    2    0    0  0.93922011930E+02  0.57512123415E+02  0.23327870050E+03  0.25803392812E+03  0.57937286404E+01 0.  0.
         22    1    1    2    0    0 -0.93922011930E+02 -0.57512123415E+02 -0.72094041712E+02  0.13163031381E+03  0.00000000000E+00 0. -1.
         22    1    3    3    0    0  0.34565239449E+02  0.18029375376E+02  0.80795879094E+02  0.89709465684E+02  0.00000000000E+00 0.  1.
         22    1    3    3    0    0  0.59356772481E+02  0.39482748039E+02  0.15248282141E+03  0.16832446244E+03  0.00000000000E+00 0.  1.
<mgrwt>
<rscale>  0 0.35476433E+03</rscale>
<asrwt>0</asrwt>
<pdfrwt beam="2">  1        1 0.17575353E-01 0.35476433E+03</pdfrwt>
<pdfrwt beam="1">  1       -1 0.42372992E-01 0.35476433E+03</pdfrwt>
<totfact> 0.16892637E+03</totfact>
</mgrwt>
</event>
<event>
 7    1  0.3648371E-009  0.8497444E+02  0.7818608E-02  0.1315499E+00
          1   -1    0    0  501    0  0.00000000000E+00  0.00000000000E+00  0.25229718568E+02  0.25229719072E+02  0.50400000000E-02 0. -1.
         -1   -1    0    0    0  501 -0.00000000000E+00 -0.00000000000E+00 -0.71549109544E+02  0.71549109722E+02  0.50400000000E-02 0.  1.
         23    2    1    2    0    0  0.00000000000E+00  0.22204460493E-15 -0.46319390976E+02  0.96778828793E+02  0.84974441582E+02 0.  0.
    9000005    2    3    3    0    0 -0.35582755849E+02  0.80002129274E+00 -0.47929616660E+02  0.61150674552E+02  0.13243273657E+02 0.  0.
         22    1    3    3    0    0  0.35582755849E+02 -0.80002129274E+00  0.16102256838E+01  0.35628154241E+02  0.00000000000E+00 0. -1.
         22    1    4    4    0    0 -0.14350710795E+02 -0.51146615651E+01 -0.13999073572E+02  0.20690015083E+02  0.00000000000E+00 0.  1.
         22    1    4    4    0    0 -0.21232045054E+02  0.59146828579E+01 -0.33930543088E+02  0.40460659469E+02  0.00000000000E+00 0.  1.
<mgrwt>
<rscale>  0 0.84974442E+02</rscale>
<asrwt>0</asrwt>
<pdfrwt beam="1">  1        1 0.38814952E-02 0.84974442E+02</pdfrwt>
<pdfrwt beam="2">  1       -1 0.11007555E-01 0.84974442E+02</pdfrwt>
<totfact> 0.10318326E+05</totfact>
</mgrwt>
</event>
<event>
 7    1  0.3301067E-009  0.9890579E+02  0.7818608E-02  0.1282614E+00
         -1   -1    0    0    0  501 -0.00000000000E+00  0.00000000000E+00  0.72405711589E+02  0.72405711765E+02  0.50400000000E-02 0.  1.
          1   -1    0    0  501    0  0.00000000000E+00 -0.00000000000E+00 -0.33776188952E+02  0.33776189328E+02  0.50400000000E-02 0. -1.
         23    2    1    2    0    0  0.71054273576E-14  0.00000000000E+00  0.38629522637E+02  0.10618190109E+03  0.98905794070E+02 0.  0.
    9000005    2    3    3    0    0  0.47994220656E+02  0.36268363646E+01  0.17292179720E+02  0.53533241460E+02  0.15817373467E+02 0.  0.
         22    1    3    3    0    0 -0.47994220656E+02 -0.36268363646E+01  0.21337342917E+02  0.52648659633E+02  0.00000000000E+00 0.  1.
         22    1    4    4    0    0  0.20253319219E+02  0.69843543329E+00 -0.80623213206E+00  0.20281389540E+02  0.00000000000E+00 0. -1.
         22    1    4    4    0    0  0.27740901437E+02  0.29284009313E+01  0.18098411852E+02  0.33251851920E+02  0.00000000000E+00 0. -1.
<mgrwt>
<rscale>  0 0.98905794E+02</rscale>
<asrwt>0</asrwt>
<pdfrwt beam="2">  1        1 0.51963368E-02 0.98905794E+02</pdfrwt>
<pdfrwt beam="1">  1       -1 0.11139340E-01 0.98905794E+02</pdfrwt>
<totfact> 0.69908487E+04</totfact>
</mgrwt>
</event>
<event>
 7    1  0.3301067E-009  0.9119420E+02  0.7818608E-02  0.1299985E+00
          1   -1    0    0  501    0  0.00000000000E+00  0.00000000000E+00  0.21089757940E+03  0.21089757946E+03  0.50400000000E-02 0. -1.
         -1   -1    0    0    0  501 -0.00000000000E+00 -0.00000000000E+00 -0.98583176419E+01  0.98583189302E+01  0.50400000000E-02 0.  1.
         23    2    1    2    0    0  0.00000000000E+00  0.00000000000E+00  0.20103926176E+03  0.22075589839E+03  0.91194198861E+02 0.  0.
    9000005    2    3    3    0    0  0.12984166838E+02 -0.33680827964E+02  0.33128868636E+02  0.49009320901E+02  0.11852583235E+01 0.  0.
         22    1    3    3    0    0 -0.12984166838E+02  0.33680827964E+02  0.16791039312E+03  0.17174657749E+03  0.00000000000E+00 0. -1.
         22    1    4    4    0    0  0.78958274543E+01 -0.20409360962E+02  0.20865361461E+02  0.30236557591E+02  0.00000000000E+00 0.  1.
         22    1    4    4    0    0  0.50883393839E+01 -0.13271467002E+02  0.12263507174E+02  0.18772763310E+02  0.00000000000E+00 0.  1.
<mgrwt>
<rscale>  0 0.91194199E+02</rscale>
<asrwt>0</asrwt>
<pdfrwt beam="1">  1        1 0.32445780E-01 0.91194199E+02</pdfrwt>
<pdfrwt beam="2">  1       -1 0.15166644E-02 0.91194199E+02</pdfrwt>
<totfact> 0.11957243E+05</totfact>
</mgrwt>
</event>
<event>
 7    1  0.3301067E-009  0.9326705E+02  0.7818608E-02  0.1295127E+00
          1   -1    0    0  501    0  0.00000000000E+00  0.00000000000E+00  0.36208302663E+03  0.36208302667E+03  0.50400000000E-02 0. -1.
         -1   -1    0    0    0  501 -0.00000000000E+00 -0.00000000000E+00 -0.60060408688E+01  0.60060429834E+01  0.50400000000E-02 0.  1.
         23    2    1    2    0    0  0.71054273576E-14  0.00000000000E+00  0.35607698576E+03  0.36808906965E+03  0.93267054236E+02 0.  0.
    9000005    2    3    3    0    0 -0.44544789095E+02  0.51674607623E+01  0.14067686470E+03  0.14807054079E+03  0.11133907796E+02 0.  0.
         22    1    3    3    0    0  0.44544789095E+02 -0.51674607623E+01  0.21540012107E+03  0.22001852886E+03  0.00000000000E+00 0.  1.
         22    1    4    4    0    0 -0.38399026195E+02  0.81115632028E+01  0.11539535186E+03  0.12188670929E+03  0.00000000000E+00 0.  1.
         22    1    4    4    0    0 -0.61457628999E+01 -0.29441024405E+01  0.25281512832E+02  0.26183831497E+02  0.00000000000E+00 0.  1.
<mgrwt>
<rscale>  0 0.93267054E+02</rscale>
<asrwt>0</asrwt>
<pdfrwt beam="1">  1        1 0.55705084E-01 0.93267054E+02</pdfrwt>
<pdfrwt beam="2">  1       -1 0.92400640E-03 0.93267054E+02</pdfrwt>
<totfact> 0.12485878E+05</totfact>
</mgrwt>
</event>
<event>
 7    1  0.3301067E-009  0.9392467E+02  0.7818608E-02  0.1293617E+00
          1   -1    0    0  501    0  0.00000000000E+00  0.00000000000E+00  0.19983224671E+02  0.19983225307E+02  0.50400000000E-02 0. -1.
         -1   -1    0    0    0  501 -0.00000000000E+00 -0.00000000000E+00 -0.11036560613E+03  0.11036560624E+03  0.50400000000E-02 0.  1.
         23    2    1    2    0    0  0.00000000000E+00  0.00000000000E+00 -0.90382381456E+02  0.13034883155E+03  0.93924666667E+02 0.  0.
    9000005    2    3    3    0    0 -0.35578289816E+02 -0.20183341077E+01 -0.86283408993E+02  0.94478370804E+02  0.14541234592E+02 0.  0.
         22    1    3    3    0    0  0.35578289816E+02  0.20183341077E+01 -0.40989724622E+01  0.35870460744E+02  0.00000000000E+00 0. -1.
         22    1    4    4    0    0 -0.27458772010E+02  0.17349605426E+00 -0.48159308562E+02  0.55437652028E+02  0.00000000000E+00 0. -1.
         22    1    4    4    0    0 -0.81195178052E+01 -0.21918301619E+01 -0.38124100431E+02  0.39040718776E+02  0.00000000000E+00 0. -1.
<mgrwt>
<rscale>  0 0.93924667E+02</rscale>
<asrwt>0</asrwt>
<pdfrwt beam="1">  1        1 0.30743424E-02 0.93924667E+02</pdfrwt>
<pdfrwt beam="2">  1       -1 0.16979324E-01 0.93924667E+02</pdfrwt>
<totfact> 0.73956400E+04</totfact>
</mgrwt>
</event>
<event>
 7    1  0.3301067E-009  0.8605076E+02  0.7818608E-02  0.1312707E+00
         -1   -1    0    0    0  501 -0.00000000000E+00  0.00000000000E+00  0.35329102877E+02  0.35329103237E+02  0.50400000000E-02 0.  1.
          1   -1    0    0  501    0  0.00000000000E+00 -0.00000000000E+00 -0.52398249999E+02  0.52398250241E+02  0.50400000000E-02 0. -1.
         23    2    1    2    0    0  0.00000000000E+00  0.00000000000E+00 -0.17069147121E+02  0.87727353478E+02  0.86050756910E+02 0.  0.
    9000005    2    3    3    0    0  0.78369386934E+01  0.21212736675E+02 -0.45273054086E+02  0.51576860073E+02  0.99561671038E+01 0.  0.
         22    1    3    3    0    0 -0.78369386934E+01 -0.21212736675E+02  0.28203906965E+02  0.36150493405E+02  0.00000000000E+00 0.  1.
         22    1    4    4    0    0  0.70183876275E+00  0.31024429281E+01 -0.16721479111E+02  0.17021327605E+02  0.00000000000E+00 0. -1.
         22    1    4    4    0    0  0.71350999307E+01  0.18110293747E+02 -0.28551574976E+02  0.34555532469E+02  0.00000000000E+00 0. -1.
<mgrwt>
<rscale>  0 0.86050757E+02</rscale>
<asrwt>0</asrwt>
<pdfrwt beam="2">  1        1 0.80612693E-02 0.86050757E+02</pdfrwt>
<pdfrwt beam="1">  1       -1 0.54352466E-02 0.86050757E+02</pdfrwt>
<totfact> 0.11086904E+05</totfact>
</mgrwt>
</event>
<event>
 7    1  0.3301067E-009  0.9801754E+02  0.7818608E-02  0.1284521E+00
         -1   -1    0    0    0  501 -0.00000000000E+00  0.00000000000E+00  0.37200751645E+01  0.37200785786E+01  0.50400000000E-02 0.  1.
          1   -1    0    0  501    0  0.00000000000E+00 -0.00000000000E+00 -0.64564778381E+03  0.64564778383E+03  0.50400000000E-02 0. -1.
         23    2    1    2    0    0  0.30531133177E-15 -0.71054273576E-14 -0.64192770865E+03  0.64936786241E+03  0.98017537216E+02 0.  0.
    9000005    2    3    3    0    0  0.15736592841E+00  0.47551837451E+02 -0.36859493339E+03  0.37192956649E+03  0.14428288370E+02 0.  0.
         22    1    3    3    0    0 -0.15736592841E+00 -0.47551837451E+02 -0.27333277526E+03  0.27743829591E+03  0.00000000000E+00 0.  1.
         22    1    4    4    0    0 -0.21350056038E+01  0.31133247932E+02 -0.18768448662E+03  0.19026114657E+03  0.00000000000E+00 0.  1.
         22    1    4    4    0    0  0.22923715322E+01  0.16418589519E+02 -0.18091044677E+03  0.18166841993E+03  0.00000000000E+00 0.  1.
<mgrwt>
<rscale>  0 0.98017537E+02</rscale>
<asrwt>0</asrwt>
<pdfrwt beam="2">  1        1 0.99330339E-01 0.98017537E+02</pdfrwt>
<pdfrwt beam="1">  1       -1 0.57232003E-03 0.98017537E+02</pdfrwt>
<totfact> 0.11722623E+05</totfact>
</mgrwt>
</event>
<event>
 7    1  0.3301067E-009  0.9264860E+02  0.7818608E-02  0.1296562E+00
         -1   -1    0    0    0  501 -0.00000000000E+00  0.00000000000E+00  0.35381336800E+02  0.35381337159E+02  0.50400000000E-02 0.  1.
          1   -1    0    0  501    0  0.00000000000E+00 -0.00000000000E+00 -0.60651776024E+02  0.60651776233E+02  0.50400000000E-02 0. -1.
         23    2    1    2    0    0  0.00000000000E+00 -0.35527136788E-14 -0.25270439224E+02  0.96033113392E+02  0.92648603708E+02 0.  0.
    9000005    2    3    3    0    0  0.21850304512E+02 -0.23415474029E+02  0.21963306743E+02  0.38965197805E+02  0.31905431612E+01 0.  0.
         22    1    3    3    0    0 -0.21850304512E+02  0.23415474029E+02 -0.47233745967E+02  0.57067915586E+02  0.00000000000E+00 0. -1.
         22    1    4    4    0    0  0.40167915510E+00 -0.94975186103E+00  0.23083225460E+00  0.10567205264E+01  0.00000000000E+00 0.  1.
         22    1    4    4    0    0  0.21448625357E+02 -0.22465722168E+02  0.21732474488E+02  0.37908477279E+02  0.00000000000E+00 0.  1.
<mgrwt>
<rscale>  0 0.92648604E+02</rscale>
<asrwt>0</asrwt>
<pdfrwt beam="2">  1        1 0.93310425E-02 0.92648604E+02</pdfrwt>
<pdfrwt beam="1">  1       -1 0.54432826E-02 0.92648604E+02</pdfrwt>
<totfact> 0.92328252E+04</totfact>
</mgrwt>
</event>
<event>
 7    1  0.3301067E-009  0.9039722E+02  0.7818608E-02  0.1301893E+00
         -1   -1    0    0    0  501 -0.00000000000E+00  0.00000000000E+00  0.67556823841E+02  0.67556824029E+02  0.50400000000E-02 0.  1.
          1   -1    0    0  501    0  0.00000000000E+00 -0.00000000000E+00 -0.30239939341E+02  0.30239939761E+02  0.50400000000E-02 0. -1.
         23    2    1    2    0    0  0.00000000000E+00  0.00000000000E+00  0.37316884499E+02  0.97796763790E+02  0.90397218646E+02 0.  0.
    9000005    2    3    3    0    0 -0.37771549059E+02 -0.12883871623E+02 -0.28888622408E+01  0.41147084733E+02  0.95944249766E+01 0.  0.
         22    1    3    3    0    0  0.37771549059E+02  0.12883871623E+02  0.40205746740E+02  0.56649679057E+02  0.00000000000E+00 0.  1.
         22    1    4    4    0    0 -0.10808045772E+02 -0.68684261361E+01 -0.42350226320E+01  0.13487940824E+02  0.00000000000E+00 0. -1.
         22    1    4    4    0    0 -0.26963503288E+02 -0.60154454868E+01  0.13461603912E+01  0.27659143908E+02  0.00000000000E+00 0. -1.
<mgrwt>
<rscale>  0 0.90397219E+02</rscale>
<asrwt>0</asrwt>
<pdfrwt beam="2">  1        1 0.46522984E-02 0.90397219E+02</pdfrwt>
<pdfrwt beam="1">  1       -1 0.10393358E-01 0.90397219E+02</pdfrwt>
<totfact> 0.88958133E+04</totfact>
</mgrwt>
</event>
<event>
 7    1  0.3301067E-009  0.8564122E+02  0.7818608E-02  0.1313764E+00
         -1   -1    0    0    0  501 -0.00000000000E+00  0.00000000000E+00  0.42901766619E+01  0.42901796224E+01  0.50400000000E-02 0.  1.
          1   -1    0    0  501    0  0.00000000000E+00 -0.00000000000E+00 -0.42739592991E+03  0.42739592994E+03  0.50400000000E-02 0. -1.
         23    2    1    2    0    0  0.00000000000E+00  0.00000000000E+00 -0.42310575325E+03  0.43168610956E+03  0.85641221134E+02 0.  0.
    9000005    2    3    3    0    0  0.17238948294E+02 -0.22203041850E+02 -0.37347134324E+03  0.37464462411E+03  0.93591531343E+01 0.  0.
         22    1    3    3    0    0 -0.17238948294E+02  0.22203041850E+02 -0.49634410005E+02  0.57041485449E+02  0.00000000000E+00 0.  1.
         22    1    4    4    0    0  0.13612586549E+02 -0.17370334546E+02 -0.23282921112E+03  0.23387277008E+03  0.00000000000E+00 0.  1.
         22    1    4    4    0    0  0.36263617442E+01 -0.48327073044E+01 -0.14064213212E+03  0.14077185403E+03  0.00000000000E+00 0.  1.
<mgrwt>
<rscale>  0 0.85641221E+02</rscale>
<asrwt>0</asrwt>
<pdfrwt beam="2">  1        1 0.65753187E-01 0.85641221E+02</pdfrwt>
<pdfrwt beam="1">  1       -1 0.66002775E-03 0.85641221E+02</pdfrwt>
<totfact> 0.16087005E+05</totfact>
</mgrwt>
</event>
<event>
 7    1  0.3301067E-009  0.8992949E+02  0.7818608E-02  0.1303023E+00
         -1   -1    0    0    0  501 -0.00000000000E+00  0.00000000000E+00  0.88849508786E+02  0.88849508929E+02  0.50400000000E-02 0.  1.
          1   -1    0    0  501    0  0.00000000000E+00 -0.00000000000E+00 -0.22755650748E+02  0.22755651306E+02  0.50400000000E-02 0. -1.
         23    2    1    2    0    0  0.00000000000E+00  0.00000000000E+00  0.66093858037E+02  0.11160516023E+03  0.89929493053E+02 0.  0.
    9000005    2    3    3    0    0 -0.41161594677E+01 -0.18797195105E+02 -0.15207451441E+02  0.28057687290E+02  0.13626809023E+02 0.  0.
         22    1    3    3    0    0  0.41161594677E+01  0.18797195105E+02  0.81301309479E+02  0.83547472945E+02  0.00000000000E+00 0.  1.
         22    1    4    4    0    0 -0.82214705169E+01 -0.79070066397E+01 -0.45622952696E+01  0.12285270432E+02  0.00000000000E+00 0.  1.
         22    1    4    4    0    0  0.41053110492E+01 -0.10890188465E+02 -0.10645156172E+02  0.15772416858E+02  0.00000000000E+00 0.  1.
<mgrwt>
<rscale>  0 0.89929493E+02</rscale>
<asrwt>0</asrwt>
<pdfrwt beam="2">  1        1 0.35008694E-02 0.89929493E+02</pdfrwt>
<pdfrwt beam="1">  1       -1 0.13669155E-01 0.89929493E+02</pdfrwt>
<totfact> 0.86120653E+04</totfact>
</mgrwt>
</event>
<event>
 7    1  0.3301067E-009  0.8960035E+02  0.7818608E-02  0.1303822E+00
          1   -1    0    0  501    0  0.00000000000E+00  0.00000000000E+00  0.38196940424E+02  0.38196940756E+02  0.50400000000E-02 0. -1.
         -1   -1    0    0    0  501 -0.00000000000E+00 -0.00000000000E+00 -0.52544929485E+02  0.52544929727E+02  0.50400000000E-02 0.  1.
         23    2    1    2    0    0  0.35527136788E-14  0.00000000000E+00 -0.14347989061E+02  0.90741870483E+02  0.89600347481E+02 0.  0.
    9000005    2    3    3    0    0  0.29021528461E+02  0.19067911536E+02 -0.34998123534E+02  0.50340602950E+02  0.10172182161E+02 0.  0.
         22    1    3    3    0    0 -0.29021528461E+02 -0.19067911536E+02  0.20650134473E+02  0.40401267533E+02  0.00000000000E+00 0. -1.
         22    1    4    4    0    0  0.25478478834E+02  0.13614333713E+02 -0.23969081920E+02  0.37536913222E+02  0.00000000000E+00 0. -1.
         22    1    4    4    0    0  0.35430496272E+01  0.54535778228E+01 -0.11029041614E+02  0.12803689728E+02  0.00000000000E+00 0. -1.
<mgrwt>
<rscale>  0 0.89600347E+02</rscale>
<asrwt>0</asrwt>
<pdfrwt beam="1">  1        1 0.58764524E-02 0.89600347E+02</pdfrwt>
<pdfrwt beam="2">  1       -1 0.80838353E-02 0.89600347E+02</pdfrwt>
<totfact> 0.94575229E+04</totfact>
</mgrwt>
</event>
<event>
 7    1  0.3301067E-009  0.9203001E+02  0.7818608E-02  0.1298009E+00
         -1   -1    0    0    0  501 -0.00000000000E+00  0.00000000000E+00  0.98565486303E+02  0.98565486432E+02  0.50400000000E-02 0.  1.
          1   -1    0    0  501    0  0.00000000000E+00 -0.00000000000E+00 -0.21481965956E+02  0.21481966547E+02  0.50400000000E-02 0. -1.
         23    2    1    2    0    0 -0.17763568394E-14  0.00000000000E+00  0.77083520347E+02  0.12004745298E+03  0.92030005203E+02 0.  0.
    9000005    2    3    3    0    0 -0.10950075773E+02  0.43331950288E+02  0.47687021618E+02  0.66552441878E+02  0.12554418108E+02 0.  0.
         22    1    3    3    0    0  0.10950075773E+02 -0.43331950288E+02  0.29396498730E+02  0.53495011101E+02  0.00000000000E+00 0. -1.
         22    1    4    4    0    0 -0.79986816132E+01  0.13546298447E+02  0.22382027822E+02  0.27357563462E+02  0.00000000000E+00 0. -1.
         22    1    4    4    0    0 -0.29513941599E+01  0.29785651840E+02  0.25304993796E+02  0.39194878416E+02  0.00000000000E+00 0. -1.
<mgrwt>
<rscale>  0 0.92030005E+02</rscale>
<asrwt>0</asrwt>
<pdfrwt beam="2">  1        1 0.33049180E-02 0.92030005E+02</pdfrwt>
<pdfrwt beam="1">  1       -1 0.15163921E-01 0.92030005E+02</pdfrwt>
<totfact> 0.79653640E+04</totfact>
</mgrwt>
</event>
<event>
 7    1  0.3301067E-009  0.8577303E+02  0.7818608E-02  0.1313423E+00
          1   -1    0    0  501    0  0.00000000000E+00  0.00000000000E+00  0.27463489100E+02  0.27463489563E+02  0.50400000000E-02 0. -1.
         -1   -1    0    0    0  501 -0.00000000000E+00 -0.00000000000E+00 -0.66970840831E+02  0.66970841021E+02  0.50400000000E-02 0.  1.
         23    2    1    2    0    0  0.00000000000E+00  0.00000000000E+00 -0.39507351731E+02  0.94434330584E+02  0.85773025783E+02 0.  0.
    9000005    2    3    3    0    0  0.31199208290E+02 -0.65131070677E+01 -0.50320015339E+02  0.60778352573E+02  0.12086895225E+02 0.  0.
         22    1    3    3    0    0 -0.31199208290E+02  0.65131070677E+01  0.10812663608E+02  0.33655978011E+02  0.00000000000E+00 0. -1.
         22    1    4    4    0    0  0.91261249027E+01 -0.46141281626E+01 -0.79032262196E+01  0.12924291823E+02  0.00000000000E+00 0. -1.
         22    1    4    4    0    0  0.22073083387E+02 -0.18989789051E+01 -0.42416789119E+02  0.47854060750E+02  0.00000000000E+00 0. -1.
<mgrwt>
<rscale>  0 0.85773026E+02</rscale>
<asrwt>0</asrwt>
<pdfrwt beam="1">  1        1 0.42251522E-02 0.85773026E+02</pdfrwt>
<pdfrwt beam="2">  1       -1 0.10303206E-01 0.85773026E+02</pdfrwt>
<totfact> 0.10180227E+05</totfact>
</mgrwt>
</event>
<event>
 7    1  0.3301067E-009  0.9176416E+02  0.7818608E-02  0.1298635E+00
         -1   -1    0    0    0  501 -0.00000000000E+00  0.00000000000E+00  0.10803106694E+02  0.10803107870E+02  0.50400000000E-02 0.  1.
          1   -1    0    0  501    0  0.00000000000E+00 -0.00000000000E+00 -0.19486664980E+03  0.19486664987E+03  0.50400000000E-02 0. -1.
         23    2    1    2    0    0  0.00000000000E+00  0.00000000000E+00 -0.18406354311E+03  0.20566975774E+03  0.91764161557E+02 0.  0.
    9000005    2    3    3    0    0  0.75665604415E+01 -0.21851819271E+02 -0.18024577670E+03  0.18223196384E+03  0.13608592311E+02 0.  0.
         22    1    3    3    0    0 -0.75665604415E+01  0.21851819271E+02 -0.38177664076E+01  0.23437793896E+02  0.00000000000E+00 0.  1.
         22    1    4    4    0    0  0.34979573668E-01 -0.11223216846E+02 -0.12355972368E+03  0.12406839700E+03  0.00000000000E+00 0.  1.
         22    1    4    4    0    0  0.75315808678E+01 -0.10628602425E+02 -0.56686053026E+02  0.58163566840E+02  0.00000000000E+00 0.  1.
<mgrwt>
<rscale>  0 0.91764162E+02</rscale>
<asrwt>0</asrwt>
<pdfrwt beam="2">  1        1 0.29979482E-01 0.91764162E+02</pdfrwt>
<pdfrwt beam="1">  1       -1 0.16620167E-02 0.91764162E+02</pdfrwt>
<totfact> 0.11579667E+05</totfact>
</mgrwt>
</event>
<event>
 7    1  0.3301067E-009  0.9160031E+02  0.7818608E-02  0.1299022E+00
          1   -1    0    0  501    0  0.00000000000E+00  0.00000000000E+00  0.29345779007E+03  0.29345779012E+03  0.50400000000E-02 0. -1.
         -1   -1    0    0    0  501 -0.00000000000E+00 -0.00000000000E+00 -0.71480601709E+01  0.71480619477E+01  0.50400000000E-02 0.  1.
         23    2    1    2    0    0  0.00000000000E+00  0.00000000000E+00  0.28630972990E+03  0.30060585207E+03  0.91600310363E+02 0.  0.
    9000005    2    3    3    0    0  0.27045605953E+02 -0.34297231237E+02  0.18286560855E+03  0.18831849251E+03  0.10782344896E+02 0.  0.
         22    1    3    3    0    0 -0.27045605953E+02  0.34297231237E+02  0.10344412136E+03  0.11228735955E+03  0.00000000000E+00 0.  1.
         22    1    4    4    0    0  0.15811540960E+02 -0.27049633233E+02  0.11794958128E+03  0.12204012131E+03  0.00000000000E+00 0. -1.
         22    1    4    4    0    0  0.11234064993E+02 -0.72475980041E+01  0.64916027270E+02  0.66278371205E+02  0.00000000000E+00 0. -1.
<mgrwt>
<rscale>  0 0.91600310E+02</rscale>
<asrwt>0</asrwt>
<pdfrwt beam="1">  1        1 0.45147349E-01 0.91600310E+02</pdfrwt>
<pdfrwt beam="2">  1       -1 0.10997018E-02 0.91600310E+02</pdfrwt>
<totfact> 0.12601546E+05</totfact>
</mgrwt>
</event>
<event>
 7    1  0.5753585E-009  0.9371912E+02  0.7818608E-02  0.1294087E+00
         -1   -1    0    0    0  501 -0.00000000000E+00  0.00000000000E+00  0.77193623924E+02  0.77193624088E+02  0.50400000000E-02 0.  1.
          1   -1    0    0  501    0  0.00000000000E+00 -0.00000000000E+00 -0.28445589848E+02  0.28445590295E+02  0.50400000000E-02 0. -1.
         23    2    1    2    0    0 -0.35527136788E-14  0.00000000000E+00  0.48748034075E+02  0.10563921438E+03  0.93719116456E+02 0.  0.
    9000005    2    3    3    0    0  0.28703287648E+02  0.10839989155E+02  0.63018193067E+02  0.71801047702E+02  0.15579271709E+02 0.  0.
         22    1    3    3    0    0 -0.28703287648E+02 -0.10839989155E+02 -0.14270158992E+02  0.33838166681E+02  0.00000000000E+00 0. -1.
         22    1    4    4    0    0  0.12864537010E+01  0.45714187903E+01  0.32741536638E+01  0.57682679459E+01  0.00000000000E+00 0.  1.
         22    1    4    4    0    0  0.27416833947E+02  0.62685703646E+01  0.59744039403E+02  0.66032779756E+02  0.00000000000E+00 0.  1.
<mgrwt>
<rscale>  0 0.93719116E+02</rscale>
<asrwt>0</asrwt>
<pdfrwt beam="2">  1        1 0.43762446E-02 0.93719116E+02</pdfrwt>
<pdfrwt beam="1">  1       -1 0.11875942E-01 0.93719116E+02</pdfrwt>
<totfact> 0.79369896E+04</totfact>
</mgrwt>
</event>
<event>
 7    1  0.3301067E-009  0.8748340E+02  0.7818608E-02  0.1309063E+00
          1   -1    0    0  501    0  0.00000000000E+00  0.00000000000E+00  0.55088463250E+03  0.55088463252E+03  0.50400000000E-02 0. -1.
         -1   -1    0    0    0  501 -0.00000000000E+00 -0.00000000000E+00 -0.34732050786E+01  0.34732087354E+01  0.50400000000E-02 0.  1.
         23    2    1    2    0    0  0.00000000000E+00  0.00000000000E+00  0.54741142742E+03  0.55435784126E+03  0.87483400100E+02 0.  0.
    9000005    2    3    3    0    0 -0.84154968475E+01  0.35394027960E+02  0.42473644619E+03  0.42640195502E+03  0.96964283216E+01 0.  0.
         22    1    3    3    0    0  0.84154968475E+01 -0.35394027960E+02  0.12267498123E+03  0.12795588624E+03  0.00000000000E+00 0.  1.
         22    1    4    4    0    0 -0.41446022651E+01  0.18226449366E+02  0.27267158548E+03  0.27331149759E+03  0.00000000000E+00 0.  1.
         22    1    4    4    0    0 -0.42708945823E+01  0.17167578594E+02  0.15206486070E+03  0.15309045743E+03  0.00000000000E+00 0.  1.
<mgrwt>
<rscale>  0 0.87483400E+02</rscale>
<asrwt>0</asrwt>
<pdfrwt beam="1">  1        1 0.84751485E-01 0.87483400E+02</pdfrwt>
<pdfrwt beam="2">  1       -1 0.53433951E-03 0.87483400E+02</pdfrwt>
<totfact> 0.15692178E+05</totfact>
</mgrwt>
</event>
<event>
 7    1  0.3301067E-009  0.9492032E+02  0.7818608E-02  0.1291356E+00
         -1   -1    0    0    0  501 -0.00000000000E+00  0.00000000000E+00  0.84408506915E+02  0.84408507066E+02  0.50400000000E-02 0.  1.
          1   -1    0    0  501    0  0.00000000000E+00 -0.00000000000E+00 -0.26685304569E+02  0.26685305045E+02  0.50400000000E-02 0. -1.
         23    2    1    2    0    0  0.00000000000E+00  0.00000000000E+00  0.57723202346E+02  0.11109381211E+03  0.94920319217E+02 0.  0.
    9000005    2    3    3    0    0  0.35980539941E+02 -0.20466861738E+02  0.22314551292E+01  0.41863575270E+02  0.58384808463E+01 0.  0.
         22    1    3    3    0    0 -0.35980539941E+02  0.20466861738E+02  0.55491747217E+02  0.69230236841E+02  0.00000000000E+00 0.  1.
         22    1    4    4    0    0  0.26486588455E+02 -0.12653435896E+02 -0.72052758113E-01  0.29353943510E+02  0.00000000000E+00 0. -1.
         22    1    4    4    0    0  0.94939514852E+01 -0.78134258424E+01  0.23035078874E+01  0.12509631761E+02  0.00000000000E+00 0. -1.
<mgrwt>
<rscale>  0 0.94920319E+02</rscale>
<asrwt>0</asrwt>
<pdfrwt beam="2">  1        1 0.41054315E-02 0.94920319E+02</pdfrwt>
<pdfrwt beam="1">  1       -1 0.12985924E-01 0.94920319E+02</pdfrwt>
<totfact> 0.75646465E+04</totfact>
</mgrwt>
</event>
<event>
 7    1  0.3301067E-009  0.9072183E+02  0.7818608E-02  0.1301113E+00
         -1   -1    0    0    0  501 -0.00000000000E+00  0.00000000000E+00  0.46560782417E+03  0.46560782420E+03  0.50400000000E-02 0.  1.
          1   -1    0    0  501    0  0.00000000000E+00 -0.00000000000E+00 -0.44191957141E+01  0.44191985881E+01  0.50400000000E-02 0. -1.
         23    2    1    2    0    0 -0.44408920985E-15 -0.71054273576E-14  0.46118862846E+03  0.47002702279E+03  0.90721833819E+02 0.  0.
    9000005    2    3    3    0    0 -0.28552000326E+01 -0.43919801255E+02  0.25650233006E+03  0.26066231263E+03  0.14638810992E+02 0.  0.
         22    1    3    3    0    0  0.28552000326E+01  0.43919801255E+02  0.20468629839E+03  0.20936471016E+03  0.00000000000E+00 0. -1.
         22    1    4    4    0    0  0.97892668700E+00 -0.16790516939E+01  0.39843116317E+02  0.39890492976E+02  0.00000000000E+00 0. -1.
         22    1    4    4    0    0 -0.38341267196E+01 -0.42240749562E+02  0.21665921375E+03  0.22077181965E+03  0.00000000000E+00 0. -1.
<mgrwt>
<rscale>  0 0.90721834E+02</rscale>
<asrwt>0</asrwt>
<pdfrwt beam="2">  1        1 0.67987674E-03 0.90721834E+02</pdfrwt>
<pdfrwt beam="1">  1       -1 0.71631947E-01 0.90721834E+02</pdfrwt>
<totfact> 0.49736228E+04</totfact>
</mgrwt>
</event>
<event>
 7    1  0.3301067E-009  0.9296003E+02  0.7818608E-02  0.1295838E+00
         -1   -1    0    0    0  501 -0.00000000000E+00  0.00000000000E+00  0.47217129088E+02  0.47217129357E+02  0.50400000000E-02 0.  1.
          1   -1    0    0  501    0  0.00000000000E+00 -0.00000000000E+00 -0.45754407412E+02  0.45754407690E+02  0.50400000000E-02 0. -1.
         23    2    1    2    0    0  0.00000000000E+00  0.00000000000E+00  0.14627216757E+01  0.92971537046E+02  0.92960029830E+02 0.  0.
    9000005    2    3    3    0    0 -0.59672361991E+01  0.12266431458E+02 -0.43693387141E+02  0.45800068848E+02  0.15687504777E+01 0.  0.
         22    1    3    3    0    0  0.59672361991E+01 -0.12266431458E+02  0.45156108816E+02  0.47171468198E+02  0.00000000000E+00 0.  1.
         22    1    4    4    0    0 -0.30049883067E+01  0.77283318601E+01 -0.25219414174E+02  0.26547616076E+02  0.00000000000E+00 0.  1.
         22    1    4    4    0    0 -0.29622478924E+01  0.45380995981E+01 -0.18473972967E+02  0.19252452771E+02  0.00000000000E+00 0.  1.
<mgrwt>
<rscale>  0 0.92960030E+02</rscale>
<asrwt>0</asrwt>
<pdfrwt beam="2">  1        1 0.70391396E-02 0.92960030E+02</pdfrwt>
<pdfrwt beam="1">  1       -1 0.72641738E-02 0.92960030E+02</pdfrwt>
<totfact> 0.87615664E+04</totfact>
</mgrwt>
</event>
<event>
 7    1  0.4856860E-009  0.9197963E+02  0.7818608E-02  0.1298127E+00
         -1   -1    0    0    0  501 -0.00000000000E+00  0.00000000000E+00  0.15270910476E+03  0.15270910484E+03  0.50400000000E-02 0.  1.
          1   -1    0    0  501    0  0.00000000000E+00 -0.00000000000E+00 -0.13850275046E+02  0.13850275963E+02  0.50400000000E-02 0. -1.
         23    2    1    2    0    0  0.00000000000E+00  0.00000000000E+00  0.13885882971E+03  0.16655938080E+03  0.91979632228E+02 0.  0.
    9000005    2    3    3    0    0 -0.22161746872E+02  0.22192934704E+02  0.12935265552E+03  0.13378688131E+03  0.13533319831E+02 0.  0.
         22    1    3    3    0    0  0.22161746872E+02 -0.22192934704E+02  0.95061741899E+01  0.32772499491E+02  0.00000000000E+00 0. -1.
         22    1    4    4    0    0 -0.75817790994E+01  0.82127533653E+00  0.41873839384E+02  0.42562616135E+02  0.00000000000E+00 0. -1.
         22    1    4    4    0    0 -0.14579967772E+02  0.21371659367E+02  0.87478816139E+02  0.91224265179E+02  0.00000000000E+00 0. -1.
<mgrwt>
<rscale>  0 0.91979632E+02</rscale>
<asrwt>0</asrwt>
<pdfrwt beam="2">  1        1 0.21308118E-02 0.91979632E+02</pdfrwt>
<pdfrwt beam="1">  1       -1 0.23493706E-01 0.91979632E+02</pdfrwt>
<totfact> 0.72796196E+04</totfact>
</mgrwt>
</event>
<event>
 7    1  0.3301067E-009  0.9144366E+02  0.7818608E-02  0.1299393E+00
          1   -1    0    0  501    0  0.00000000000E+00  0.00000000000E+00  0.58243164470E+02  0.58243164688E+02  0.50400000000E-02 0. -1.
         -1   -1    0    0    0  501 -0.00000000000E+00 -0.00000000000E+00 -0.35892379358E+02  0.35892379712E+02  0.50400000000E-02 0.  1.
         23    2    1    2    0    0  0.00000000000E+00 -0.71054273576E-14  0.22350785112E+02  0.94135544400E+02  0.91443660930E+02 0.  0.
    9000005    2    3    3    0    0  0.86700243506E+01  0.35139426308E+02  0.38817815056E+02  0.54372349374E+02  0.11814440625E+02 0.  0.
         22    1    3    3    0    0 -0.86700243506E+01 -0.35139426308E+02 -0.16467029943E+02  0.39763195026E+02  0.00000000000E+00 0.  1.
         22    1    4    4    0    0  0.65085245924E+01  0.61587580900E+01  0.79810822344E+01  0.11999536125E+02  0.00000000000E+00 0. -1.
         22    1    4    4    0    0  0.21614997582E+01  0.28980668218E+02  0.30836732821E+02  0.42372813249E+02  0.00000000000E+00 0. -1.
<mgrwt>
<rscale>  0 0.91443661E+02</rscale>
<asrwt>0</asrwt>
<pdfrwt beam="1">  1        1 0.89604868E-02 0.91443661E+02</pdfrwt>
<pdfrwt beam="2">  1       -1 0.55219046E-02 0.91443661E+02</pdfrwt>
<totfact> 0.95163036E+04</totfact>
</mgrwt>
</event>
<event>
 7    1  0.3301067E-009  0.8840402E+02  0.7818608E-02  0.1306763E+00
          1   -1    0    0  501    0  0.00000000000E+00  0.00000000000E+00  0.19914701277E+02  0.19914701914E+02  0.50400000000E-02 0. -1.
         -1   -1    0    0    0  501 -0.00000000000E+00 -0.00000000000E+00 -0.98109317494E+02  0.98109317623E+02  0.50400000000E-02 0.  1.
         23    2    1    2    0    0  0.35527136788E-14  0.00000000000E+00 -0.78194616217E+02  0.11802401954E+03  0.88404022434E+02 0.  0.
    9000005    2    3    3    0    0 -0.30177553654E+02  0.22329470304E+02 -0.87466774005E+01  0.39079062799E+02  0.64326351586E+01 0.  0.
         22    1    3    3    0    0  0.30177553654E+02 -0.22329470304E+02 -0.69447938816E+02  0.78944956739E+02  0.00000000000E+00 0.  1.
         22    1    4    4    0    0 -0.20150455281E+02  0.13455722874E+02 -0.26760824768E+01  0.24377422824E+02  0.00000000000E+00 0. -1.
         22    1    4    4    0    0 -0.10027098373E+02  0.88737474298E+01 -0.60705949237E+01  0.14701639975E+02  0.00000000000E+00 0. -1.
<mgrwt>
<rscale>  0 0.88404022E+02</rscale>
<asrwt>0</asrwt>
<pdfrwt beam="1">  1        1 0.30638003E-02 0.88404022E+02</pdfrwt>
<pdfrwt beam="2">  1       -1 0.15093741E-01 0.88404022E+02</pdfrwt>
<totfact> 0.88405248E+04</totfact>
</mgrwt>
</event>
<event>
 7    1  0.3301067E-009  0.9714447E+02  0.7818608E-02  0.1286418E+00
         -1   -1    0    0    0  501 -0.00000000000E+00  0.00000000000E+00  0.88792026072E+02  0.88792026215E+02  0.50400000000E-02 0.  1.
          1   -1    0    0  501    0  0.00000000000E+00 -0.00000000000E+00 -0.26570649620E+02  0.26570650098E+02  0.50400000000E-02 0. -1.
         23    2    1    2    0    0  0.00000000000E+00  0.00000000000E+00  0.62221376451E+02  0.11536267631E+03  0.97144466640E+02 0.  0.
    9000005    2    3    3    0    0  0.18969061869E+02 -0.47112866207E+01  0.83367318388E+02  0.86567322692E+02  0.12718885683E+02 0.  0.
         22    1    3    3    0    0 -0.18969061869E+02  0.47112866207E+01 -0.21145941936E+02  0.28795353622E+02  0.00000000000E+00 0. -1.
         22    1    4    4    0    0  0.70691622730E+01 -0.59060416400E+01  0.55242435584E+02  0.56005187905E+02  0.00000000000E+00 0.  1.
         22    1    4    4    0    0  0.11899899596E+02  0.11947550193E+01  0.28124882804E+02  0.30562134787E+02  0.00000000000E+00 0.  1.
<mgrwt>
<rscale>  0 0.97144467E+02</rscale>
<asrwt>0</asrwt>
<pdfrwt beam="2">  1        1 0.40877923E-02 0.97144467E+02</pdfrwt>
<pdfrwt beam="1">  1       -1 0.13660312E-01 0.97144467E+02</pdfrwt>
<totfact> 0.70633950E+04</totfact>
</mgrwt>
</event>
<event>
 7    1  0.3301067E-009  0.9044951E+02  0.7818608E-02  0.1301767E+00
         -1   -1    0    0    0  501 -0.00000000000E+00  0.00000000000E+00  0.16186478014E+02  0.16186478799E+02  0.50400000000E-02 0.  1.
          1   -1    0    0  501    0  0.00000000000E+00 -0.00000000000E+00 -0.12635721768E+03  0.12635721778E+03  0.50400000000E-02 0. -1.
         23    2    1    2    0    0  0.00000000000E+00  0.16653345369E-15 -0.11017073966E+03  0.14254369658E+03  0.90449508323E+02 0.  0.
    9000005    2    3    3    0    0  0.35842723027E+02 -0.38348892217E+00 -0.16504908669E+02  0.42253439056E+02  0.15102756178E+02 0.  0.
         22    1    3    3    0    0 -0.35842723027E+02  0.38348892217E+00 -0.93665830994E+02  0.10029025752E+03  0.00000000000E+00 0. -1.
         22    1    4    4    0    0  0.20543282903E+02 -0.52436533299E+01 -0.32791072936E+01  0.21454018675E+02  0.00000000000E+00 0.  1.
         22    1    4    4    0    0  0.15299440124E+02  0.48601644077E+01 -0.13225801375E+02  0.20799420381E+02  0.00000000000E+00 0.  1.
<mgrwt>
<rscale>  0 0.90449508E+02</rscale>
<asrwt>0</asrwt>
<pdfrwt beam="2">  1        1 0.19439571E-01 0.90449508E+02</pdfrwt>
<pdfrwt beam="1">  1       -1 0.24902275E-02 0.90449508E+02</pdfrwt>
<totfact> 0.11109987E+05</totfact>
</mgrwt>
</event>
<event>
 7    1  0.3301067E-009  0.9245431E+02  0.7818608E-02  0.1297015E+00
          1   -1    0    0  501    0  0.00000000000E+00  0.00000000000E+00  0.11526144623E+02  0.11526145725E+02  0.50400000000E-02 0. -1.
         -1   -1    0    0    0  501 -0.00000000000E+00 -0.00000000000E+00 -0.18540020227E+03  0.18540020234E+03  0.50400000000E-02 0.  1.
         23    2    1    2    0    0  0.35527136788E-14  0.00000000000E+00 -0.17387405765E+03  0.19692634807E+03  0.92454305681E+02 0.  0.
    9000005    2    3    3    0    0  0.17388467346E+02 -0.36403957646E+02 -0.46350266134E+02  0.63173126305E+02  0.14659119600E+02 0.  0.
         22    1    3    3    0    0 -0.17388467346E+02  0.36403957646E+02 -0.12752379152E+03  0.13375322176E+03  0.00000000000E+00 0. -1.
         22    1    4    4    0    0  0.18868910452E+02 -0.25183940914E+02 -0.36258788455E+02  0.48010065631E+02  0.00000000000E+00 0.  1.
         22    1    4    4    0    0 -0.14804431061E+01 -0.11220016732E+02 -0.10091477679E+02  0.15163060674E+02  0.00000000000E+00 0.  1.
<mgrwt>
<rscale>  0 0.92454306E+02</rscale>
<asrwt>0</asrwt>
<pdfrwt beam="1">  1        1 0.17732532E-02 0.92454306E+02</pdfrwt>
<pdfrwt beam="2">  1       -1 0.28523106E-01 0.92454306E+02</pdfrwt>
<totfact> 0.68380035E+04</totfact>
</mgrwt>
</event>
<event>
 7    1  0.3301067E-009  0.9367645E+02  0.7818608E-02  0.1294185E+00
          1   -1    0    0  501    0  0.00000000000E+00  0.00000000000E+00  0.11331050290E+03  0.11331050301E+03  0.50400000000E-02 0. -1.
         -1   -1    0    0    0  501 -0.00000000000E+00 -0.00000000000E+00 -0.19361128088E+02  0.19361128744E+02  0.50400000000E-02 0.  1.
         23    2    1    2    0    0  0.00000000000E+00 -0.88817841970E-15  0.93949374809E+02  0.13267163175E+03  0.93676447654E+02 0.  0.
    9000005    2    3    3    0    0 -0.38559399897E+02  0.64928501141E+01  0.14536636095E+02  0.44154020551E+02  0.14466489513E+02 0.  0.
         22    1    3    3    0    0  0.38559399897E+02 -0.64928501141E+01  0.79412738714E+02  0.88517611203E+02  0.00000000000E+00 0. -1.
         22    1    4    4    0    0 -0.25639245456E+02 -0.21802348021E+01  0.11980988208E+02  0.28384298649E+02  0.00000000000E+00 0. -1.
         22    1    4    4    0    0 -0.12920154440E+02  0.86730849162E+01  0.25556478871E+01  0.15769721901E+02  0.00000000000E+00 0. -1.
<mgrwt>
<rscale>  0 0.93676448E+02</rscale>
<asrwt>0</asrwt>
<pdfrwt beam="1">  1        1 0.17432385E-01 0.93676448E+02</pdfrwt>
<pdfrwt beam="2">  1       -1 0.29786351E-02 0.93676448E+02</pdfrwt>
<totfact> 0.99103123E+04</totfact>
</mgrwt>
</event>
<event>
 7    1  0.3301067E-009  0.8867657E+02  0.7818608E-02  0.1306089E+00
          1   -1    0    0  501    0  0.00000000000E+00  0.00000000000E+00  0.59497105053E+03  0.59497105055E+03  0.50400000000E-02 0. -1.
         -1   -1    0    0    0  501 -0.00000000000E+00 -0.00000000000E+00 -0.33041648327E+01  0.33041686766E+01  0.50400000000E-02 0.  1.
         23    2    1    2    0    0 -0.35527136788E-14  0.00000000000E+00  0.59166688570E+03  0.59827521923E+03  0.88676571379E+02 0.  0.
    9000005    2    3    3    0    0  0.16692688976E+02  0.33667818575E+01  0.57140952860E+03  0.57181125123E+03  0.13010633366E+02 0.  0.
         22    1    3    3    0    0 -0.16692688976E+02 -0.33667818575E+01  0.20257357102E+02  0.26463967995E+02  0.00000000000E+00 0.  1.
         22    1    4    4    0    0  0.85279062347E+01  0.67727097637E+01  0.19990868686E+03  0.20020508950E+03  0.00000000000E+00 0. -1.
         22    1    4    4    0    0  0.81647827414E+01 -0.34059279062E+01  0.37150084174E+03  0.37160616173E+03  0.00000000000E+00 0. -1.
<mgrwt>
<rscale>  0 0.88676571E+02</rscale>
<asrwt>0</asrwt>
<pdfrwt beam="1">  1        1 0.91533974E-01 0.88676571E+02</pdfrwt>
<pdfrwt beam="2">  1       -1 0.50833353E-03 0.88676571E+02</pdfrwt>
<totfact> 0.15230426E+05</totfact>
</mgrwt>
</event>
<event>
 7    1  0.3301067E-009  0.8946064E+02  0.7818608E-02  0.1304163E+00
         -1   -1    0    0    0  501 -0.00000000000E+00  0.00000000000E+00  0.20854141278E+01  0.20854202181E+01  0.50400000000E-02 0.  1.
          1   -1    0    0  501    0  0.00000000000E+00 -0.00000000000E+00 -0.95942508315E+03  0.95942508316E+03  0.50400000000E-02 0. -1.
         23    2    1    2    0    0  0.00000000000E+00  0.17763568394E-14 -0.95733966902E+03  0.96151050338E+03  0.89460640671E+02 0.  0.
    9000005    2    3    3    0    0 -0.68595704520E+01 -0.11927474007E+02 -0.93560658621E+03  0.93578803788E+03  0.12257623560E+02 0.  0.
         22    1    3    3    0    0  0.68595704520E+01  0.11927474007E+02 -0.21733082811E+02  0.25722465501E+02  0.00000000000E+00 0.  1.
         22    1    4    4    0    0 -0.66172498573E+01 -0.14366303050E+02 -0.76190063842E+03  0.76206480137E+03  0.00000000000E+00 0. -1.
         22    1    4    4    0    0 -0.24232059468E+00  0.24388290425E+01 -0.17370594779E+03  0.17372323651E+03  0.00000000000E+00 0. -1.
<mgrwt>
<rscale>  0 0.89460641E+02</rscale>
<asrwt>0</asrwt>
<pdfrwt beam="2">  1        1 0.14760351E+00 0.89460641E+02</pdfrwt>
<pdfrwt beam="1">  1       -1 0.32083418E-03 0.89460641E+02</pdfrwt>
<totfact> 0.14448259E+05</totfact>
</mgrwt>
</event>
<event>
 6    1  0.3301067E-009  0.1333585E+03  0.7818608E-02  0.1222556E+00
          1   -1    0    0  501    0  0.00000000000E+00  0.00000000000E+00  0.11965598944E+03  0.11965598955E+03  0.50400000000E-02 0. -1.
         -1   -1    0    0    0  501 -0.00000000000E+00 -0.00000000000E+00 -0.37157556864E+02  0.37157557206E+02  0.50400000000E-02 0.  1.
    9000005    2    1    2    0    0  0.23643615698E+02 -0.28107325634E+02 -0.23079293246E+02  0.45029386393E+02  0.12080957935E+02 0.  0.
         22    1    1    2    0    0 -0.23643615698E+02  0.28107325634E+02  0.10557772583E+03  0.11178416036E+03  0.00000000000E+00 0. -1.
         22    1    3    3    0    0  0.19838100022E+02 -0.22743319216E+02 -0.23769965816E+02  0.38416403480E+02  0.00000000000E+00 0.  1.
         22    1    3    3    0    0  0.38055156754E+01 -0.53640064180E+01  0.69067256975E+00  0.66129829129E+01  0.00000000000E+00 0.  1.
<mgrwt>
<rscale>  0 0.13335853E+03</rscale>
<asrwt>0</asrwt>
<pdfrwt beam="1">  1        1 0.18408614E-01 0.13335853E+03</pdfrwt>
<pdfrwt beam="2">  1       -1 0.57165472E-02 0.13335853E+03</pdfrwt>
<totfact> 0.37382890E+04</totfact>
</mgrwt>
</event>
<event>
 7    1  0.3301067E-009  0.9056421E+02  0.7818608E-02  0.1301491E+00
         -1   -1    0    0    0  501 -0.00000000000E+00  0.00000000000E+00  0.10151497325E+03  0.10151497338E+03  0.50400000000E-02 0.  1.
          1   -1    0    0  501    0  0.00000000000E+00 -0.00000000000E+00 -0.20198686802E+02  0.20198687431E+02  0.50400000000E-02 0. -1.
         23    2    1    2    0    0  0.00000000000E+00 -0.35527136788E-14  0.81316286451E+02  0.12171366081E+03  0.90564213603E+02 0.  0.
    9000005    2    3    3    0    0  0.18667408953E+02 -0.28804359328E+02  0.33302193267E+01  0.36508086234E+02  0.11982767892E+02 0.  0.
         22    1    3    3    0    0 -0.18667408953E+02  0.28804359328E+02  0.77986067125E+02  0.85205574576E+02  0.00000000000E+00 0.  1.
         22    1    4    4    0    0  0.16375834405E+01 -0.19259808391E+01  0.39419989991E+01  0.46829945362E+01  0.00000000000E+00 0.  1.
         22    1    4    4    0    0  0.17029825513E+02 -0.26878378489E+02 -0.61177967248E+00  0.31825091697E+02  0.00000000000E+00 0.  1.
<mgrwt>
<rscale>  0 0.90564214E+02</rscale>
<asrwt>0</asrwt>
<pdfrwt beam="2">  1        1 0.31074903E-02 0.90564214E+02</pdfrwt>
<pdfrwt beam="1">  1       -1 0.15617688E-01 0.90564214E+02</pdfrwt>
<totfact> 0.82563129E+04</totfact>
</mgrwt>
</event>
<event>
 7    1  0.3301067E-009  0.9160102E+02  0.7818608E-02  0.1299020E+00
         -1   -1    0    0    0  501 -0.00000000000E+00  0.00000000000E+00  0.11146522080E+01  0.11146636024E+01  0.50400000000E-02 0.  1.
          1   -1    0    0  501    0  0.00000000000E+00 -0.00000000000E+00 -0.18819109637E+04  0.18819109637E+04  0.50400000000E-02 0. -1.
         23    2    1    2    0    0  0.00000000000E+00  0.00000000000E+00 -0.18807963115E+04  0.18830256273E+04  0.91601024999E+02 0.  0.
    9000005    2    3    3    0    0 -0.60260620647E+01  0.20373936200E+02 -0.17723980051E+04  0.17725647585E+04  0.11820492321E+02 0.  0.
         22    1    3    3    0    0  0.60260620647E+01 -0.20373936200E+02 -0.10839830637E+03  0.11046086875E+03  0.00000000000E+00 0.  1.
         22    1    4    4    0    0 -0.18447955910E+01  0.21905920316E+01 -0.63133338940E+02  0.63198263030E+02  0.00000000000E+00 0. -1.
         22    1    4    4    0    0 -0.41812664737E+01  0.18183344168E+02 -0.17092646662E+04  0.17093664955E+04  0.00000000000E+00 0. -1.
<mgrwt>
<rscale>  0 0.91601025E+02</rscale>
<asrwt>0</asrwt>
<pdfrwt beam="2">  1        1 0.28952222E+00 0.91601025E+02</pdfrwt>
<pdfrwt beam="1">  1       -1 0.17148734E-03 0.91601025E+02</pdfrwt>
<totfact> 0.85852545E+04</totfact>
</mgrwt>
</event>
<event>
 7    1  0.3301067E-009  0.1033924E+03  0.7818608E-02  0.1273320E+00
         -1   -1    0    0    0  501 -0.00000000000E+00  0.00000000000E+00  0.44198053343E+02  0.44198053630E+02  0.50400000000E-02 0.  1.
          1   -1    0    0  501    0  0.00000000000E+00 -0.00000000000E+00 -0.60466419982E+02  0.60466420192E+02  0.50400000000E-02 0. -1.
         23    2    1    2    0    0  0.00000000000E+00 -0.35527136788E-14 -0.16268366639E+02  0.10466447382E+03  0.10339241910E+03 0.  0.
    9000005    2    3    3    0    0  0.45742137471E+02 -0.18733919612E+02 -0.19266844037E+02  0.55143834175E+02  0.15044210975E+02 0.  0.
         22    1    3    3    0    0 -0.45742137471E+02  0.18733919612E+02  0.29984773985E+01  0.49520639648E+02  0.00000000000E+00 0.  1.
         22    1    4    4    0    0  0.67509047085E+01 -0.47720823215E+01  0.21163721199E+01  0.85338452656E+01  0.00000000000E+00 0. -1.
         22    1    4    4    0    0  0.38991232763E+02 -0.13961837290E+02 -0.21383216157E+02  0.46609988909E+02  0.00000000000E+00 0. -1.
<mgrwt>
<rscale>  0 0.10339242E+03</rscale>
<asrwt>0</asrwt>
<pdfrwt beam="2">  1        1 0.93025261E-02 0.10339242E+03</pdfrwt>
<pdfrwt beam="1">  1       -1 0.67997006E-02 0.10339242E+03</pdfrwt>
<totfact> 0.67839997E+04</totfact>
</mgrwt>
</event>
<event>
 7    1  0.3301067E-009  0.8877248E+02  0.7818608E-02  0.1305852E+00
         -1   -1    0    0    0  501 -0.00000000000E+00  0.00000000000E+00  0.21107649890E+03  0.21107649896E+03  0.50400000000E-02 0. -1.
          1   -1    0    0  501    0  0.00000000000E+00 -0.00000000000E+00 -0.93337627687E+01  0.93337641294E+01  0.50400000000E-02 0.  1.
         23    2    1    2    0    0 -0.17763568394E-14  0.00000000000E+00  0.20174273613E+03  0.22041026309E+03  0.88772475990E+02 0.  0.
    9000005    2    3    3    0    0 -0.14982510477E+02  0.41413229344E+02  0.97335059050E+02  0.10709435856E+03  0.74536387785E+01 0.  0.
         22    1    3    3    0    0  0.14982510477E+02 -0.41413229344E+02  0.10440767708E+03  0.11331590452E+03  0.00000000000E+00 0. -1.
         22    1    4    4    0    0 -0.56884777652E+01  0.70285245651E+01  0.20402116195E+02  0.22316031952E+02  0.00000000000E+00 0.  1.
         22    1    4    4    0    0 -0.92940327123E+01  0.34384704779E+02  0.76932942855E+02  0.84778326612E+02  0.00000000000E+00 0.  1.
<mgrwt>
<rscale>  0 0.88772476E+02</rscale>
<asrwt>0</asrwt>
<pdfrwt beam="2">  1        1 0.14359636E-02 0.88772476E+02</pdfrwt>
<pdfrwt beam="1">  1       -1 0.32473307E-01 0.88772476E+02</pdfrwt>
<totfact> 0.73264763E+04</totfact>
</mgrwt>
</event>
<event>
 7    1  0.3301067E-009  0.9349194E+02  0.7818608E-02  0.1294609E+00
          1   -1    0    0  501    0  0.00000000000E+00  0.00000000000E+00  0.45364504428E+03  0.45364504431E+03  0.50400000000E-02 0. -1.
         -1   -1    0    0    0  501 -0.00000000000E+00 -0.00000000000E+00 -0.48169494201E+01  0.48169520568E+01  0.50400000000E-02 0.  1.
         23    2    1    2    0    0  0.00000000000E+00  0.00000000000E+00  0.44882809486E+03  0.45846199636E+03  0.93491942836E+02 0.  0.
    9000005    2    3    3    0    0  0.39919030319E+02  0.24032084731E+02  0.21881286162E+03  0.22377480541E+03  0.50025039339E+01 0.  0.
         22    1    3    3    0    0 -0.39919030319E+02 -0.24032084731E+02  0.23001523324E+03  0.23468719096E+03  0.00000000000E+00 0. -1.
         22    1    4    4    0    0  0.36027119595E+02  0.20543182113E+02  0.19964456360E+03  0.20390666359E+03  0.00000000000E+00 0. -1.
         22    1    4    4    0    0  0.38919107245E+01  0.34889026181E+01  0.19168298018E+02  0.19868141823E+02  0.00000000000E+00 0. -1.
<mgrwt>
<rscale>  0 0.93491943E+02</rscale>
<asrwt>0</asrwt>
<pdfrwt beam="1">  1        1 0.69791574E-01 0.93491943E+02</pdfrwt>
<pdfrwt beam="2">  1       -1 0.74106904E-03 0.93491943E+02</pdfrwt>
<totfact> 0.12865317E+05</totfact>
</mgrwt>
</event>
<event>
 7    1  0.3301067E-009  0.9085556E+02  0.7818608E-02  0.1300793E+00
         -1   -1    0    0    0  501 -0.00000000000E+00  0.00000000000E+00  0.36970417720E+01  0.36970452074E+01  0.50400000000E-02 0.  1.
          1   -1    0    0  501    0  0.00000000000E+00 -0.00000000000E+00 -0.55819821524E+03  0.55819821526E+03  0.50400000000E-02 0. -1.
         23    2    1    2    0    0  0.35527136788E-14  0.35527136788E-14 -0.55450117346E+03  0.56189526047E+03  0.90855557680E+02 0.  0.
    9000005    2    3    3    0    0 -0.26661567822E+02 -0.20174895437E+02 -0.46385878231E+03  0.46528310451E+03  0.14336380665E+02 0.  0.
         22    1    3    3    0    0  0.26661567822E+02  0.20174895437E+02 -0.90642391157E+02  0.96612155960E+02  0.00000000000E+00 0.  1.
         22    1    4    4    0    0 -0.25387409165E+02 -0.20489784507E+02 -0.37550186923E+03  0.37691644380E+03  0.00000000000E+00 0. -1.
         22    1    4    4    0    0 -0.12741586574E+01  0.31488907016E+00 -0.88356913078E+02  0.88366660705E+02  0.00000000000E+00 0. -1.
<mgrwt>
<rscale>  0 0.90855558E+02</rscale>
<asrwt>0</asrwt>
<pdfrwt beam="2">  1        1 0.85876582E-01 0.90855558E+02</pdfrwt>
<pdfrwt beam="1">  1       -1 0.56877637E-03 0.90855558E+02</pdfrwt>
<totfact> 0.14216597E+05</totfact>
</mgrwt>
</event>
<event>
 7    1  0.3301067E-009  0.9121563E+02  0.7818608E-02  0.1299934E+00
          1   -1    0    0  501    0  0.00000000000E+00  0.00000000000E+00  0.40334702054E+03  0.40334702057E+03  0.50400000000E-02 0. -1.
         -1   -1    0    0    0  501 -0.00000000000E+00 -0.00000000000E+00 -0.51570294301E+01  0.51570318929E+01  0.50400000000E-02 0.  1.
         23    2    1    2    0    0  0.00000000000E+00  0.00000000000E+00  0.39818999111E+03  0.40850405246E+03  0.91215633856E+02 0.  0.
    9000005    2    3    3    0    0 -0.70449457741E+01  0.37853405053E+02  0.30354601342E+03  0.30632776340E+03  0.14628903857E+02 0.  0.
         22    1    3    3    0    0  0.70449457741E+01 -0.37853405053E+02  0.94643977684E+02  0.10217628906E+03  0.00000000000E+00 0.  1.
         22    1    4    4    0    0  0.15373674523E+01  0.25333781797E+02  0.16294343709E+03  0.16490824021E+03  0.00000000000E+00 0.  1.
         22    1    4    4    0    0 -0.85823132264E+01  0.12519623256E+02  0.14060257634E+03  0.14141952319E+03  0.00000000000E+00 0.  1.
<mgrwt>
<rscale>  0 0.91215634E+02</rscale>
<asrwt>0</asrwt>
<pdfrwt beam="1">  1        1 0.62053387E-01 0.91215634E+02</pdfrwt>
<pdfrwt beam="2">  1       -1 0.79338935E-03 0.91215634E+02</pdfrwt>
<totfact> 0.13492245E+05</totfact>
</mgrwt>
</event>
<event>
 7    1  0.3301067E-009  0.8920974E+02  0.7818608E-02  0.1304777E+00
         -1   -1    0    0    0  501 -0.00000000000E+00  0.00000000000E+00  0.81659068525E+01  0.81659084079E+01  0.50400000000E-02 0.  1.
          1   -1    0    0  501    0  0.00000000000E+00 -0.00000000000E+00 -0.24364643830E+03  0.24364643835E+03  0.50400000000E-02 0. -1.
         23    2    1    2    0    0  0.00000000000E+00  0.00000000000E+00 -0.23548053145E+03  0.25181234676E+03  0.89209737641E+02 0.  0.
    9000005    2    3    3    0    0  0.30537033307E+02 -0.19706224017E+02 -0.18984969348E+03  0.19347694549E+03  0.83412619907E+01 0.  0.
         22    1    3    3    0    0 -0.30537033307E+02  0.19706224017E+02 -0.45630837963E+02  0.58335401271E+02  0.00000000000E+00 0.  1.
         22    1    4    4    0    0  0.30013292593E+01 -0.30466097090E+01 -0.38912025554E+02  0.39146334959E+02  0.00000000000E+00 0. -1.
         22    1    4    4    0    0  0.27535704048E+02 -0.16659614308E+02 -0.15093766793E+03  0.15433061053E+03  0.00000000000E+00 0. -1.
<mgrwt>
<rscale>  0 0.89209738E+02</rscale>
<asrwt>0</asrwt>
<pdfrwt beam="2">  1        1 0.37484062E-01 0.89209738E+02</pdfrwt>
<pdfrwt beam="1">  1       -1 0.12562937E-02 0.89209738E+02</pdfrwt>
<totfact> 0.13042377E+05</totfact>
</mgrwt>
</event>
<event>
 7    1  0.3301067E-009  0.9007500E+02  0.7818608E-02  0.1302670E+00
         -1   -1    0    0    0  501 -0.00000000000E+00  0.00000000000E+00  0.43742416475E+02  0.43742416765E+02  0.50400000000E-02 0.  1.
          1   -1    0    0  501    0  0.00000000000E+00 -0.00000000000E+00 -0.46370923446E+02  0.46370923720E+02  0.50400000000E-02 0. -1.
         23    2    1    2    0    0  0.00000000000E+00  0.00000000000E+00 -0.26285069711E+01  0.90113340486E+02  0.90074997000E+02 0.  0.
    9000005    2    3    3    0    0 -0.40192811923E+02 -0.20231160468E+01  0.18764743823E+02  0.44536742232E+02  0.34424800869E+01 0.  0.
         22    1    3    3    0    0  0.40192811923E+02  0.20231160468E+01 -0.21393250794E+02  0.45576598253E+02  0.00000000000E+00 0. -1.
         22    1    4    4    0    0 -0.19881539166E+02 -0.49104295724E+00  0.74580445934E+01  0.21240036533E+02  0.00000000000E+00 0.  1.
         22    1    4    4    0    0 -0.20311272757E+02 -0.15320730895E+01  0.11306699230E+02  0.23296705699E+02  0.00000000000E+00 0.  1.
<mgrwt>
<rscale>  0 0.90074997E+02</rscale>
<asrwt>0</asrwt>
<pdfrwt beam="2">  1        1 0.71339883E-02 0.90074997E+02</pdfrwt>
<pdfrwt beam="1">  1       -1 0.67296026E-02 0.90074997E+02</pdfrwt>
<totfact> 0.95919399E+04</totfact>
</mgrwt>
</event>
<event>
 7    1  0.3301067E-009  0.9110252E+02  0.7818608E-02  0.1300204E+00
         -1   -1    0    0    0  501 -0.00000000000E+00  0.00000000000E+00  0.43617431027E+02  0.43617431319E+02  0.50400000000E-02 0. -1.
          1   -1    0    0  501    0  0.00000000000E+00 -0.00000000000E+00 -0.47570831776E+02  0.47570832043E+02  0.50400000000E-02 0.  1.
         23    2    1    2    0    0  0.00000000000E+00  0.00000000000E+00 -0.39534007487E+01  0.91188263362E+02  0.91102524649E+02 0.  0.
    9000005    2    3    3    0    0  0.42910104814E+02  0.91534089769E+01  0.47222370513E+01  0.46463229183E+02  0.14542013352E+02 0.  0.
         22    1    3    3    0    0 -0.42910104814E+02 -0.91534089769E+01 -0.86756378000E+01  0.44725034179E+02  0.00000000000E+00 0.  1.
         22    1    4    4    0    0  0.10422913679E+02  0.31356349509E+01  0.76350509063E+01  0.13295237434E+02  0.00000000000E+00 0.  1.
         22    1    4    4    0    0  0.32487191135E+02  0.60177740260E+01 -0.29128138550E+01  0.33167991749E+02  0.00000000000E+00 0.  1.
<mgrwt>
<rscale>  0 0.91102525E+02</rscale>
<asrwt>0</asrwt>
<pdfrwt beam="2">  1        1 0.73185896E-02 0.91102525E+02</pdfrwt>
<pdfrwt beam="1">  1       -1 0.67103740E-02 0.91102525E+02</pdfrwt>
<totfact> 0.93278605E+04</totfact>
</mgrwt>
</event>
<event>
 7    1  0.3301067E-009  0.9056473E+02  0.7818608E-02  0.1301490E+00
         -1   -1    0    0    0  501 -0.00000000000E+00  0.00000000000E+00  0.17225915285E+02  0.17225916022E+02  0.50400000000E-02 0.  1.
          1   -1    0    0  501    0  0.00000000000E+00 -0.00000000000E+00 -0.11903532134E+03  0.11903532145E+03  0.50400000000E-02 0. -1.
         23    2    1    2    0    0  0.00000000000E+00  0.88817841970E-15 -0.10180940605E+03  0.13626123747E+03  0.90564726441E+02 0.  0.
    9000005    2    3    3    0    0  0.26000624543E+02 -0.53729780746E+01 -0.10552765689E+03  0.10945215768E+03  0.11780792874E+02 0.  0.
         22    1    3    3    0    0 -0.26000624543E+02  0.53729780746E+01  0.37182508379E+01  0.26809079792E+02  0.00000000000E+00 0.  1.
         22    1    4    4    0    0  0.25955515122E+02 -0.71879321713E+01 -0.93991333482E+02  0.97773850819E+02  0.00000000000E+00 0.  1.
         22    1    4    4    0    0  0.45109421166E-01  0.18149540967E+01 -0.11536323410E+02  0.11678306858E+02  0.00000000000E+00 0.  1.
<mgrwt>
<rscale>  0 0.90564726E+02</rscale>
<asrwt>0</asrwt>
<pdfrwt beam="2">  1        1 0.18313126E-01 0.90564726E+02</pdfrwt>
<pdfrwt beam="1">  1       -1 0.26501410E-02 0.90564726E+02</pdfrwt>
<totfact> 0.10957012E+05</totfact>
</mgrwt>
</event>
<event>
 7    1  0.3301067E-009  0.9075629E+02  0.7818608E-02  0.1301031E+00
         -1   -1    0    0    0  501 -0.00000000000E+00  0.00000000000E+00  0.10792619078E+02  0.10792620255E+02  0.50400000000E-02 0.  1.
          1   -1    0    0  501    0  0.00000000000E+00 -0.00000000000E+00 -0.19079481718E+03  0.19079481725E+03  0.50400000000E-02 0. -1.
         23    2    1    2    0    0  0.00000000000E+00  0.00000000000E+00 -0.18000219810E+03  0.20158743750E+03  0.90756287036E+02 0.  0.
    9000005    2    3    3    0    0  0.38805617149E+02  0.21722244779E+02 -0.10573225216E+03  0.11502095027E+03  0.85310031374E+01 0.  0.
         22    1    3    3    0    0 -0.38805617149E+02 -0.21722244779E+02 -0.74269945943E+02  0.86566487227E+02  0.00000000000E+00 0.  1.
         22    1    4    4    0    0  0.24217147323E+01  0.14989718588E+00 -0.11155719656E+02  0.11416534170E+02  0.00000000000E+00 0. -1.
         22    1    4    4    0    0  0.36383902417E+02  0.21572347593E+02 -0.94576532503E+02  0.10360441610E+03  0.00000000000E+00 0. -1.
<mgrwt>
<rscale>  0 0.90756287E+02</rscale>
<asrwt>0</asrwt>
<pdfrwt beam="2">  1        1 0.29353046E-01 0.90756287E+02</pdfrwt>
<pdfrwt beam="1">  1       -1 0.16604032E-02 0.90756287E+02</pdfrwt>
<totfact> 0.11879603E+05</totfact>
</mgrwt>
</event>
<event>
 7    1  0.3301067E-009  0.9280686E+02  0.7818608E-02  0.1296193E+00
          1   -1    0    0  501    0  0.00000000000E+00  0.00000000000E+00  0.20708428368E+03  0.20708428374E+03  0.50400000000E-02 0. -1.
         -1   -1    0    0    0  501 -0.00000000000E+00 -0.00000000000E+00 -0.10398075948E+02  0.10398077170E+02  0.50400000000E-02 0.  1.
         23    2    1    2    0    0  0.00000000000E+00  0.00000000000E+00  0.19668620773E+03  0.21748236091E+03  0.92806858559E+02 0.  0.
    9000005    2    3    3    0    0 -0.28880665043E+02  0.34554363703E+02  0.84943710660E+02  0.97006294757E+02  0.12910862771E+02 0.  0.
         22    1    3    3    0    0  0.28880665043E+02 -0.34554363703E+02  0.11174249707E+03  0.12047606616E+03  0.00000000000E+00 0. -1.
         22    1    4    4    0    0 -0.14121941624E+02  0.25255458533E+02  0.46148241190E+02  0.54469510608E+02  0.00000000000E+00 0. -1.
         22    1    4    4    0    0 -0.14758723419E+02  0.92989051702E+01  0.38795469470E+02  0.42536784149E+02  0.00000000000E+00 0. -1.
<mgrwt>
<rscale>  0 0.92806859E+02</rscale>
<asrwt>0</asrwt>
<pdfrwt beam="1">  1        1 0.31859118E-01 0.92806859E+02</pdfrwt>
<pdfrwt beam="2">  1       -1 0.15997042E-02 0.92806859E+02</pdfrwt>
<totfact> 0.11367093E+05</totfact>
</mgrwt>
</event>
<event>
 7    1  0.3301067E-009  0.9051355E+02  0.7818608E-02  0.1301613E+00
         -1   -1    0    0    0  501 -0.00000000000E+00  0.00000000000E+00  0.81859486914E+02  0.81859487069E+02  0.50400000000E-02 0.  1.
          1   -1    0    0  501    0  0.00000000000E+00 -0.00000000000E+00 -0.25020626476E+02  0.25020626983E+02  0.50400000000E-02 0. -1.
         23    2    1    2    0    0  0.00000000000E+00  0.00000000000E+00  0.56838860438E+02  0.10688011405E+03  0.90513549947E+02 0.  0.
    9000005    2    3    3    0    0 -0.33583104155E+02  0.29742864679E+02  0.30441795572E+02  0.54829485646E+02  0.81918675846E+01 0.  0.
         22    1    3    3    0    0  0.33583104155E+02 -0.29742864679E+02  0.26397064866E+02  0.52050628407E+02  0.00000000000E+00 0. -1.
         22    1    4    4    0    0 -0.15240522938E+02  0.81972128269E+01  0.11365418059E+02  0.20703636522E+02  0.00000000000E+00 0. -1.
         22    1    4    4    0    0 -0.18342581217E+02  0.21545651852E+02  0.19076377513E+02  0.34125849124E+02  0.00000000000E+00 0. -1.
<mgrwt>
<rscale>  0 0.90513550E+02</rscale>
<asrwt>0</asrwt>
<pdfrwt beam="2">  1        1 0.38493272E-02 0.90513550E+02</pdfrwt>
<pdfrwt beam="1">  1       -1 0.12593767E-01 0.90513550E+02</pdfrwt>
<totfact> 0.85911733E+04</totfact>
</mgrwt>
</event>
<event>
 7    1  0.3301067E-009  0.9190314E+02  0.7818608E-02  0.1298307E+00
         -1   -1    0    0    0  501 -0.00000000000E+00  0.00000000000E+00  0.77367242594E+01  0.77367259010E+01  0.50400000000E-02 0.  1.
          1   -1    0    0  501    0  0.00000000000E+00 -0.00000000000E+00 -0.27292512846E+03  0.27292512851E+03  0.50400000000E-02 0. -1.
         23    2    1    2    0    0 -0.71054273576E-14  0.17763568394E-14 -0.26518840420E+03  0.28066185441E+03  0.91903138124E+02 0.  0.
    9000005    2    3    3    0    0  0.33422075526E+02 -0.11534787236E+02 -0.22172194713E+03  0.22463133291E+03  0.69661636761E+01 0.  0.
         22    1    3    3    0    0 -0.33422075526E+02  0.11534787236E+02 -0.43466457070E+02  0.56030521497E+02  0.00000000000E+00 0.  1.
         22    1    4    4    0    0  0.99762922354E-01  0.50110411432E+00 -0.57498243521E+01  0.57724811003E+01  0.00000000000E+00 0. -1.
         22    1    4    4    0    0  0.33322312604E+02 -0.12035891350E+02 -0.21597212278E+03  0.21885885181E+03  0.00000000000E+00 0. -1.
<mgrwt>
<rscale>  0 0.91903138E+02</rscale>
<asrwt>0</asrwt>
<pdfrwt beam="2">  1        1 0.41988474E-01 0.91903138E+02</pdfrwt>
<pdfrwt beam="1">  1       -1 0.11902656E-02 0.91903138E+02</pdfrwt>
<totfact> 0.12316814E+05</totfact>
</mgrwt>
</event>
<event>
 7    1  0.3301067E-009  0.8856271E+02  0.7818608E-02  0.1306370E+00
          1   -1    0    0  501    0  0.00000000000E+00  0.00000000000E+00  0.58730791071E+02  0.58730791287E+02  0.50400000000E-02 0. -1.
         -1   -1    0    0    0  501 -0.00000000000E+00 -0.00000000000E+00 -0.33386890358E+02  0.33386890739E+02  0.50400000000E-02 0.  1.
         23    2    1    2    0    0  0.00000000000E+00  0.88817841970E-15  0.25343900712E+02  0.92117682026E+02  0.88562712461E+02 0.  0.
    9000005    2    3    3    0    0 -0.35128772664E+02 -0.61627651746E+01  0.39168075393E+02  0.53866954594E+02  0.97724267049E+01 0.  0.
         22    1    3    3    0    0  0.35128772664E+02  0.61627651746E+01 -0.13824174680E+02  0.38250727432E+02  0.00000000000E+00 0.  1.
         22    1    4    4    0    0 -0.12889885230E+02  0.16264638494E+01  0.17948003968E+02  0.22156835792E+02  0.00000000000E+00 0. -1.
         22    1    4    4    0    0 -0.22238887435E+02 -0.77892290240E+01  0.21220071425E+02  0.31710118801E+02  0.00000000000E+00 0. -1.
<mgrwt>
<rscale>  0 0.88562712E+02</rscale>
<asrwt>0</asrwt>
<pdfrwt beam="1">  1        1 0.90355063E-02 0.88562712E+02</pdfrwt>
<pdfrwt beam="2">  1       -1 0.51364448E-02 0.88562712E+02</pdfrwt>
<totfact> 0.10411417E+05</totfact>
</mgrwt>
</event>
<event>
 7    1  0.3301067E-009  0.9156882E+02  0.7818608E-02  0.1299096E+00
          1   -1    0    0  501    0  0.00000000000E+00  0.00000000000E+00  0.12790206048E+02  0.12790207041E+02  0.50400000000E-02 0. -1.
         -1   -1    0    0    0  501 -0.00000000000E+00 -0.00000000000E+00 -0.16389198596E+03  0.16389198603E+03  0.50400000000E-02 0.  1.
         23    2    1    2    0    0  0.00000000000E+00 -0.35527136788E-14 -0.15110177991E+03  0.17668219308E+03  0.91568823616E+02 0.  0.
    9000005    2    3    3    0    0  0.28116035361E+02  0.20064994015E+02 -0.13287621637E+03  0.13762727539E+03  0.95949270387E+01 0.  0.
         22    1    3    3    0    0 -0.28116035361E+02 -0.20064994015E+02 -0.18225563539E+02  0.39054917687E+02  0.00000000000E+00 0. -1.
         22    1    4    4    0    0  0.12578708864E+02  0.11399159811E+02 -0.81757932694E+02  0.83501642615E+02  0.00000000000E+00 0. -1.
         22    1    4    4    0    0  0.15537326497E+02  0.86658342047E+01 -0.51118283676E+02  0.54125632773E+02  0.00000000000E+00 0. -1.
<mgrwt>
<rscale>  0 0.91568824E+02</rscale>
<asrwt>0</asrwt>
<pdfrwt beam="1">  1        1 0.19677242E-02 0.91568824E+02</pdfrwt>
<pdfrwt beam="2">  1       -1 0.25214150E-01 0.91568824E+02</pdfrwt>
<totfact> 0.72396163E+04</totfact>
</mgrwt>
</event>
<event>
 7    1  0.3301067E-009  0.9148359E+02  0.7818608E-02  0.1299298E+00
         -1   -1    0    0    0  501 -0.00000000000E+00  0.00000000000E+00  0.49686168408E+02  0.49686168663E+02  0.50400000000E-02 0.  1.
          1   -1    0    0  501    0  0.00000000000E+00 -0.00000000000E+00 -0.42110547056E+02  0.42110547358E+02  0.50400000000E-02 0. -1.
         23    2    1    2    0    0  0.00000000000E+00 -0.35527136788E-14  0.75756213515E+01  0.91796716021E+02  0.91483588875E+02 0.  0.
    9000005    2    3    3    0    0 -0.20407215889E+02 -0.27683779048E+02  0.33923879387E+02  0.48471471830E+02  0.39759157495E+01 0.  0.
         22    1    3    3    0    0  0.20407215889E+02  0.27683779048E+02 -0.26348258035E+02  0.43325244191E+02  0.00000000000E+00 0. -1.
         22    1    4    4    0    0 -0.13183682408E+02 -0.20658369959E+02  0.25061062924E+02  0.35051884487E+02  0.00000000000E+00 0.  1.
         22    1    4    4    0    0 -0.72235334814E+01 -0.70254090888E+01  0.88628164625E+01  0.13419587343E+02  0.00000000000E+00 0.  1.
<mgrwt>
<rscale>  0 0.91483589E+02</rscale>
<asrwt>0</asrwt>
<pdfrwt beam="2">  1        1 0.64785457E-02 0.91483589E+02</pdfrwt>
<pdfrwt beam="1">  1       -1 0.76440260E-02 0.91483589E+02</pdfrwt>
<totfact> 0.90511209E+04</totfact>
</mgrwt>
</event>
<event>
 7    1  0.3301067E-009  0.9411766E+02  0.7818608E-02  0.1293176E+00
         -1   -1    0    0    0  501 -0.00000000000E+00  0.00000000000E+00  0.76613423967E+01  0.76613440545E+01  0.50400000000E-02 0.  1.
          1   -1    0    0  501    0  0.00000000000E+00 -0.00000000000E+00 -0.28905287775E+03  0.28905287779E+03  0.50400000000E-02 0. -1.
         23    2    1    2    0    0  0.35527136788E-14  0.35527136788E-14 -0.28139153535E+03  0.29671422185E+03  0.94117656572E+02 0.  0.
    9000005    2    3    3    0    0 -0.31517829097E+02 -0.24771427937E+02 -0.65705234255E+02  0.77334237177E+02  0.75106083803E+01 0.  0.
         22    1    3    3    0    0  0.31517829097E+02  0.24771427937E+02 -0.21568630110E+03  0.21937998467E+03  0.00000000000E+00 0. -1.
         22    1    4    4    0    0 -0.78037569030E+01 -0.10541709763E+02 -0.20224533814E+02  0.24105145395E+02  0.00000000000E+00 0.  1.
         22    1    4    4    0    0 -0.23714072194E+02 -0.14229718174E+02 -0.45480700441E+02  0.53229091782E+02  0.00000000000E+00 0.  1.
<mgrwt>
<rscale>  0 0.94117657E+02</rscale>
<asrwt>0</asrwt>
<pdfrwt beam="2">  1        1 0.44469665E-01 0.94117657E+02</pdfrwt>
<pdfrwt beam="1">  1       -1 0.11786684E-02 0.94117657E+02</pdfrwt>
<totfact> 0.11686775E+05</totfact>
</mgrwt>
</event>
<event>
 7    1  0.3301067E-009  0.9366384E+02  0.7818608E-02  0.1294214E+00
         -1   -1    0    0    0  501 -0.00000000000E+00  0.00000000000E+00  0.42269042009E+03  0.42269042012E+03  0.50400000000E-02 0.  1.
          1   -1    0    0  501    0  0.00000000000E+00 -0.00000000000E+00 -0.51887339744E+01  0.51887364221E+01  0.50400000000E-02 0. -1.
         23    2    1    2    0    0 -0.71054273576E-14  0.00000000000E+00  0.41750168611E+03  0.42787915654E+03  0.93663838773E+02 0.  0.
    9000005    2    3    3    0    0  0.40457192887E+02  0.61435725705E+01  0.30577272158E+03  0.30889222678E+03  0.15585973068E+02 0.  0.
         22    1    3    3    0    0 -0.40457192887E+02 -0.61435725705E+01  0.11172896453E+03  0.11898692976E+03  0.00000000000E+00 0.  1.
         22    1    4    4    0    0  0.19933001815E+02  0.69358087803E+01  0.10703325611E+03  0.10909421579E+03  0.00000000000E+00 0.  1.
         22    1    4    4    0    0  0.20524191072E+02 -0.79223620981E+00  0.19873946547E+03  0.19979801099E+03  0.00000000000E+00 0.  1.
<mgrwt>
<rscale>  0 0.93663839E+02</rscale>
<asrwt>0</asrwt>
<pdfrwt beam="2">  1        1 0.79826675E-03 0.93663839E+02</pdfrwt>
<pdfrwt beam="1">  1       -1 0.65029313E-01 0.93663839E+02</pdfrwt>
<totfact> 0.48257421E+04</totfact>
</mgrwt>
</event>
<event>
 7    1  0.3301067E-009  0.9032079E+02  0.7818608E-02  0.1302077E+00
         -1   -1    0    0    0  501 -0.00000000000E+00  0.00000000000E+00  0.60610374010E+01  0.60610394965E+01  0.50400000000E-02 0.  1.
          1   -1    0    0  501    0  0.00000000000E+00 -0.00000000000E+00 -0.33648709994E+03  0.33648709998E+03  0.50400000000E-02 0. -1.
         23    2    1    2    0    0  0.00000000000E+00  0.00000000000E+00 -0.33042606254E+03  0.34254813948E+03  0.90320789702E+02 0.  0.
    9000005    2    3    3    0    0  0.10962038516E+02  0.18236567967E+02 -0.31592664276E+03  0.31679989927E+03  0.99896883380E+01 0.  0.
         22    1    3    3    0    0 -0.10962038516E+02 -0.18236567967E+02 -0.14499419780E+02  0.25748240204E+02  0.00000000000E+00 0.  1.
         22    1    4    4    0    0  0.10870696399E+01  0.42858147479E+01 -0.13378897651E+03  0.13386201912E+03  0.00000000000E+00 0.  1.
         22    1    4    4    0    0  0.98749688761E+01  0.13950753219E+02 -0.18213766626E+03  0.18293788015E+03  0.00000000000E+00 0.  1.
<mgrwt>
<rscale>  0 0.90320790E+02</rscale>
<asrwt>0</asrwt>
<pdfrwt beam="2">  1        1 0.51767232E-01 0.90320790E+02</pdfrwt>
<pdfrwt beam="1">  1       -1 0.93246772E-03 0.90320790E+02</pdfrwt>
<totfact> 0.13422274E+05</totfact>
</mgrwt>
</event>
<event>
 7    1  0.3301067E-009  0.9087886E+02  0.7818608E-02  0.1300737E+00
         -1   -1    0    0    0  501 -0.00000000000E+00  0.00000000000E+00  0.27813540386E+03  0.27813540390E+03  0.50400000000E-02 0.  1.
          1   -1    0    0  501    0  0.00000000000E+00 -0.00000000000E+00 -0.74235114028E+01  0.74235131137E+01  0.50400000000E-02 0. -1.
         23    2    1    2    0    0 -0.35527136788E-14  0.00000000000E+00  0.27071189246E+03  0.28555891702E+03  0.90878855470E+02 0.  0.
    9000005    2    3    3    0    0 -0.29834278303E+02  0.31886623953E+02  0.11765159687E+03  0.12639141081E+03  0.15034943646E+02 0.  0.
         22    1    3    3    0    0  0.29834278303E+02 -0.31886623953E+02  0.15306029558E+03  0.15916750621E+03  0.00000000000E+00 0.  1.
         22    1    4    4    0    0 -0.14622898590E+02  0.19649279407E+02  0.45839684875E+02  0.51973070468E+02  0.00000000000E+00 0. -1.
         22    1    4    4    0    0 -0.15211379713E+02  0.12237344546E+02  0.71811912000E+02  0.74418340343E+02  0.00000000000E+00 0. -1.
<mgrwt>
<rscale>  0 0.90878855E+02</rscale>
<asrwt>0</asrwt>
<pdfrwt beam="2">  1        1 0.11420789E-02 0.90878855E+02</pdfrwt>
<pdfrwt beam="1">  1       -1 0.42790059E-01 0.90878855E+02</pdfrwt>
<totfact> 0.62898023E+04</totfact>
</mgrwt>
</event>
<event>
 7    1  0.3356723E-009  0.9144389E+02  0.7818608E-02  0.1299392E+00
          1   -1    0    0  501    0  0.00000000000E+00  0.00000000000E+00  0.11274927441E+03  0.11274927453E+03  0.50400000000E-02 0. -1.
         -1   -1    0    0    0  501 -0.00000000000E+00 -0.00000000000E+00 -0.18541103572E+02  0.18541104257E+02  0.50400000000E-02 0.  1.
         23    2    1    2    0    0  0.00000000000E+00  0.00000000000E+00  0.94208170843E+02  0.13129037878E+03  0.91443885022E+02 0.  0.
    9000005    2    3    3    0    0  0.25977286153E+02 -0.71307396079E+01 -0.21395830104E+01  0.31247605353E+02  0.15689747660E+02 0.  0.
         22    1    3    3    0    0 -0.25977286153E+02  0.71307396079E+01  0.96347753853E+02  0.10004277343E+03  0.00000000000E+00 0. -1.
         22    1    4    4    0    0  0.11559006775E+02  0.42807838468E+01  0.17590084066E+01  0.12451098688E+02  0.00000000000E+00 0. -1.
         22    1    4    4    0    0  0.14418279378E+02 -0.11411523455E+02 -0.38985914170E+01  0.18796506665E+02  0.00000000000E+00 0. -1.
<mgrwt>
<rscale>  0 0.91443885E+02</rscale>
<asrwt>0</asrwt>
<pdfrwt beam="1">  1        1 0.17346042E-01 0.91443885E+02</pdfrwt>
<pdfrwt beam="2">  1       -1 0.28524775E-02 0.91443885E+02</pdfrwt>
<totfact> 0.10574306E+05</totfact>
</mgrwt>
</event>
<event>
 7    1  0.3301067E-009  0.7696529E+02  0.7818608E-02  0.1337891E+00
         -1   -1    0    0    0  501 -0.00000000000E+00  0.00000000000E+00  0.57122638876E+01  0.57122661110E+01  0.50400000000E-02 0.  1.
          1   -1    0    0  501    0  0.00000000000E+00 -0.00000000000E+00 -0.25925160318E+03  0.25925160323E+03  0.50400000000E-02 0. -1.
         23    2    1    2    0    0 -0.35527136788E-14  0.00000000000E+00 -0.25353933930E+03  0.26496386934E+03  0.76965287545E+02 0.  0.
    9000005    2    3    3    0    0 -0.25868034007E+02  0.18967270289E+02 -0.62454446271E+02  0.71205388580E+02  0.11863261701E+02 0.  0.
         22    1    3    3    0    0  0.25868034007E+02 -0.18967270289E+02 -0.19108489303E+03  0.19375848077E+03  0.00000000000E+00 0. -1.
         22    1    4    4    0    0 -0.20859867610E+02  0.85646781313E+01 -0.43884669955E+02  0.49339153269E+02  0.00000000000E+00 0.  1.
         22    1    4    4    0    0 -0.50081663965E+01  0.10402592158E+02 -0.18569776316E+02  0.21866235311E+02  0.00000000000E+00 0.  1.
<mgrwt>
<rscale>  0 0.76965288E+02</rscale>
<asrwt>0</asrwt>
<pdfrwt beam="2">  1        1 0.39884853E-01 0.76965288E+02</pdfrwt>
<pdfrwt beam="1">  1       -1 0.87881021E-03 0.76965288E+02</pdfrwt>
<totfact> 0.19499703E+05</totfact>
</mgrwt>
</event>
<event>
 7    1  0.3301067E-009  0.9245921E+02  0.7818608E-02  0.1297003E+00
         -1   -1    0    0    0  501 -0.00000000000E+00  0.00000000000E+00  0.29702415486E+01  0.29702458246E+01  0.50400000000E-02 0.  1.
          1   -1    0    0  501    0  0.00000000000E+00 -0.00000000000E+00 -0.71952903586E+03  0.71952903588E+03  0.50400000000E-02 0. -1.
         23    2    1    2    0    0  0.00000000000E+00 -0.17763568394E-14 -0.71655879432E+03  0.72249928171E+03  0.92459214551E+02 0.  0.
    9000005    2    3    3    0    0  0.32260751447E+01  0.11402848396E+02 -0.70735168224E+03  0.70749250240E+03  0.76685117055E+01 0.  0.
         22    1    3    3    0    0 -0.32260751447E+01 -0.11402848396E+02 -0.92071120755E+01  0.15006779307E+02  0.00000000000E+00 0.  1.
         22    1    4    4    0    0  0.92186261074E+00  0.18809644853E+01 -0.31381975003E+02  0.31451807789E+02  0.00000000000E+00 0. -1.
         22    1    4    4    0    0  0.23042125340E+01  0.95218839109E+01 -0.67596970724E+03  0.67604069461E+03  0.00000000000E+00 0. -1.
<mgrwt>
<rscale>  0 0.92459215E+02</rscale>
<asrwt>0</asrwt>
<pdfrwt beam="2">  1        1 0.11069664E+00 0.92459215E+02</pdfrwt>
<pdfrwt beam="1">  1       -1 0.45696114E-03 0.92459215E+02</pdfrwt>
<totfact> 0.13695433E+05</totfact>
</mgrwt>
</event>
<event>
 7    1  0.3301067E-009  0.9017509E+02  0.7818608E-02  0.1302428E+00
         -1   -1    0    0    0  501 -0.00000000000E+00  0.00000000000E+00  0.13643866344E+02  0.13643867275E+02  0.50400000000E-02 0.  1.
          1   -1    0    0  501    0  0.00000000000E+00 -0.00000000000E+00 -0.14899636338E+03  0.14899636346E+03  0.50400000000E-02 0. -1.
         23    2    1    2    0    0  0.00000000000E+00  0.00000000000E+00 -0.13535249703E+03  0.16264023074E+03  0.90175086366E+02 0.  0.
    9000005    2    3    3    0    0  0.34503320569E+02 -0.62875460928E+01 -0.22410792298E+02  0.44378482760E+02  0.15401095886E+02 0.  0.
         22    1    3    3    0    0 -0.34503320569E+02  0.62875460928E+01 -0.11294170474E+03  0.11826174798E+03  0.00000000000E+00 0. -1.
         22    1    4    4    0    0  0.28698956188E+00  0.94407648044E+00 -0.53985667525E+01  0.54880020400E+01  0.00000000000E+00 0. -1.
         22    1    4    4    0    0  0.34216331007E+02 -0.72316225733E+01 -0.17012225546E+02  0.38890480720E+02  0.00000000000E+00 0. -1.
<mgrwt>
<rscale>  0 0.90175086E+02</rscale>
<asrwt>0</asrwt>
<pdfrwt beam="2">  1        1 0.22922516E-01 0.90175086E+02</pdfrwt>
<pdfrwt beam="1">  1       -1 0.20990565E-02 0.90175086E+02</pdfrwt>
<totfact> 0.11537880E+05</totfact>
</mgrwt>
</event>
<event>
 7    1  0.6231779E-009  0.9174130E+02  0.7818608E-02  0.1298689E+00
         -1   -1    0    0    0  501 -0.00000000000E+00  0.00000000000E+00  0.64307422833E+02  0.64307423030E+02  0.50400000000E-02 0.  1.
          1   -1    0    0  501    0  0.00000000000E+00 -0.00000000000E+00 -0.32719654404E+02  0.32719654792E+02  0.50400000000E-02 0. -1.
         23    2    1    2    0    0  0.17763568394E-14  0.35527136788E-14  0.31587768429E+02  0.97027077822E+02  0.91741303219E+02 0.  0.
    9000005    2    3    3    0    0 -0.11155344831E+02 -0.15621738447E+02  0.59054158244E+02  0.63517631395E+02  0.13364709566E+02 0.  0.
         22    1    3    3    0    0  0.11155344831E+02  0.15621738447E+02 -0.27466389815E+02  0.33509446427E+02  0.00000000000E+00 0. -1.
         22    1    4    4    0    0 -0.98260060525E+00 -0.75263322689E+01  0.38170845367E+02  0.38918178495E+02  0.00000000000E+00 0. -1.
         22    1    4    4    0    0 -0.10172744225E+02 -0.80954061776E+01  0.20883312877E+02  0.24599452900E+02  0.00000000000E+00 0. -1.
<mgrwt>
<rscale>  0 0.91741303E+02</rscale>
<asrwt>0</asrwt>
<pdfrwt beam="2">  1        1 0.50337931E-02 0.91741303E+02</pdfrwt>
<pdfrwt beam="1">  1       -1 0.98934496E-02 0.91741303E+02</pdfrwt>
<totfact> 0.86354061E+04</totfact>
</mgrwt>
</event>
<event>
 7    1  0.3301067E-009  0.9011821E+02  0.7818608E-02  0.1302566E+00
         -1   -1    0    0    0  501 -0.00000000000E+00  0.00000000000E+00  0.11023390790E+02  0.11023391942E+02  0.50400000000E-02 0.  1.
          1   -1    0    0  501    0  0.00000000000E+00 -0.00000000000E+00 -0.18418316282E+03  0.18418316289E+03  0.50400000000E-02 0. -1.
         23    2    1    2    0    0  0.00000000000E+00  0.00000000000E+00 -0.17315977203E+03  0.19520655483E+03  0.90118213473E+02 0.  0.
    9000005    2    3    3    0    0  0.33770503302E+02 -0.96197049978E+01 -0.32825407048E+02  0.50545849689E+02  0.15632976537E+02 0.  0.
         22    1    3    3    0    0 -0.33770503302E+02  0.96197049978E+01 -0.14033436498E+03  0.14466070514E+03  0.00000000000E+00 0. -1.
         22    1    4    4    0    0  0.14438067312E+02  0.24606911725E+01 -0.18602800228E+02  0.23676506606E+02  0.00000000000E+00 0. -1.
         22    1    4    4    0    0  0.19332435990E+02 -0.12080396170E+02 -0.14222606820E+02  0.26869343083E+02  0.00000000000E+00 0. -1.
<mgrwt>
<rscale>  0 0.90118213E+02</rscale>
<asrwt>0</asrwt>
<pdfrwt beam="2">  1        1 0.28335869E-01 0.90118213E+02</pdfrwt>
<pdfrwt beam="1">  1       -1 0.16959065E-02 0.90118213E+02</pdfrwt>
<totfact> 0.12024692E+05</totfact>
</mgrwt>
</event>
<event>
 7    1  0.3301067E-009  0.9004702E+02  0.7818608E-02  0.1302738E+00
         -1   -1    0    0    0  501 -0.00000000000E+00  0.00000000000E+00  0.11436930838E+02  0.11436931948E+02  0.50400000000E-02 0.  1.
          1   -1    0    0  501    0  0.00000000000E+00 -0.00000000000E+00 -0.17724304209E+03  0.17724304216E+03  0.50400000000E-02 0. -1.
         23    2    1    2    0    0  0.00000000000E+00  0.00000000000E+00 -0.16580611125E+03  0.18867997411E+03  0.90047021614E+02 0.  0.
    9000005    2    3    3    0    0  0.43830854382E+02 -0.19671699227E+01 -0.74286831374E+02  0.87187155926E+02  0.12571924655E+02 0.  0.
         22    1    3    3    0    0 -0.43830854382E+02  0.19671699227E+01 -0.91519279881E+02  0.10149281819E+03  0.00000000000E+00 0. -1.
         22    1    4    4    0    0  0.42048619075E+02 -0.23191707586E+00 -0.63809073978E+02  0.76418178947E+02  0.00000000000E+00 0.  1.
         22    1    4    4    0    0  0.17822353076E+01 -0.17352528468E+01 -0.10477757396E+02  0.10768976979E+02  0.00000000000E+00 0.  1.
<mgrwt>
<rscale>  0 0.90047022E+02</rscale>
<asrwt>0</asrwt>
<pdfrwt beam="2">  1        1 0.27268158E-01 0.90047022E+02</pdfrwt>
<pdfrwt beam="1">  1       -1 0.17595280E-02 0.90047022E+02</pdfrwt>
<totfact> 0.11962228E+05</totfact>
</mgrwt>
</event>
<event>
 7    1  0.3301067E-009  0.7947018E+02  0.7818608E-02  0.1330562E+00
         -1   -1    0    0    0  501 -0.00000000000E+00  0.00000000000E+00  0.33323681683E+02  0.33323682064E+02  0.50400000000E-02 0.  1.
          1   -1    0    0  501    0  0.00000000000E+00 -0.00000000000E+00 -0.47380043693E+02  0.47380043962E+02  0.50400000000E-02 0. -1.
         23    2    1    2    0    0  0.00000000000E+00  0.00000000000E+00 -0.14056362010E+02  0.80703726026E+02  0.79470183600E+02 0.  0.
    9000005    2    3    3    0    0  0.19379041113E+02  0.32303168229E+02 -0.19197900657E+02  0.42684292419E+02  0.58606755241E+01 0.  0.
         22    1    3    3    0    0 -0.19379041113E+02 -0.32303168229E+02  0.51415386466E+01  0.38019433606E+02  0.00000000000E+00 0.  1.
         22    1    4    4    0    0  0.16796268349E+01  0.16711529222E+01  0.12647848708E+00  0.23727400198E+01  0.00000000000E+00 0.  1.
         22    1    4    4    0    0  0.17699414278E+02  0.30632015307E+02 -0.19324379144E+02  0.40311552400E+02  0.00000000000E+00 0.  1.
<mgrwt>
<rscale>  0 0.79470184E+02</rscale>
<asrwt>0</asrwt>
<pdfrwt beam="2">  1        1 0.72892376E-02 0.79470184E+02</pdfrwt>
<pdfrwt beam="1">  1       -1 0.51267203E-02 0.79470184E+02</pdfrwt>
<totfact> 0.13609060E+05</totfact>
</mgrwt>
</event>
<event>
 7    1  0.3301067E-009  0.9881921E+02  0.7818608E-02  0.1282799E+00
         -1   -1    0    0    0  501 -0.00000000000E+00  0.00000000000E+00  0.64701740495E+01  0.64701760124E+01  0.50400000000E-02 0.  1.
          1   -1    0    0  501    0  0.00000000000E+00 -0.00000000000E+00 -0.37731730128E+03  0.37731730132E+03  0.50400000000E-02 0. -1.
         23    2    1    2    0    0  0.00000000000E+00  0.00000000000E+00 -0.37084712723E+03  0.38378747733E+03  0.98819208544E+02 0.  0.
    9000005    2    3    3    0    0  0.47657142195E+02 -0.64562468683E+01 -0.20025273894E+03  0.20654377041E+03  0.15693416318E+02 0.  0.
         22    1    3    3    0    0 -0.47657142195E+02  0.64562468683E+01 -0.17059438830E+03  0.17724370692E+03  0.00000000000E+00 0.  1.
         22    1    4    4    0    0  0.12837686631E+02  0.28397494924E+01 -0.77599665812E+02  0.78705644711E+02  0.00000000000E+00 0.  1.
         22    1    4    4    0    0  0.34819455564E+02 -0.92959963606E+01 -0.12265307312E+03  0.12783812569E+03  0.00000000000E+00 0.  1.
<mgrwt>
<rscale>  0 0.98819209E+02</rscale>
<asrwt>0</asrwt>
<pdfrwt beam="2">  1        1 0.58048799E-01 0.98819209E+02</pdfrwt>
<pdfrwt beam="1">  1       -1 0.99541184E-03 0.98819209E+02</pdfrwt>
<totfact> 0.10775477E+05</totfact>
</mgrwt>
</event>
<event>
 7    1  0.4212253E-009  0.9012186E+02  0.7818608E-02  0.1302557E+00
         -1   -1    0    0    0  501 -0.00000000000E+00  0.00000000000E+00  0.58120667905E+01  0.58120689758E+01  0.50400000000E-02 0.  1.
          1   -1    0    0  501    0  0.00000000000E+00 -0.00000000000E+00 -0.34935715580E+03  0.34935715583E+03  0.50400000000E-02 0. -1.
         23    2    1    2    0    0  0.71054273576E-14  0.00000000000E+00 -0.34354508901E+03  0.35516922481E+03  0.90121862337E+02 0.  0.
    9000005    2    3    3    0    0 -0.32960022505E+02  0.17557358292E+02 -0.26636508518E+03  0.26942905392E+03  0.15717270081E+02 0.  0.
         22    1    3    3    0    0  0.32960022505E+02 -0.17557358292E+02 -0.77180003828E+02  0.85740170892E+02  0.00000000000E+00 0.  1.
         22    1    4    4    0    0 -0.22883754971E+02  0.66314096309E+01 -0.20034077446E+03  0.20175249130E+03  0.00000000000E+00 0. -1.
         22    1    4    4    0    0 -0.10076267533E+02  0.10925948661E+02 -0.66024310718E+02  0.67676562615E+02  0.00000000000E+00 0. -1.
<mgrwt>
<rscale>  0 0.90121862E+02</rscale>
<asrwt>0</asrwt>
<pdfrwt beam="2">  1        1 0.53747239E-01 0.90121862E+02</pdfrwt>
<pdfrwt beam="1">  1       -1 0.89416456E-03 0.90121862E+02</pdfrwt>
<totfact> 0.13592739E+05</totfact>
</mgrwt>
</event>
<event>
 7    1  0.3301067E-009  0.9190971E+02  0.7818608E-02  0.1298292E+00
          1   -1    0    0  501    0  0.00000000000E+00  0.00000000000E+00  0.14658399676E+02  0.14658400542E+02  0.50400000000E-02 0. -1.
         -1   -1    0    0    0  501 -0.00000000000E+00 -0.00000000000E+00 -0.14407087898E+03  0.14407087906E+03  0.50400000000E-02 0.  1.
         23    2    1    2    0    0  0.00000000000E+00  0.35527136788E-14 -0.12941247930E+03  0.15872927961E+03  0.91909707896E+02 0.  0.
    9000005    2    3    3    0    0  0.11644859068E+02 -0.27358431538E+02 -0.12509301093E+03  0.12868357565E+03  0.52071816972E+01 0.  0.
         22    1    3    3    0    0 -0.11644859068E+02  0.27358431538E+02 -0.43194683721E+01  0.30045703951E+02  0.00000000000E+00 0. -1.
         22    1    4    4    0    0  0.21951559660E+01 -0.18478082779E+01 -0.15589904515E+02  0.15851757881E+02  0.00000000000E+00 0.  1.
         22    1    4    4    0    0  0.94497031021E+01 -0.25510623260E+02 -0.10950310641E+03  0.11283181777E+03  0.00000000000E+00 0.  1.
<mgrwt>
<rscale>  0 0.91909708E+02</rscale>
<asrwt>0</asrwt>
<pdfrwt beam="1">  1        1 0.22551386E-02 0.91909708E+02</pdfrwt>
<pdfrwt beam="2">  1       -1 0.22164750E-01 0.91909708E+02</pdfrwt>
<totfact> 0.73935867E+04</totfact>
</mgrwt>
</event>
<event>
 7    1  0.3301067E-009  0.9101024E+02  0.7818608E-02  0.1300424E+00
          1   -1    0    0  501    0  0.00000000000E+00  0.00000000000E+00  0.57390783103E+02  0.57390783325E+02  0.50400000000E-02 0. -1.
         -1   -1    0    0    0  501 -0.00000000000E+00 -0.00000000000E+00 -0.36080986329E+02  0.36080986681E+02  0.50400000000E-02 0.  1.
         23    2    1    2    0    0  0.00000000000E+00  0.00000000000E+00  0.21309796775E+02  0.93471770005E+02  0.91010243101E+02 0.  0.
    9000005    2    3    3    0    0 -0.10782608347E+02 -0.42398425350E+02  0.37510692896E+01  0.46331553355E+02  0.14786859048E+02 0.  0.
         22    1    3    3    0    0  0.10782608347E+02  0.42398425350E+02  0.17558727485E+02  0.47140216650E+02  0.00000000000E+00 0.  1.
         22    1    4    4    0    0 -0.37266711445E+01 -0.13704780652E+02  0.82772770096E+01  0.16438442908E+02  0.00000000000E+00 0.  1.
         22    1    4    4    0    0 -0.70559372022E+01 -0.28693644698E+02 -0.45262077201E+01  0.29893110447E+02  0.00000000000E+00 0.  1.
<mgrwt>
<rscale>  0 0.91010243E+02</rscale>
<asrwt>0</asrwt>
<pdfrwt beam="1">  1        1 0.88293512E-02 0.91010243E+02</pdfrwt>
<pdfrwt beam="2">  1       -1 0.55509211E-02 0.91010243E+02</pdfrwt>
<totfact> 0.96214284E+04</totfact>
</mgrwt>
</event>
<event>
 6    1  0.4667153E-009  0.4509617E+03  0.7818608E-02  0.1027436E+00
          1   -1    0    0  501    0  0.00000000000E+00  0.00000000000E+00  0.22198203560E+03  0.22198203566E+03  0.50400000000E-02 0. -1.
         -1   -1    0    0    0  501 -0.00000000000E+00 -0.00000000000E+00 -0.22903476669E+03  0.22903476674E+03  0.50400000000E-02 0.  1.
    9000005    2    1    2    0    0 -0.12263575609E+03  0.17130578887E+03 -0.83140480041E+02  0.22702004458E+03  0.15509972516E+02 0.  0.
         22    1    1    2    0    0  0.12263575609E+03 -0.17130578887E+03  0.76087748953E+02  0.22399675782E+03  0.00000000000E+00 0. -1.
         22    1    3    3    0    0 -0.56010482086E+02  0.82325723993E+02 -0.31376711029E+02  0.10439921901E+03  0.00000000000E+00 0.  1.
         22    1    3    3    0    0 -0.66625274002E+02  0.88980064880E+02 -0.51763769012E+02  0.12262082557E+03  0.00000000000E+00 0.  1.
<mgrwt>
<rscale>  0 0.45096166E+03</rscale>
<asrwt>0</asrwt>
<pdfrwt beam="1">  1        1 0.34151082E-01 0.45096166E+03</pdfrwt>
<pdfrwt beam="2">  1       -1 0.35236118E-01 0.45096166E+03</pdfrwt>
<totfact> 0.99680267E+02</totfact>
</mgrwt>
</event>
<event>
 7    1  0.3301067E-009  0.9068946E+02  0.7818608E-02  0.1301191E+00
         -1   -1    0    0    0  501 -0.00000000000E+00  0.00000000000E+00  0.43662925325E+03  0.43662925328E+03  0.50400000000E-02 0.  1.
          1   -1    0    0  501    0  0.00000000000E+00 -0.00000000000E+00 -0.47091301001E+01  0.47091327972E+01  0.50400000000E-02 0. -1.
         23    2    1    2    0    0  0.00000000000E+00  0.00000000000E+00  0.43192012315E+03  0.44133838608E+03  0.90689460483E+02 0.  0.
    9000005    2    3    3    0    0  0.21674527654E+02  0.24964042348E+02  0.36620545918E+03  0.36777612931E+03  0.77365625818E+01 0.  0.
         22    1    3    3    0    0 -0.21674527654E+02 -0.24964042348E+02  0.65714663973E+02  0.73562256766E+02  0.00000000000E+00 0. -1.
         22    1    4    4    0    0  0.60950423445E+01  0.24769930849E+01  0.75812527396E+02  0.76097466095E+02  0.00000000000E+00 0. -1.
         22    1    4    4    0    0  0.15579485309E+02  0.22487049263E+02  0.29039293178E+03  0.29167866322E+03  0.00000000000E+00 0. -1.
<mgrwt>
<rscale>  0 0.90689460E+02</rscale>
<asrwt>0</asrwt>
<pdfrwt beam="2">  1        1 0.72448171E-03 0.90689460E+02</pdfrwt>
<pdfrwt beam="1">  1       -1 0.67173737E-01 0.90689460E+02</pdfrwt>
<totfact> 0.51612766E+04</totfact>
</mgrwt>
</event>
<event>
 7    1  0.3301067E-009  0.9158965E+02  0.7818608E-02  0.1299047E+00
         -1   -1    0    0    0  501 -0.00000000000E+00  0.00000000000E+00  0.10314832795E+02  0.10314834026E+02  0.50400000000E-02 0.  1.
          1   -1    0    0  501    0  0.00000000000E+00 -0.00000000000E+00 -0.20331555122E+03  0.20331555129E+03  0.50400000000E-02 0. -1.
         23    2    1    2    0    0  0.00000000000E+00  0.00000000000E+00 -0.19300071843E+03  0.21363038531E+03  0.91589651241E+02 0.  0.
    9000005    2    3    3    0    0 -0.39976556548E+02  0.10297589962E+02 -0.14034909064E+03  0.14672478509E+03  0.11230756131E+02 0.  0.
         22    1    3    3    0    0  0.39976556548E+02 -0.10297589962E+02 -0.52651627790E+02  0.66905600224E+02  0.00000000000E+00 0.  1.
         22    1    4    4    0    0 -0.48477035066E+01  0.40618186536E+01 -0.33045070033E+02  0.33644839925E+02  0.00000000000E+00 0. -1.
         22    1    4    4    0    0 -0.35128853041E+02  0.62357713085E+01 -0.10730402061E+03  0.11307994516E+03  0.00000000000E+00 0. -1.
<mgrwt>
<rscale>  0 0.91589651E+02</rscale>
<asrwt>0</asrwt>
<pdfrwt beam="2">  1        1 0.31279313E-01 0.91589651E+02</pdfrwt>
<pdfrwt beam="1">  1       -1 0.15868976E-02 0.91589651E+02</pdfrwt>
<totfact> 0.11735304E+05</totfact>
</mgrwt>
</event>
<event>
 7    1  0.3301067E-009  0.9092428E+02  0.7818608E-02  0.1300629E+00
          1   -1    0    0  501    0  0.00000000000E+00  0.00000000000E+00  0.87866054476E+01  0.87866068930E+01  0.50400000000E-02 0. -1.
         -1   -1    0    0    0  501 -0.00000000000E+00 -0.00000000000E+00 -0.23522237231E+03  0.23522237237E+03  0.50400000000E-02 0.  1.
         23    2    1    2    0    0  0.00000000000E+00  0.00000000000E+00 -0.22643576686E+03  0.24400897926E+03  0.90924284125E+02 0.  0.
    9000005    2    3    3    0    0  0.71676337076E+01 -0.20602354183E+02 -0.21955846420E+03  0.22113696005E+03  0.14825785910E+02 0.  0.
         22    1    3    3    0    0 -0.71676337076E+01  0.20602354183E+02 -0.68773026688E+01  0.22872019212E+02  0.00000000000E+00 0. -1.
         22    1    4    4    0    0  0.44425314728E+01 -0.16075490932E+02 -0.94050374809E+02  0.95517697294E+02  0.00000000000E+00 0. -1.
         22    1    4    4    0    0  0.27251022349E+01 -0.45268632514E+01 -0.12550808939E+03  0.12561926275E+03  0.00000000000E+00 0. -1.
<mgrwt>
<rscale>  0 0.90924284E+02</rscale>
<asrwt>0</asrwt>
<pdfrwt beam="1">  1        1 0.13517857E-02 0.90924284E+02</pdfrwt>
<pdfrwt beam="2">  1       -1 0.36188053E-01 0.90924284E+02</pdfrwt>
<totfact> 0.66564167E+04</totfact>
</mgrwt>
</event>
<event>
 7    1  0.3301067E-009  0.9227578E+02  0.7818608E-02  0.1297432E+00
         -1   -1    0    0    0  501 -0.00000000000E+00  0.00000000000E+00  0.27557803014E+01  0.27557849102E+01  0.50400000000E-02 0.  1.
          1   -1    0    0  501    0  0.00000000000E+00 -0.00000000000E+00 -0.77245016375E+03  0.77245016377E+03  0.50400000000E-02 0. -1.
         23    2    1    2    0    0  0.00000000000E+00  0.00000000000E+00 -0.76969438345E+03  0.77520594868E+03  0.92275776622E+02 0.  0.
    9000005    2    3    3    0    0 -0.36234965215E+02  0.12048288677E+02 -0.59539240437E+03  0.59677020709E+03  0.13580534852E+02 0.  0.
         22    1    3    3    0    0  0.36234965215E+02 -0.12048288677E+02 -0.17430197908E+03  0.17843574159E+03  0.00000000000E+00 0.  1.
         22    1    4    4    0    0 -0.19022011408E+02  0.44500082714E+01 -0.20622694002E+03  0.20715016361E+03  0.00000000000E+00 0.  1.
         22    1    4    4    0    0 -0.17212953807E+02  0.75982804054E+01 -0.38916546434E+03  0.38962004348E+03  0.00000000000E+00 0.  1.
<mgrwt>
<rscale>  0 0.92275777E+02</rscale>
<asrwt>0</asrwt>
<pdfrwt beam="2">  1        1 0.11883831E+00 0.92275777E+02</pdfrwt>
<pdfrwt beam="1">  1       -1 0.42396717E-03 0.92275777E+02</pdfrwt>
<totfact> 0.13725545E+05</totfact>
</mgrwt>
</event>
<event>
 7    1  0.3301067E-009  0.1006288E+03  0.7818608E-02  0.1278979E+00
          1   -1    0    0  501    0  0.00000000000E+00  0.00000000000E+00  0.14766321598E+03  0.14766321607E+03  0.50400000000E-02 0. -1.
         -1   -1    0    0    0  501 -0.00000000000E+00 -0.00000000000E+00 -0.17144003176E+02  0.17144003917E+02  0.50400000000E-02 0.  1.
         23    2    1    2    0    0 -0.17763568394E-14  0.00000000000E+00  0.13051921281E+03  0.16480721999E+03  0.10062879731E+03 0.  0.
    9000005    2    3    3    0    0  0.13567797011E+02 -0.36613512168E+02  0.16356501104E+02  0.44151680816E+02  0.12537998304E+02 0.  0.
         22    1    3    3    0    0 -0.13567797011E+02  0.36613512168E+02  0.11416271170E+03  0.12065553917E+03  0.00000000000E+00 0. -1.
         22    1    4    4    0    0  0.14874804019E+02 -0.26261222703E+02  0.94013729420E+01  0.31611665974E+02  0.00000000000E+00 0. -1.
         22    1    4    4    0    0 -0.13070070073E+01 -0.10352289465E+02  0.69551281619E+01  0.12540014842E+02  0.00000000000E+00 0. -1.
<mgrwt>
<rscale>  0 0.10062880E+03</rscale>
<asrwt>0</asrwt>
<pdfrwt beam="1">  1        1 0.22717418E-01 0.10062880E+03</pdfrwt>
<pdfrwt beam="2">  1       -1 0.26375390E-02 0.10062880E+03</pdfrwt>
<totfact> 0.85531788E+04</totfact>
</mgrwt>
</event>
<event>
 7    1  0.3301067E-009  0.9213425E+02  0.7818608E-02  0.1297764E+00
         -1   -1    0    0    0  501 -0.00000000000E+00  0.00000000000E+00  0.11866423536E+03  0.11866423547E+03  0.50400000000E-02 0.  1.
          1   -1    0    0  501    0  0.00000000000E+00 -0.00000000000E+00 -0.17883903927E+02  0.17883904637E+02  0.50400000000E-02 0. -1.
         23    2    1    2    0    0 -0.17763568394E-14  0.00000000000E+00  0.10078033143E+03  0.13654814011E+03  0.92134246414E+02 0.  0.
    9000005    2    3    3    0    0 -0.10832755471E+02  0.44406358975E+02  0.48766954579E+02  0.67304622861E+02  0.79008285005E+01 0.  0.
         22    1    3    3    0    0  0.10832755471E+02 -0.44406358975E+02  0.52013376856E+02  0.69243517245E+02  0.00000000000E+00 0.  1.
         22    1    4    4    0    0 -0.99171178318E+01  0.42574055142E+02  0.48409005053E+02  0.65225234131E+02  0.00000000000E+00 0.  1.
         22    1    4    4    0    0 -0.91563763909E+00  0.18323038335E+01  0.35794952618E+00  0.20793887293E+01  0.00000000000E+00 0.  1.
<mgrwt>
<rscale>  0 0.92134246E+02</rscale>
<asrwt>0</asrwt>
<pdfrwt beam="2">  1        1 0.27513699E-02 0.92134246E+02</pdfrwt>
<pdfrwt beam="1">  1       -1 0.18256036E-01 0.92134246E+02</pdfrwt>
<totfact> 0.76611065E+04</totfact>
</mgrwt>
</event>
<event>
 7    1  0.3301067E-009  0.1073102E+03  0.7818608E-02  0.1265634E+00
          1   -1    0    0  501    0  0.00000000000E+00  0.00000000000E+00  0.70635464381E+02  0.70635464561E+02  0.50400000000E-02 0. -1.
         -1   -1    0    0    0  501 -0.00000000000E+00 -0.00000000000E+00 -0.40756713623E+02  0.40756713934E+02  0.50400000000E-02 0.  1.
         23    2    1    2    0    0  0.00000000000E+00  0.00000000000E+00  0.29878750758E+02  0.11139217850E+03  0.10731019375E+03 0.  0.
    9000005    2    3    3    0    0  0.51888308539E+02 -0.58743396280E+01  0.21650900938E+02  0.58528183737E+02  0.15161871621E+02 0.  0.
         22    1    3    3    0    0 -0.51888308539E+02  0.58743396280E+01  0.82278498204E+01  0.52863994758E+02  0.00000000000E+00 0. -1.
         22    1    4    4    0    0  0.27923820238E+02 -0.10095619910E+02  0.15184978818E+02  0.33350335227E+02  0.00000000000E+00 0. -1.
         22    1    4    4    0    0  0.23964488301E+02  0.42212802816E+01  0.64659221201E+01  0.25177848510E+02  0.00000000000E+00 0. -1.
<mgrwt>
<rscale>  0 0.10731019E+03</rscale>
<asrwt>0</asrwt>
<pdfrwt beam="1">  1        1 0.10866994E-01 0.10731019E+03</pdfrwt>
<pdfrwt beam="2">  1       -1 0.62702637E-02 0.10731019E+03</pdfrwt>
<totfact> 0.62701410E+04</totfact>
</mgrwt>
</event>
<event>
 7    1  0.3301067E-009  0.8793305E+02  0.7818608E-02  0.1307936E+00
          1   -1    0    0  501    0  0.00000000000E+00  0.00000000000E+00  0.19634406869E+03  0.19634406875E+03  0.50400000000E-02 0. -1.
         -1   -1    0    0    0  501 -0.00000000000E+00 -0.00000000000E+00 -0.98452442604E+01  0.98452455504E+01  0.50400000000E-02 0.  1.
         23    2    1    2    0    0  0.00000000000E+00  0.00000000000E+00  0.18649882443E+03  0.20618931430E+03  0.87933053057E+02 0.  0.
    9000005    2    3    3    0    0  0.95866531779E+01  0.40200853270E+02  0.12393522399E+03  0.13120787245E+03  0.12147161164E+02 0.  0.
         22    1    3    3    0    0 -0.95866531779E+01 -0.40200853270E+02  0.62563600435E+02  0.74981441852E+02  0.00000000000E+00 0.  1.
         22    1    4    4    0    0 -0.18007688677E+01  0.16891443778E+02  0.54423082515E+02  0.57012591170E+02  0.00000000000E+00 0. -1.
         22    1    4    4    0    0  0.11387422046E+02  0.23309409491E+02  0.69512141476E+02  0.74195281281E+02  0.00000000000E+00 0. -1.
<mgrwt>
<rscale>  0 0.87933053E+02</rscale>
<asrwt>0</asrwt>
<pdfrwt beam="1">  1        1 0.30206779E-01 0.87933053E+02</pdfrwt>
<pdfrwt beam="2">  1       -1 0.15146531E-02 0.87933053E+02</pdfrwt>
<totfact> 0.12999166E+05</totfact>
</mgrwt>
</event>
<event>
 7    1  0.3301067E-009  0.9260326E+02  0.7818608E-02  0.1296667E+00
          1   -1    0    0  501    0  0.00000000000E+00  0.00000000000E+00  0.44410873484E+03  0.44410873487E+03  0.50400000000E-02 0. -1.
         -1   -1    0    0    0  501 -0.00000000000E+00 -0.00000000000E+00 -0.48272869754E+01  0.48272896064E+01  0.50400000000E-02 0.  1.
         23    2    1    2    0    0  0.00000000000E+00  0.17763568394E-14  0.43928144787E+03  0.44893602448E+03  0.92603259303E+02 0.  0.
    9000005    2    3    3    0    0 -0.11885154367E+02  0.12603281212E+02  0.42757682160E+03  0.42802913882E+03  0.93223237874E+01 0.  0.
         22    1    3    3    0    0  0.11885154367E+02 -0.12603281212E+02  0.11704626264E+02  0.20906885651E+02  0.00000000000E+00 0.  1.
         22    1    4    4    0    0 -0.53821059733E+00  0.68511796326E+01  0.13223487803E+03  0.13241333505E+03  0.00000000000E+00 0.  1.
         22    1    4    4    0    0 -0.11346943769E+02  0.57521015798E+01  0.29534194357E+03  0.29561580377E+03  0.00000000000E+00 0.  1.
<mgrwt>
<rscale>  0 0.92603259E+02</rscale>
<asrwt>0</asrwt>
<pdfrwt beam="1">  1        1 0.68324402E-01 0.92603259E+02</pdfrwt>
<pdfrwt beam="2">  1       -1 0.74265995E-03 0.92603259E+02</pdfrwt>
<totfact> 0.13155946E+05</totfact>
</mgrwt>
</event>
<event>
 7    1  0.3563905E-009  0.9013684E+02  0.7818608E-02  0.1302521E+00
          1   -1    0    0  501    0  0.00000000000E+00  0.00000000000E+00  0.26989256338E+02  0.26989256808E+02  0.50400000000E-02 0. -1.
         -1   -1    0    0    0  501 -0.00000000000E+00 -0.00000000000E+00 -0.75258177410E+02  0.75258177579E+02  0.50400000000E-02 0.  1.
         23    2    1    2    0    0  0.00000000000E+00 -0.88817841970E-15 -0.48268921073E+02  0.10224743439E+03  0.90136835408E+02 0.  0.
    9000005    2    3    3    0    0 -0.28392938637E+02 -0.60037557792E+01  0.12907023313E+02  0.34537019979E+02  0.13565045166E+02 0.  0.
         22    1    3    3    0    0  0.28392938637E+02  0.60037557792E+01 -0.61175944386E+02  0.67710414408E+02  0.00000000000E+00 0.  1.
         22    1    4    4    0    0 -0.14952688360E+02  0.30599335854E+01  0.94825529649E+01  0.17968441598E+02  0.00000000000E+00 0. -1.
         22    1    4    4    0    0 -0.13440250277E+02 -0.90636893646E+01  0.34244703481E+01  0.16568578381E+02  0.00000000000E+00 0. -1.
<mgrwt>
<rscale>  0 0.90136835E+02</rscale>
<asrwt>0</asrwt>
<pdfrwt beam="1">  1        1 0.41521934E-02 0.90136835E+02</pdfrwt>
<pdfrwt beam="2">  1       -1 0.11578181E-01 0.90136835E+02</pdfrwt>
<totfact> 0.88061817E+04</totfact>
</mgrwt>
</event>
<event>
 7    1  0.3301067E-009  0.9147191E+02  0.7818608E-02  0.1299326E+00
          1   -1    0    0  501    0  0.00000000000E+00  0.00000000000E+00  0.10016382361E+04  0.10016382361E+04  0.50400000000E-02 0. -1.
         -1   -1    0    0    0  501 -0.00000000000E+00 -0.00000000000E+00 -0.20883532178E+01  0.20883592995E+01  0.50400000000E-02 0.  1.
         23    2    1    2    0    0  0.35527136788E-14 -0.35527136788E-14  0.99954988289E+03  0.10037265954E+04  0.91471908081E+02 0.  0.
    9000005    2    3    3    0    0  0.14323681787E+02 -0.29941047282E+02  0.84133768339E+03  0.84207037302E+03  0.11479609823E+02 0.  0.
         22    1    3    3    0    0 -0.14323681787E+02  0.29941047282E+02  0.15821219950E+03  0.16165622240E+03  0.00000000000E+00 0.  1.
         22    1    4    4    0    0  0.58471400990E+01 -0.67315017174E+01  0.34809620880E+03  0.34821038575E+03  0.00000000000E+00 0.  1.
         22    1    4    4    0    0  0.84765416878E+01 -0.23209545565E+02  0.49324147460E+03  0.49385998727E+03  0.00000000000E+00 0.  1.
<mgrwt>
<rscale>  0 0.91471908E+02</rscale>
<asrwt>0</asrwt>
<pdfrwt beam="1">  1        1 0.15409832E+00 0.91471908E+02</pdfrwt>
<pdfrwt beam="2">  1       -1 0.32128531E-03 0.91471908E+02</pdfrwt>
<totfact> 0.13479945E+05</totfact>
</mgrwt>
</event>
<event>
 7    1  0.3301067E-009  0.9090547E+02  0.7818608E-02  0.1300674E+00
         -1   -1    0    0    0  501 -0.00000000000E+00  0.00000000000E+00  0.66328835070E+02  0.66328835261E+02  0.50400000000E-02 0. -1.
          1   -1    0    0  501    0  0.00000000000E+00 -0.00000000000E+00 -0.31147104738E+02  0.31147105145E+02  0.50400000000E-02 0.  1.
         23    2    1    2    0    0 -0.44408920985E-15  0.00000000000E+00  0.35181730332E+02  0.97475940407E+02  0.90905471832E+02 0.  0.
    9000005    2    3    3    0    0  0.24073172929E+01 -0.43969180784E+02  0.25803362487E+02  0.52453303670E+02  0.12101715368E+02 0.  0.
         22    1    3    3    0    0 -0.24073172929E+01  0.43969180784E+02  0.93783678448E+01  0.45022636737E+02  0.00000000000E+00 0. -1.
         22    1    4    4    0    0  0.70228380695E+01 -0.29623205982E+02  0.19251686136E+02  0.36020577539E+02  0.00000000000E+00 0. -1.
         22    1    4    4    0    0 -0.46155207765E+01 -0.14345974802E+02  0.65516763513E+01  0.16432726130E+02  0.00000000000E+00 0. -1.
<mgrwt>
<rscale>  0 0.90905472E+02</rscale>
<asrwt>0</asrwt>
<pdfrwt beam="2">  1        1 0.47918624E-02 0.90905472E+02</pdfrwt>
<pdfrwt beam="1">  1       -1 0.10204436E-01 0.90905472E+02</pdfrwt>
<totfact> 0.87955657E+04</totfact>
</mgrwt>
</event>
<event>
 7    1  0.3301067E-009  0.9660485E+02  0.7818608E-02  0.1287602E+00
         -1   -1    0    0    0  501 -0.00000000000E+00  0.00000000000E+00  0.13783579562E+03  0.13783579572E+03  0.50400000000E-02 0.  1.
          1   -1    0    0  501    0  0.00000000000E+00 -0.00000000000E+00 -0.16926838122E+02  0.16926838872E+02  0.50400000000E-02 0. -1.
         23    2    1    2    0    0  0.00000000000E+00  0.00000000000E+00  0.12090895750E+03  0.15476263459E+03  0.96604850087E+02 0.  0.
    9000005    2    3    3    0    0  0.70996775006E+01 -0.32874241358E+02  0.50065187472E+01  0.34079178908E+02  0.22812364312E+01 0.  0.
         22    1    3    3    0    0 -0.70996775006E+01  0.32874241358E+02  0.11590243876E+03  0.12068345568E+03  0.00000000000E+00 0.  1.
         22    1    4    4    0    0  0.65055837093E+01 -0.31253279696E+02  0.42906636796E+01  0.32210245357E+02  0.00000000000E+00 0. -1.
         22    1    4    4    0    0  0.59409379128E+00 -0.16209616615E+01  0.71585506760E+00  0.18689335512E+01  0.00000000000E+00 0. -1.
<mgrwt>
<rscale>  0 0.96604850E+02</rscale>
<asrwt>0</asrwt>
<pdfrwt beam="2">  1        1 0.26041290E-02 0.96604850E+02</pdfrwt>
<pdfrwt beam="1">  1       -1 0.21205507E-01 0.96604850E+02</pdfrwt>
<totfact> 0.65612051E+04</totfact>
</mgrwt>
</event>
<event>
 7    1  0.3301067E-009  0.9094872E+02  0.7818608E-02  0.1300570E+00
         -1   -1    0    0    0  501 -0.00000000000E+00  0.00000000000E+00  0.25123443086E+02  0.25123443591E+02  0.50400000000E-02 0.  1.
          1   -1    0    0  501    0  0.00000000000E+00 -0.00000000000E+00 -0.82310261716E+02  0.82310261870E+02  0.50400000000E-02 0. -1.
         23    2    1    2    0    0  0.00000000000E+00  0.00000000000E+00 -0.57186818630E+02  0.10743370546E+03  0.90948715462E+02 0.  0.
    9000005    2    3    3    0    0 -0.47685516850E+01 -0.37340269030E+02  0.97669484982E+00  0.38151463316E+02  0.61274337108E+01 0.  0.
         22    1    3    3    0    0  0.47685516850E+01  0.37340269030E+02 -0.58163513480E+02  0.69282242146E+02  0.00000000000E+00 0. -1.
         22    1    4    4    0    0 -0.42988627424E+01 -0.11268977249E+02  0.11240008996E+00  0.12061621073E+02  0.00000000000E+00 0. -1.
         22    1    4    4    0    0 -0.46968894252E+00 -0.26071291781E+02  0.86429475986E+00  0.26089842243E+02  0.00000000000E+00 0. -1.
<mgrwt>
<rscale>  0 0.90948715E+02</rscale>
<asrwt>0</asrwt>
<pdfrwt beam="2">  1        1 0.12663117E-01 0.90948715E+02</pdfrwt>
<pdfrwt beam="1">  1       -1 0.38651452E-02 0.90948715E+02</pdfrwt>
<totfact> 0.10189689E+05</totfact>
</mgrwt>
</event>
<event>
 7    1  0.3301067E-009  0.9313089E+02  0.7818608E-02  0.1295442E+00
          1   -1    0    0  501    0  0.00000000000E+00  0.00000000000E+00  0.28134401216E+02  0.28134401667E+02  0.50400000000E-02 0. -1.
         -1   -1    0    0    0  501 -0.00000000000E+00 -0.00000000000E+00 -0.77070797273E+02  0.77070797438E+02  0.50400000000E-02 0.  1.
         23    2    1    2    0    0 -0.22204460493E-15  0.00000000000E+00 -0.48936396057E+02  0.10520519911E+03  0.93130892080E+02 0.  0.
    9000005    2    3    3    0    0 -0.11295613534E+01 -0.20518356002E+02  0.21030199833E+02  0.32283299909E+02  0.13329039953E+02 0.  0.
         22    1    3    3    0    0  0.11295613534E+01  0.20518356002E+02 -0.69966595890E+02  0.72921899196E+02  0.00000000000E+00 0.  1.
         22    1    4    4    0    0 -0.52832742012E+01 -0.30015164037E+01  0.80655634811E+01  0.10098287047E+02  0.00000000000E+00 0.  1.
         22    1    4    4    0    0  0.41537128478E+01 -0.17516839599E+02  0.12964636352E+02  0.22185012862E+02  0.00000000000E+00 0.  1.
<mgrwt>
<rscale>  0 0.93130892E+02</rscale>
<asrwt>0</asrwt>
<pdfrwt beam="1">  1        1 0.43283695E-02 0.93130892E+02</pdfrwt>
<pdfrwt beam="2">  1       -1 0.11857046E-01 0.93130892E+02</pdfrwt>
<totfact> 0.80681561E+04</totfact>
</mgrwt>
</event>
<event>
 7    1  0.3301067E-009  0.9175639E+02  0.7818608E-02  0.1298653E+00
          1   -1    0    0  501    0  0.00000000000E+00  0.00000000000E+00  0.28413925960E+02  0.28413926407E+02  0.50400000000E-02 0. -1.
         -1   -1    0    0    0  501 -0.00000000000E+00 -0.00000000000E+00 -0.74076660039E+02  0.74076660210E+02  0.50400000000E-02 0.  1.
         23    2    1    2    0    0  0.00000000000E+00  0.00000000000E+00 -0.45662734079E+02  0.10249058662E+03  0.91756389759E+02 0.  0.
    9000005    2    3    3    0    0  0.23285976239E+02 -0.36778264151E+02 -0.35047664210E+02  0.57684815653E+02  0.14294117216E+02 0.  0.
         22    1    3    3    0    0 -0.23285976239E+02  0.36778264151E+02 -0.10615069869E+02  0.44805770964E+02  0.00000000000E+00 0. -1.
         22    1    4    4    0    0  0.10456678498E+02 -0.19130771382E+02 -0.86937698873E+01  0.23471475747E+02  0.00000000000E+00 0. -1.
         22    1    4    4    0    0  0.12829297741E+02 -0.17647492769E+02 -0.26353894323E+02  0.34213339906E+02  0.00000000000E+00 0. -1.
<mgrwt>
<rscale>  0 0.91756390E+02</rscale>
<asrwt>0</asrwt>
<pdfrwt beam="1">  1        1 0.43713733E-02 0.91756390E+02</pdfrwt>
<pdfrwt beam="2">  1       -1 0.11396409E-01 0.91756390E+02</pdfrwt>
<totfact> 0.84365864E+04</totfact>
</mgrwt>
</event>
<event>
 7    1  0.3301067E-009  0.8947584E+02  0.7818608E-02  0.1304126E+00
          1   -1    0    0  501    0  0.00000000000E+00  0.00000000000E+00  0.17984561295E+03  0.17984561302E+03  0.50400000000E-02 0. -1.
         -1   -1    0    0    0  501 -0.00000000000E+00 -0.00000000000E+00 -0.11128885483E+02  0.11128886625E+02  0.50400000000E-02 0.  1.
         23    2    1    2    0    0  0.00000000000E+00  0.00000000000E+00  0.16871672747E+03  0.19097449965E+03  0.89475836893E+02 0.  0.
    9000005    2    3    3    0    0  0.20474950929E+02  0.35690754168E+02  0.55039136669E+02  0.70079304546E+02  0.13738588417E+02 0.  0.
         22    1    3    3    0    0 -0.20474950929E+02 -0.35690754168E+02  0.11367759080E+03  0.12089519510E+03  0.00000000000E+00 0. -1.
         22    1    4    4    0    0  0.10471167567E+02  0.30207131592E+02  0.40778303829E+02  0.51816852591E+02  0.00000000000E+00 0.  1.
         22    1    4    4    0    0  0.10003783362E+02  0.54836225762E+01  0.14260832840E+02  0.18262451955E+02  0.00000000000E+00 0.  1.
<mgrwt>
<rscale>  0 0.89475837E+02</rscale>
<asrwt>0</asrwt>
<pdfrwt beam="1">  1        1 0.27668555E-01 0.89475837E+02</pdfrwt>
<pdfrwt beam="2">  1       -1 0.17121364E-02 0.89475837E+02</pdfrwt>
<totfact> 0.12201826E+05</totfact>
</mgrwt>
</event>
<event>
 7    1  0.3301067E-009  0.8845473E+02  0.7818608E-02  0.1306638E+00
          1   -1    0    0  501    0  0.00000000000E+00  0.00000000000E+00  0.22231644372E+03  0.22231644378E+03  0.50400000000E-02 0. -1.
         -1   -1    0    0    0  501 -0.00000000000E+00 -0.00000000000E+00 -0.87985375847E+01  0.87985390282E+01  0.50400000000E-02 0.  1.
         23    2    1    2    0    0  0.00000000000E+00 -0.71054273576E-14  0.21351790614E+03  0.23111498281E+03  0.88454728742E+02 0.  0.
    9000005    2    3    3    0    0  0.27353221900E+02  0.33396045959E+02  0.11608841392E+03  0.12455044561E+03  0.13145304162E+02 0.  0.
         22    1    3    3    0    0 -0.27353221900E+02 -0.33396045959E+02  0.97429492216E+02  0.10656453720E+03  0.00000000000E+00 0.  1.
         22    1    4    4    0    0  0.67964416668E+01  0.12307803771E+01  0.15857327949E+02  0.17296279639E+02  0.00000000000E+00 0. -1.
         22    1    4    4    0    0  0.20556780234E+02  0.32165265582E+02  0.10023108597E+03  0.10725416598E+03  0.00000000000E+00 0. -1.
<mgrwt>
<rscale>  0 0.88454729E+02</rscale>
<asrwt>0</asrwt>
<pdfrwt beam="1">  1        1 0.34202527E-01 0.88454729E+02</pdfrwt>
<pdfrwt beam="2">  1       -1 0.13536214E-02 0.88454729E+02</pdfrwt>
<totfact> 0.13106145E+05</totfact>
</mgrwt>
</event>
<event>
 7    1  0.3301067E-009  0.9012972E+02  0.7818608E-02  0.1302538E+00
          1   -1    0    0  501    0  0.00000000000E+00  0.00000000000E+00  0.38701747812E+02  0.38701748140E+02  0.50400000000E-02 0. -1.
         -1   -1    0    0    0  501 -0.00000000000E+00 -0.00000000000E+00 -0.52474158247E+02  0.52474158489E+02  0.50400000000E-02 0.  1.
         23    2    1    2    0    0  0.00000000000E+00  0.00000000000E+00 -0.13772410435E+02  0.91175906629E+02  0.90129721294E+02 0.  0.
    9000005    2    3    3    0    0 -0.11369238239E+02 -0.23863091819E+02  0.28089961104E+02  0.41666666278E+02  0.15759391948E+02 0.  0.
         22    1    3    3    0    0  0.11369238239E+02  0.23863091819E+02 -0.41862371539E+02  0.49509240351E+02  0.00000000000E+00 0.  1.
         22    1    4    4    0    0  0.54383620767E+00 -0.64236760541E+01 -0.94185276450E-01  0.64473438511E+01  0.00000000000E+00 0. -1.
         22    1    4    4    0    0 -0.11913074447E+02 -0.17439415765E+02  0.28184146380E+02  0.35219322427E+02  0.00000000000E+00 0. -1.
<mgrwt>
<rscale>  0 0.90129721E+02</rscale>
<asrwt>0</asrwt>
<pdfrwt beam="1">  1        1 0.59541151E-02 0.90129721E+02</pdfrwt>
<pdfrwt beam="2">  1       -1 0.80729475E-02 0.90129721E+02</pdfrwt>
<totfact> 0.93200992E+04</totfact>
</mgrwt>
</event>
<event>
 7    1  0.3301067E-009  0.9121922E+02  0.7818608E-02  0.1299926E+00
         -1   -1    0    0    0  501 -0.00000000000E+00  0.00000000000E+00  0.85691558505E+02  0.85691558653E+02  0.50400000000E-02 0.  1.
          1   -1    0    0  501    0  0.00000000000E+00 -0.00000000000E+00 -0.24275864067E+02  0.24275864591E+02  0.50400000000E-02 0. -1.
         23    2    1    2    0    0 -0.35527136788E-14  0.00000000000E+00  0.61415694438E+02  0.10996742324E+03  0.91219223038E+02 0.  0.
    9000005    2    3    3    0    0 -0.31184522847E+02 -0.53778757273E+01  0.69372958339E+02  0.77337466742E+02  0.12925958409E+02 0.  0.
         22    1    3    3    0    0  0.31184522847E+02  0.53778757273E+01 -0.79572639013E+01  0.32629956502E+02  0.00000000000E+00 0. -1.
         22    1    4    4    0    0 -0.31897678118E+02 -0.38863335728E+01  0.62600087222E+02  0.70365732983E+02  0.00000000000E+00 0.  1.
         22    1    4    4    0    0  0.71315527145E+00 -0.14915421545E+01  0.67728711167E+01  0.69717337588E+01  0.00000000000E+00 0.  1.
<mgrwt>
<rscale>  0 0.91219223E+02</rscale>
<asrwt>0</asrwt>
<pdfrwt beam="2">  1        1 0.37347484E-02 0.91219223E+02</pdfrwt>
<pdfrwt beam="1">  1       -1 0.13183317E-01 0.91219223E+02</pdfrwt>
<totfact> 0.83559766E+04</totfact>
</mgrwt>
</event>
<event>
 7    1  0.3301067E-009  0.1025476E+03  0.7818608E-02  0.1275028E+00
          1   -1    0    0  501    0  0.00000000000E+00  0.00000000000E+00  0.34342881503E+02  0.34342881873E+02  0.50400000000E-02 0. -1.
         -1   -1    0    0    0  501 -0.00000000000E+00 -0.00000000000E+00 -0.76551584724E+02  0.76551584890E+02  0.50400000000E-02 0.  1.
         23    2    1    2    0    0 -0.35527136788E-14  0.35527136788E-14 -0.42208703221E+02  0.11089446676E+03  0.10254758959E+03 0.  0.
    9000005    2    3    3    0    0 -0.18455048986E+02  0.17795311868E+02 -0.68117270795E+02  0.74445655653E+02  0.15650275000E+02 0.  0.
         22    1    3    3    0    0  0.18455048986E+02 -0.17795311868E+02  0.25908567574E+02  0.36448811110E+02  0.00000000000E+00 0. -1.
         22    1    4    4    0    0 -0.18937659343E+02  0.85511823288E+01 -0.47407935533E+02  0.51761665469E+02  0.00000000000E+00 0.  1.
         22    1    4    4    0    0  0.48261035736E+00  0.92441295394E+01 -0.20709335261E+02  0.22683990184E+02  0.00000000000E+00 0.  1.
<mgrwt>
<rscale>  0 0.10254759E+03</rscale>
<asrwt>0</asrwt>
<pdfrwt beam="1">  1        1 0.52835203E-02 0.10254759E+03</pdfrwt>
<pdfrwt beam="2">  1       -1 0.11777167E-01 0.10254759E+03</pdfrwt>
<totfact> 0.63120036E+04</totfact>
</mgrwt>
</event>
<event>
 7    1  0.3301067E-009  0.9174157E+02  0.7818608E-02  0.1298688E+00
         -1   -1    0    0    0  501 -0.00000000000E+00  0.00000000000E+00  0.13626141049E+02  0.13626141981E+02  0.50400000000E-02 0.  1.
          1   -1    0    0  501    0  0.00000000000E+00 -0.00000000000E+00 -0.15441853509E+03  0.15441853517E+03  0.50400000000E-02 0. -1.
         23    2    1    2    0    0  0.00000000000E+00  0.00000000000E+00 -0.14079239404E+03  0.16804467715E+03  0.91741568004E+02 0.  0.
    9000005    2    3    3    0    0  0.34360771127E+02 -0.27762554706E+02 -0.91406891457E+02  0.10178496163E+03  0.73168689487E+01 0.  0.
         22    1    3    3    0    0 -0.34360771127E+02  0.27762554706E+02 -0.49385502584E+02  0.66259715527E+02  0.00000000000E+00 0.  1.
         22    1    4    4    0    0  0.11884697094E+02 -0.13472974149E+02 -0.41327449129E+02  0.45063567424E+02  0.00000000000E+00 0.  1.
         22    1    4    4    0    0  0.22476074032E+02 -0.14289580557E+02 -0.50079442328E+02  0.56721394203E+02  0.00000000000E+00 0.  1.
<mgrwt>
<rscale>  0 0.91741568E+02</rscale>
<asrwt>0</asrwt>
<pdfrwt beam="2">  1        1 0.23756696E-01 0.91741568E+02</pdfrwt>
<pdfrwt beam="1">  1       -1 0.20963296E-02 0.91741568E+02</pdfrwt>
<totfact> 0.11087121E+05</totfact>
</mgrwt>
</event>
<event>
 7    1  0.3301067E-009  0.9062502E+02  0.7818608E-02  0.1301345E+00
          1   -1    0    0  501    0  0.00000000000E+00  0.00000000000E+00  0.18655458927E+03  0.18655458934E+03  0.50400000000E-02 0. -1.
         -1   -1    0    0    0  501 -0.00000000000E+00 -0.00000000000E+00 -0.11006019379E+02  0.11006020533E+02  0.50400000000E-02 0.  1.
         23    2    1    2    0    0  0.00000000000E+00  0.17763568394E-14  0.17554856989E+03  0.19756060987E+03  0.90625019624E+02 0.  0.
    9000005    2    3    3    0    0  0.20241794001E+02  0.13758574392E+02  0.17064444991E+03  0.17259905971E+03  0.84781208674E+01 0.  0.
         22    1    3    3    0    0 -0.20241794001E+02 -0.13758574392E+02  0.49041199795E+01  0.24961550161E+02  0.00000000000E+00 0.  1.
         22    1    4    4    0    0  0.15781735594E+02  0.77858070828E+01  0.13781272554E+03  0.13893174328E+03  0.00000000000E+00 0.  1.
         22    1    4    4    0    0  0.44600584063E+01  0.59727673092E+01  0.32831724371E+02  0.33667316428E+02  0.00000000000E+00 0.  1.
<mgrwt>
<rscale>  0 0.90625020E+02</rscale>
<asrwt>0</asrwt>
<pdfrwt beam="1">  1        1 0.28700705E-01 0.90625020E+02</pdfrwt>
<pdfrwt beam="2">  1       -1 0.16932339E-02 0.90625020E+02</pdfrwt>
<totfact> 0.11874348E+05</totfact>
</mgrwt>
</event>
<event>
 7    1  0.3301067E-009  0.9186465E+02  0.7818608E-02  0.1298398E+00
          1   -1    0    0  501    0  0.00000000000E+00  0.00000000000E+00  0.13316572420E+02  0.13316573374E+02  0.50400000000E-02 0. -1.
         -1   -1    0    0    0  501 -0.00000000000E+00 -0.00000000000E+00 -0.15843253452E+03  0.15843253460E+03  0.50400000000E-02 0.  1.
         23    2    1    2    0    0 -0.17763568394E-14 -0.88817841970E-15 -0.14511596210E+03  0.17174910797E+03  0.91864648445E+02 0.  0.
    9000005    2    3    3    0    0 -0.10652596233E+02 -0.57214659160E+01 -0.15522910511E+03  0.15598558551E+03  0.94453604242E+01 0.  0.
         22    1    3    3    0    0  0.10652596233E+02  0.57214659160E+01  0.10113143017E+02  0.15763522462E+02  0.00000000000E+00 0. -1.
         22    1    4    4    0    0 -0.23639412938E+01  0.41930284470E+00 -0.70447638800E+01  0.74426293365E+01  0.00000000000E+00 0.  1.
         22    1    4    4    0    0 -0.82886549395E+01 -0.61407687607E+01 -0.14818434123E+03  0.14854295617E+03  0.00000000000E+00 0.  1.
<mgrwt>
<rscale>  0 0.91864648E+02</rscale>
<asrwt>0</asrwt>
<pdfrwt beam="1">  1        1 0.20487036E-02 0.91864648E+02</pdfrwt>
<pdfrwt beam="2">  1       -1 0.24374235E-01 0.91864648E+02</pdfrwt>
<totfact> 0.72391228E+04</totfact>
</mgrwt>
</event>
<event>
 7    1  0.3301067E-009  0.9233851E+02  0.7818608E-02  0.1297285E+00
          1   -1    0    0  501    0  0.00000000000E+00  0.00000000000E+00  0.43416380241E+02  0.43416380534E+02  0.50400000000E-02 0. -1.
         -1   -1    0    0    0  501 -0.00000000000E+00 -0.00000000000E+00 -0.49096678958E+02  0.49096679217E+02  0.50400000000E-02 0.  1.
         23    2    1    2    0    0 -0.35527136788E-14  0.00000000000E+00 -0.56802987174E+01  0.92513059751E+02  0.92338510010E+02 0.  0.
    9000005    2    3    3    0    0 -0.20684638889E+02 -0.35677598420E+02  0.15133227930E+02  0.46318382498E+02  0.14684435797E+02 0.  0.
         22    1    3    3    0    0  0.20684638889E+02  0.35677598420E+02 -0.20813526647E+02  0.46194677253E+02  0.00000000000E+00 0. -1.
         22    1    4    4    0    0 -0.13738989438E+02 -0.13003490614E+02  0.11990588433E+02  0.22396982160E+02  0.00000000000E+00 0.  1.
         22    1    4    4    0    0 -0.69456494507E+01 -0.22674107806E+02  0.31426394969E+01  0.23921400337E+02  0.00000000000E+00 0.  1.
<mgrwt>
<rscale>  0 0.92338510E+02</rscale>
<asrwt>0</asrwt>
<pdfrwt beam="1">  1        1 0.66794432E-02 0.92338510E+02</pdfrwt>
<pdfrwt beam="2">  1       -1 0.75533352E-02 0.92338510E+02</pdfrwt>
<totfact> 0.88576650E+04</totfact>
</mgrwt>
</event>
<event>
 7    1  0.3301067E-009  0.9169735E+02  0.7818608E-02  0.1298793E+00
         -1   -1    0    0    0  501 -0.00000000000E+00  0.00000000000E+00  0.84158133295E+02  0.84158133446E+02  0.50400000000E-02 0.  1.
          1   -1    0    0  501    0  0.00000000000E+00 -0.00000000000E+00 -0.24977991908E+02  0.24977992416E+02  0.50400000000E-02 0. -1.
         23    2    1    2    0    0  0.44408920985E-15  0.00000000000E+00  0.59180141387E+02  0.10913612586E+03  0.91697354562E+02 0.  0.
    9000005    2    3    3    0    0  0.30018299483E+01 -0.45274311564E+02  0.37230002453E+02  0.58731930899E+02  0.21429778062E+01 0.  0.
         22    1    3    3    0    0 -0.30018299483E+01  0.45274311564E+02  0.21950138935E+02  0.50404194963E+02  0.00000000000E+00 0.  1.
         22    1    4    4    0    0  0.18628452547E+01 -0.17116144698E+02  0.13162579752E+02  0.21672242789E+02  0.00000000000E+00 0. -1.
         22    1    4    4    0    0  0.11389846935E+01 -0.28158166866E+02  0.24067422700E+02  0.37059688110E+02  0.00000000000E+00 0. -1.
<mgrwt>
<rscale>  0 0.91697355E+02</rscale>
<asrwt>0</asrwt>
<pdfrwt beam="2">  1        1 0.38427681E-02 0.91697355E+02</pdfrwt>
<pdfrwt beam="1">  1       -1 0.12947405E-01 0.91697355E+02</pdfrwt>
<totfact> 0.82704407E+04</totfact>
</mgrwt>
</event>
<event>
 7    1  0.3301067E-009  0.9542070E+02  0.7818608E-02  0.1290231E+00
         -1   -1    0    0    0  501 -0.00000000000E+00  0.00000000000E+00  0.24748008733E+03  0.24748008739E+03  0.50400000000E-02 0.  1.
          1   -1    0    0  501    0  0.00000000000E+00 -0.00000000000E+00 -0.91978196468E+01  0.91978210277E+01  0.50400000000E-02 0. -1.
         23    2    1    2    0    0  0.00000000000E+00  0.35527136788E-14  0.23828226769E+03  0.25667790841E+03  0.95420697824E+02 0.  0.
    9000005    2    3    3    0    0 -0.23981323750E+02 -0.31437377640E+02  0.48419896899E+02  0.62742010645E+02  0.53535859437E+01 0.  0.
         22    1    3    3    0    0  0.23981323750E+02  0.31437377640E+02  0.18986237079E+03  0.19393589777E+03  0.00000000000E+00 0.  1.
         22    1    4    4    0    0 -0.37078444242E+01 -0.72508526168E+01  0.12596318828E+02  0.14999674061E+02  0.00000000000E+00 0. -1.
         22    1    4    4    0    0 -0.20273479325E+02 -0.24186525023E+02  0.35823578072E+02  0.47742336584E+02  0.00000000000E+00 0. -1.
<mgrwt>
<rscale>  0 0.95420698E+02</rscale>
<asrwt>0</asrwt>
<pdfrwt beam="2">  1        1 0.14150493E-02 0.95420698E+02</pdfrwt>
<pdfrwt beam="1">  1       -1 0.38073858E-01 0.95420698E+02</pdfrwt>
<totfact> 0.57693813E+04</totfact>
</mgrwt>
</event>
<event>
 7    1  0.3301067E-009  0.9092450E+02  0.7818608E-02  0.1300628E+00
         -1   -1    0    0    0  501 -0.00000000000E+00  0.00000000000E+00  0.12185016015E+03  0.12185016026E+03  0.50400000000E-02 0.  1.
          1   -1    0    0  501    0  0.00000000000E+00 -0.00000000000E+00 -0.16961949416E+02  0.16961950165E+02  0.50400000000E-02 0. -1.
         23    2    1    2    0    0  0.00000000000E+00  0.00000000000E+00  0.10488821074E+03  0.13881211042E+03  0.90924503014E+02 0.  0.
    9000005    2    3    3    0    0  0.61396740840E+01  0.39961929569E+02  0.83357132550E+02  0.93005574420E+02  0.81837591215E+01 0.  0.
         22    1    3    3    0    0 -0.61396740840E+01 -0.39961929569E+02  0.21531078188E+02  0.45806536004E+02  0.00000000000E+00 0. -1.
         22    1    4    4    0    0  0.24502477110E+00  0.25274332399E+02  0.47348382985E+02  0.53672351231E+02  0.00000000000E+00 0.  1.
         22    1    4    4    0    0  0.58946493129E+01  0.14687597170E+02  0.36008749565E+02  0.39333223189E+02  0.00000000000E+00 0.  1.
<mgrwt>
<rscale>  0 0.90924503E+02</rscale>
<asrwt>0</asrwt>
<pdfrwt beam="2">  1        1 0.26095308E-02 0.90924503E+02</pdfrwt>
<pdfrwt beam="1">  1       -1 0.18746178E-01 0.90924503E+02</pdfrwt>
<totfact> 0.78847423E+04</totfact>
</mgrwt>
</event>
<event>
 7    1  0.3301067E-009  0.9310139E+02  0.7818608E-02  0.1295510E+00
         -1   -1    0    0    0  501 -0.00000000000E+00  0.00000000000E+00  0.45067197281E+03  0.45067197284E+03  0.50400000000E-02 0.  1.
          1   -1    0    0  501    0  0.00000000000E+00 -0.00000000000E+00 -0.48083012323E+01  0.48083038738E+01  0.50400000000E-02 0. -1.
         23    2    1    2    0    0  0.00000000000E+00  0.00000000000E+00  0.44586367158E+03  0.45548027672E+03  0.93101390113E+02 0.  0.
    9000005    2    3    3    0    0 -0.38860926748E+02  0.21749550246E+02  0.27862427081E+03  0.28241314600E+03  0.11936757765E+02 0.  0.
         22    1    3    3    0    0  0.38860926748E+02 -0.21749550246E+02  0.16723940077E+03  0.17306713072E+03  0.00000000000E+00 0. -1.
         22    1    4    4    0    0 -0.19348023789E+02  0.12992929806E+02  0.17957707345E+03  0.18108309573E+03  0.00000000000E+00 0. -1.
         22    1    4    4    0    0 -0.19512902959E+02  0.87566204393E+01  0.99047197357E+02  0.10133005027E+03  0.00000000000E+00 0. -1.
<mgrwt>
<rscale>  0 0.93101390E+02</rscale>
<asrwt>0</asrwt>
<pdfrwt beam="2">  1        1 0.73973878E-03 0.93101390E+02</pdfrwt>
<pdfrwt beam="1">  1       -1 0.69334157E-01 0.93101390E+02</pdfrwt>
<totfact> 0.47340552E+04</totfact>
</mgrwt>
</event>
<event>
 7    1  0.3301067E-009  0.9073830E+02  0.7818608E-02  0.1301074E+00
         -1   -1    0    0    0  501 -0.00000000000E+00  0.00000000000E+00  0.54568187447E+03  0.54568187450E+03  0.50400000000E-02 0.  1.
          1   -1    0    0  501    0  0.00000000000E+00 -0.00000000000E+00 -0.37720860658E+01  0.37720894328E+01  0.50400000000E-02 0. -1.
         23    2    1    2    0    0  0.00000000000E+00  0.00000000000E+00  0.54190978841E+03  0.54945396393E+03  0.90738303411E+02 0.  0.
    9000005    2    3    3    0    0  0.60269633223E+01  0.43202499952E+02  0.33557210293E+03  0.33855583511E+03  0.10422904433E+02 0.  0.
         22    1    3    3    0    0 -0.60269633223E+01 -0.43202499952E+02  0.20633768548E+03  0.21089812881E+03  0.00000000000E+00 0. -1.
         22    1    4    4    0    0 -0.10904589943E+01  0.33662987935E+01  0.13688648675E+02  0.14138605692E+02  0.00000000000E+00 0.  1.
         22    1    4    4    0    0  0.71174223166E+01  0.39836201159E+02  0.32188345425E+03  0.32441722942E+03  0.00000000000E+00 0.  1.
<mgrwt>
<rscale>  0 0.90738303E+02</rscale>
<asrwt>0</asrwt>
<pdfrwt beam="2">  1        1 0.58032149E-03 0.90738303E+02</pdfrwt>
<pdfrwt beam="1">  1       -1 0.83951016E-01 0.90738303E+02</pdfrwt>
<totfact> 0.45039079E+04</totfact>
</mgrwt>
</event>
<event>
 7    1  0.3301067E-009  0.9062016E+02  0.7818608E-02  0.1301357E+00
          1   -1    0    0  501    0  0.00000000000E+00  0.00000000000E+00  0.25539088000E+03  0.25539088005E+03  0.50400000000E-02 0. -1.
         -1   -1    0    0    0  501 -0.00000000000E+00 -0.00000000000E+00 -0.80386704605E+01  0.80386720404E+01  0.50400000000E-02 0.  1.
         23    2    1    2    0    0  0.00000000000E+00 -0.35527136788E-14  0.24735220954E+03  0.26342955209E+03  0.90620159735E+02 0.  0.
    9000005    2    3    3    0    0 -0.50303287156E+01  0.19732721907E+02  0.24114081866E+03  0.24213950988E+03  0.82439855604E+01 0.  0.
         22    1    3    3    0    0  0.50303287156E+01 -0.19732721907E+02  0.62113908804E+01  0.21290042215E+02  0.00000000000E+00 0.  1.
         22    1    4    4    0    0 -0.62695432935E+01  0.16434295629E+02  0.22046801436E+03  0.22116857507E+03  0.00000000000E+00 0.  1.
         22    1    4    4    0    0  0.12392145779E+01  0.32984262790E+01  0.20672804304E+02  0.20970934803E+02  0.00000000000E+00 0.  1.
<mgrwt>
<rscale>  0 0.90620160E+02</rscale>
<asrwt>0</asrwt>
<pdfrwt beam="1">  1        1 0.39290897E-01 0.90620160E+02</pdfrwt>
<pdfrwt beam="2">  1       -1 0.12367189E-02 0.90620160E+02</pdfrwt>
<totfact> 0.12623085E+05</totfact>
</mgrwt>
</event>
<event>
 7    1  0.3301067E-009  0.9064123E+02  0.7818608E-02  0.1301306E+00
          1   -1    0    0  501    0  0.00000000000E+00  0.00000000000E+00  0.57657872196E+02  0.57657872416E+02  0.50400000000E-02 0. -1.
         -1   -1    0    0    0  501 -0.00000000000E+00 -0.00000000000E+00 -0.35623203010E+02  0.35623203367E+02  0.50400000000E-02 0.  1.
         23    2    1    2    0    0 -0.35527136788E-14  0.00000000000E+00  0.22034669186E+02  0.93281075783E+02  0.90641229322E+02 0.  0.
    9000005    2    3    3    0    0 -0.19936546416E+02 -0.17466822158E+02 -0.26322425165E+02  0.38136136456E+02  0.76771790308E+01 0.  0.
         22    1    3    3    0    0  0.19936546416E+02  0.17466822158E+02  0.48357094351E+02  0.55144939327E+02  0.00000000000E+00 0. -1.
         22    1    4    4    0    0 -0.20960533062E+00 -0.57954922485E-02  0.49855897379E+00  0.54085953140E+00  0.00000000000E+00 0. -1.
         22    1    4    4    0    0 -0.19726941086E+02 -0.17461026666E+02 -0.26820984139E+02  0.37595276924E+02  0.00000000000E+00 0. -1.
<mgrwt>
<rscale>  0 0.90641229E+02</rscale>
<asrwt>0</asrwt>
<pdfrwt beam="1">  1        1 0.88704419E-02 0.90641229E+02</pdfrwt>
<pdfrwt beam="2">  1       -1 0.54804928E-02 0.90641229E+02</pdfrwt>
<totfact> 0.97372697E+04</totfact>
</mgrwt>
</event>
<event>
 7    1  0.3301067E-009  0.9366625E+02  0.7818608E-02  0.1294209E+00
          1   -1    0    0  501    0  0.00000000000E+00  0.00000000000E+00  0.18739356390E+02  0.18739357067E+02  0.50400000000E-02 0. -1.
         -1   -1    0    0    0  501 -0.00000000000E+00 -0.00000000000E+00 -0.11704465570E+03  0.11704465580E+03  0.50400000000E-02 0.  1.
         23    2    1    2    0    0  0.35527136788E-14 -0.35527136788E-14 -0.98305299306E+02  0.13578401287E+03  0.93666249417E+02 0.  0.
    9000005    2    3    3    0    0  0.27763503014E+02 -0.25424824229E+02 -0.10619224939E+02  0.40358222727E+02  0.99390349985E+01 0.  0.
         22    1    3    3    0    0 -0.27763503014E+02  0.25424824229E+02 -0.87686074367E+02  0.95425790144E+02  0.00000000000E+00 0.  1.
         22    1    4    4    0    0  0.10830501722E+02 -0.77374300799E+01 -0.84724913493E+01  0.15778171677E+02  0.00000000000E+00 0.  1.
         22    1    4    4    0    0  0.16933001292E+02 -0.17687394149E+02 -0.21467335898E+01  0.24580051051E+02  0.00000000000E+00 0.  1.
<mgrwt>
<rscale>  0 0.93666249E+02</rscale>
<asrwt>0</asrwt>
<pdfrwt beam="1">  1        1 0.28829780E-02 0.93666249E+02</pdfrwt>
<pdfrwt beam="2">  1       -1 0.18006870E-01 0.93666249E+02</pdfrwt>
<totfact> 0.73615281E+04</totfact>
</mgrwt>
</event>
<event>
 7    1  0.3301067E-009  0.8953862E+02  0.7818608E-02  0.1303973E+00
          1   -1    0    0  501    0  0.00000000000E+00  0.00000000000E+00  0.61159194585E+02  0.61159194793E+02  0.50400000000E-02 0. -1.
         -1   -1    0    0    0  501 -0.00000000000E+00 -0.00000000000E+00 -0.32771708430E+02  0.32771708818E+02  0.50400000000E-02 0.  1.
         23    2    1    2    0    0  0.00000000000E+00 -0.17763568394E-14  0.28387486155E+02  0.93930903610E+02  0.89538624531E+02 0.  0.
    9000005    2    3    3    0    0  0.22980992348E+02 -0.12388067190E+02 -0.22629043597E+02  0.36622295829E+02  0.12146140112E+02 0.  0.
         22    1    3    3    0    0 -0.22980992348E+02  0.12388067190E+02  0.51016529751E+02  0.57308607782E+02  0.00000000000E+00 0.  1.
         22    1    4    4    0    0  0.21079167828E+02 -0.11307867977E+02 -0.24123994563E+02  0.33973023242E+02  0.00000000000E+00 0.  1.
         22    1    4    4    0    0  0.19018245202E+01 -0.10801992136E+01  0.14949509665E+01  0.26492725867E+01  0.00000000000E+00 0.  1.
<mgrwt>
<rscale>  0 0.89538625E+02</rscale>
<asrwt>0</asrwt>
<pdfrwt beam="1">  1        1 0.94091067E-02 0.89538625E+02</pdfrwt>
<pdfrwt beam="2">  1       -1 0.50418014E-02 0.89538625E+02</pdfrwt>
<totfact> 0.10162119E+05</totfact>
</mgrwt>
</event>
<event>
 7    1  0.3301067E-009  0.8822144E+02  0.7818608E-02  0.1307217E+00
         -1   -1    0    0    0  501 -0.00000000000E+00  0.00000000000E+00  0.24330642115E+02  0.24330642637E+02  0.50400000000E-02 0.  1.
          1   -1    0    0  501    0  0.00000000000E+00 -0.00000000000E+00 -0.79971394606E+02  0.79971394765E+02  0.50400000000E-02 0. -1.
         23    2    1    2    0    0  0.71054273576E-14  0.00000000000E+00 -0.55640752491E+02  0.10430203740E+03  0.88221435425E+02 0.  0.
    9000005    2    3    3    0    0  0.42905697491E+02 -0.18367210345E+01 -0.30219030146E+02  0.54396763249E+02  0.14196677343E+02 0.  0.
         22    1    3    3    0    0 -0.42905697491E+02  0.18367210345E+01 -0.25421722345E+02  0.49905274154E+02  0.00000000000E+00 0.  1.
         22    1    4    4    0    0  0.97624932280E+01  0.56970548406E+00 -0.14858741822E+02  0.17788002892E+02  0.00000000000E+00 0. -1.
         22    1    4    4    0    0  0.33143204263E+02 -0.24064265185E+01 -0.15360288324E+02  0.36608760356E+02  0.00000000000E+00 0. -1.
<mgrwt>
<rscale>  0 0.88221435E+02</rscale>
<asrwt>0</asrwt>
<pdfrwt beam="2">  1        1 0.12303291E-01 0.88221435E+02</pdfrwt>
<pdfrwt beam="1">  1       -1 0.37431758E-02 0.88221435E+02</pdfrwt>
<totfact> 0.11024365E+05</totfact>
</mgrwt>
</event>
<event>
 7    1  0.3301067E-009  0.9310196E+02  0.7818608E-02  0.1295509E+00
         -1   -1    0    0    0  501 -0.00000000000E+00  0.00000000000E+00  0.41988647686E+02  0.41988647988E+02  0.50400000000E-02 0.  1.
          1   -1    0    0  501    0  0.00000000000E+00 -0.00000000000E+00 -0.51609043064E+02  0.51609043311E+02  0.50400000000E-02 0. -1.
         23    2    1    2    0    0  0.00000000000E+00  0.00000000000E+00 -0.96203953789E+01  0.93597691299E+02  0.93101964583E+02 0.  0.
    9000005    2    3    3    0    0 -0.25437428806E+02 -0.36328128056E+02  0.69058440241E+01  0.46269979954E+02  0.11243873486E+02 0.  0.
         22    1    3    3    0    0  0.25437428806E+02  0.36328128056E+02 -0.16526239403E+02  0.47327711344E+02  0.00000000000E+00 0.  1.
         22    1    4    4    0    0 -0.16760936007E+02 -0.26980980132E+02  0.97053238798E+01  0.33212882686E+02  0.00000000000E+00 0.  1.
         22    1    4    4    0    0 -0.86764927994E+01 -0.93471479240E+01 -0.27994798556E+01  0.13057097268E+02  0.00000000000E+00 0.  1.
<mgrwt>
<rscale>  0 0.93101965E+02</rscale>
<asrwt>0</asrwt>
<pdfrwt beam="2">  1        1 0.79398528E-02 0.93101965E+02</pdfrwt>
<pdfrwt beam="1">  1       -1 0.64597920E-02 0.93101965E+02</pdfrwt>
<totfact> 0.88859705E+04</totfact>
</mgrwt>
</event>
<event>
 7    1  0.3301067E-009  0.8463459E+02  0.7818608E-02  0.1316391E+00
         -1   -1    0    0    0  501 -0.00000000000E+00  0.00000000000E+00  0.53603546096E+02  0.53603546333E+02  0.50400000000E-02 0.  1.
          1   -1    0    0  501    0  0.00000000000E+00 -0.00000000000E+00 -0.33407369670E+02  0.33407370050E+02  0.50400000000E-02 0. -1.
         23    2    1    2    0    0  0.00000000000E+00  0.00000000000E+00  0.20196176427E+02  0.87010916383E+02  0.84634591200E+02 0.  0.
    9000005    2    3    3    0    0  0.32827632510E+02  0.25374097584E+02  0.16458679492E+02  0.45351977753E+02  0.80259249337E+01 0.  0.
         22    1    3    3    0    0 -0.32827632510E+02 -0.25374097584E+02  0.37374969347E+01  0.41658938630E+02  0.00000000000E+00 0. -1.
         22    1    4    4    0    0  0.27480775162E+00  0.11867161046E+01  0.19117356754E+01  0.22668364974E+01  0.00000000000E+00 0. -1.
         22    1    4    4    0    0  0.32552824759E+02  0.24187381480E+02  0.14546943817E+02  0.43085141256E+02  0.00000000000E+00 0. -1.
<mgrwt>
<rscale>  0 0.84634591E+02</rscale>
<asrwt>0</asrwt>
<pdfrwt beam="2">  1        1 0.51395954E-02 0.84634591E+02</pdfrwt>
<pdfrwt beam="1">  1       -1 0.82466993E-02 0.84634591E+02</pdfrwt>
<totfact> 0.10887254E+05</totfact>
</mgrwt>
</event>
<event>
 7    1  0.3301067E-009  0.9216559E+02  0.7818608E-02  0.1297691E+00
         -1   -1    0    0    0  501 -0.00000000000E+00  0.00000000000E+00  0.11681311051E+01  0.11681419778E+01  0.50400000000E-02 0.  1.
          1   -1    0    0  501    0  0.00000000000E+00 -0.00000000000E+00 -0.18179588627E+04  0.18179588627E+04  0.50400000000E-02 0. -1.
         23    2    1    2    0    0  0.00000000000E+00 -0.88817841970E-15 -0.18167907316E+04  0.18191270047E+04  0.92165594254E+02 0.  0.
    9000005    2    3    3    0    0  0.19651851625E+02  0.58819742283E+01 -0.17224277596E+04  0.17225601192E+04  0.59316304306E+01 0.  0.
         22    1    3    3    0    0 -0.19651851625E+02 -0.58819742283E+01 -0.94362971957E+02  0.96566885471E+02  0.00000000000E+00 0.  1.
         22    1    4    4    0    0  0.18307780845E+02  0.35367861163E+01 -0.15155911872E+04  0.15157058852E+04  0.00000000000E+00 0. -1.
         22    1    4    4    0    0  0.13440707801E+01  0.23451881119E+01 -0.20683657241E+03  0.20685423399E+03  0.00000000000E+00 0. -1.
<mgrwt>
<rscale>  0 0.92165594E+02</rscale>
<asrwt>0</asrwt>
<pdfrwt beam="2">  1        1 0.27968372E+00 0.92165594E+02</pdfrwt>
<pdfrwt beam="1">  1       -1 0.17971477E-03 0.92165594E+02</pdfrwt>
<totfact> 0.88301861E+04</totfact>
</mgrwt>
</event>
<event>
 7    1  0.3301067E-009  0.8193453E+02  0.7818608E-02  0.1323649E+00
          1   -1    0    0  501    0  0.00000000000E+00  0.00000000000E+00  0.45307014015E+03  0.45307014017E+03  0.50400000000E-02 0.  1.
         -1   -1    0    0    0  501 -0.00000000000E+00 -0.00000000000E+00 -0.37043180653E+01  0.37043214939E+01  0.50400000000E-02 0. -1.
         23    2    1    2    0    0  0.00000000000E+00  0.00000000000E+00  0.44936582208E+03  0.45677446167E+03  0.81934527385E+02 0.  0.
    9000005    2    3    3    0    0  0.21226371822E+01 -0.33877605866E+02  0.34573630432E+03  0.34772734012E+03  0.15116652087E+02 0.  0.
         22    1    3    3    0    0 -0.21226371822E+01  0.33877605866E+02  0.10362951776E+03  0.10904712155E+03  0.00000000000E+00 0. -1.
         22    1    4    4    0    0  0.14609066770E+01 -0.35434766678E+02  0.32942162884E+03  0.33132516729E+03  0.00000000000E+00 0.  1.
         22    1    4    4    0    0  0.66173050521E+00  0.15571608126E+01  0.16314675486E+02  0.16402172822E+02  0.00000000000E+00 0.  1.
<mgrwt>
<rscale>  0 0.81934527E+02</rscale>
<asrwt>0</asrwt>
<pdfrwt beam="1">  1        1 0.69703137E-01 0.81934527E+02</pdfrwt>
<pdfrwt beam="2">  1       -1 0.56989504E-03 0.81934527E+02</pdfrwt>
<totfact> 0.18226086E+05</totfact>
</mgrwt>
</event>
<event>
 7    1  0.3301067E-009  0.1216694E+03  0.7818608E-02  0.1240368E+00
          1   -1    0    0  501    0  0.00000000000E+00  0.00000000000E+00  0.13811230205E+04  0.13811230205E+04  0.50400000000E-02 0. -1.
         -1   -1    0    0    0  501 -0.00000000000E+00 -0.00000000000E+00 -0.26796009009E+01  0.26796056407E+01  0.50400000000E-02 0.  1.
         23    2    1    2    0    0 -0.35527136788E-14  0.00000000000E+00  0.13784434196E+04  0.13838026262E+04  0.12166941729E+03 0.  0.
    9000005    2    3    3    0    0  0.26121182451E+02  0.27432961432E+02  0.12301340221E+04  0.12307321818E+04  0.60915889824E+01 0.  0.
         22    1    3    3    0    0 -0.26121182451E+02 -0.27432961432E+02  0.14830939750E+03  0.15307044435E+03  0.00000000000E+00 0.  1.
         22    1    4    4    0    0  0.10692139432E+02  0.77722017230E+01  0.47985264946E+03  0.48003468016E+03  0.00000000000E+00 0. -1.
         22    1    4    4    0    0  0.15429043019E+02  0.19660759709E+02  0.75028137268E+03  0.75069750168E+03  0.00000000000E+00 0. -1.
<mgrwt>
<rscale>  0 0.12166942E+03</rscale>
<asrwt>0</asrwt>
<pdfrwt beam="1">  1        1 0.21248029E+00 0.12166942E+03</pdfrwt>
<pdfrwt beam="2">  1       -1 0.41224699E-03 0.12166942E+03</pdfrwt>
<totfact> 0.54210299E+04</totfact>
</mgrwt>
</event>
<event>
 7    1  0.3301067E-009  0.9105026E+02  0.7818608E-02  0.1300328E+00
          1   -1    0    0  501    0  0.00000000000E+00  0.00000000000E+00  0.92594072495E+02  0.92594072632E+02  0.50400000000E-02 0. -1.
         -1   -1    0    0    0  501 -0.00000000000E+00 -0.00000000000E+00 -0.22383047459E+02  0.22383048027E+02  0.50400000000E-02 0.  1.
         23    2    1    2    0    0 -0.44408920985E-15  0.00000000000E+00  0.70211025036E+02  0.11497712066E+03  0.91050262155E+02 0.  0.
    9000005    2    3    3    0    0  0.21829045162E+01  0.43624982856E+02  0.21212567202E+02  0.49336027802E+02  0.87273381210E+01 0.  0.
         22    1    3    3    0    0 -0.21829045162E+01 -0.43624982856E+02  0.48998457834E+02  0.65641092857E+02  0.00000000000E+00 0. -1.
         22    1    4    4    0    0 -0.12075334807E+01  0.23364347795E+02  0.15320074117E+02  0.27965256229E+02  0.00000000000E+00 0. -1.
         22    1    4    4    0    0  0.33904379969E+01  0.20260635061E+02  0.58924930855E+01  0.21370771574E+02  0.00000000000E+00 0. -1.
<mgrwt>
<rscale>  0 0.91050262E+02</rscale>
<asrwt>0</asrwt>
<pdfrwt beam="1">  1        1 0.14245242E-01 0.91050262E+02</pdfrwt>
<pdfrwt beam="2">  1       -1 0.34435459E-02 0.91050262E+02</pdfrwt>
<totfact> 0.10352867E+05</totfact>
</mgrwt>
</event>
<event>
 7    1  0.3301067E-009  0.9173596E+02  0.7818608E-02  0.1298701E+00
          1   -1    0    0  501    0  0.00000000000E+00  0.00000000000E+00  0.69042260342E+02  0.69042260526E+02  0.50400000000E-02 0. -1.
         -1   -1    0    0    0  501 -0.00000000000E+00 -0.00000000000E+00 -0.30472231346E+02  0.30472231763E+02  0.50400000000E-02 0.  1.
         23    2    1    2    0    0  0.00000000000E+00  0.88817841970E-15  0.38570028995E+02  0.99514492289E+02  0.91735963716E+02 0.  0.
    9000005    2    3    3    0    0 -0.23250363015E+02  0.67814300117E+01 -0.21013704508E+02  0.35196621743E+02  0.14514104574E+02 0.  0.
         22    1    3    3    0    0  0.23250363015E+02 -0.67814300117E+01  0.59583733504E+02  0.64317870546E+02  0.00000000000E+00 0. -1.
         22    1    4    4    0    0 -0.14761074756E+01 -0.15385050870E+01  0.16418592344E+01  0.26910207966E+01  0.00000000000E+00 0. -1.
         22    1    4    4    0    0 -0.21774255540E+02  0.83199350987E+01 -0.22655563743E+02  0.32505600946E+02  0.00000000000E+00 0. -1.
<mgrwt>
<rscale>  0 0.91735964E+02</rscale>
<asrwt>0</asrwt>
<pdfrwt beam="1">  1        1 0.10621886E-01 0.91735964E+02</pdfrwt>
<pdfrwt beam="2">  1       -1 0.46880356E-02 0.91735964E+02</pdfrwt>
<totfact> 0.96808342E+04</totfact>
</mgrwt>
</event>
<event>
 7    1  0.3301067E-009  0.9242027E+02  0.7818608E-02  0.1297094E+00
          1   -1    0    0  501    0  0.00000000000E+00  0.00000000000E+00  0.29304019137E+03  0.29304019141E+03  0.50400000000E-02 0. -1.
         -1   -1    0    0    0  501 -0.00000000000E+00 -0.00000000000E+00 -0.72869735713E+01  0.72869753143E+01  0.50400000000E-02 0.  1.
         23    2    1    2    0    0  0.00000000000E+00  0.00000000000E+00  0.28575321779E+03  0.30032716672E+03  0.92420266134E+02 0.  0.
    9000005    2    3    3    0    0  0.21293548287E+02 -0.37926469711E+02  0.10588198736E+03  0.11527179166E+03  0.13592586248E+02 0.  0.
         22    1    3    3    0    0 -0.21293548287E+02  0.37926469711E+02  0.17987123043E+03  0.18505537507E+03  0.00000000000E+00 0. -1.
         22    1    4    4    0    0  0.62856637196E+01 -0.22976621214E+02  0.46931472521E+02  0.52630768604E+02  0.00000000000E+00 0. -1.
         22    1    4    4    0    0  0.15007884567E+02 -0.14949848496E+02  0.58950514841E+02  0.62641023054E+02  0.00000000000E+00 0. -1.
<mgrwt>
<rscale>  0 0.92420266E+02</rscale>
<asrwt>0</asrwt>
<pdfrwt beam="1">  1        1 0.45083105E-01 0.92420266E+02</pdfrwt>
<pdfrwt beam="2">  1       -1 0.11210730E-02 0.92420266E+02</pdfrwt>
<totfact> 0.12301931E+05</totfact>
</mgrwt>
</event>
<event>
 7    1  0.3301067E-009  0.9113124E+02  0.7818608E-02  0.1300135E+00
          1   -1    0    0  501    0  0.00000000000E+00  0.00000000000E+00  0.44340989619E+02  0.44340989906E+02  0.50400000000E-02 0. -1.
         -1   -1    0    0    0  501 -0.00000000000E+00 -0.00000000000E+00 -0.46824068425E+02  0.46824068696E+02  0.50400000000E-02 0.  1.
         23    2    1    2    0    0  0.88817841970E-15  0.71054273576E-14 -0.24830788056E+01  0.91165058602E+02  0.91131236300E+02 0.  0.
    9000005    2    3    3    0    0 -0.62327811639E+01 -0.42831519459E+02  0.11901468262E+02  0.45554732857E+02  0.77590024247E+01 0.  0.
         22    1    3    3    0    0  0.62327811639E+01  0.42831519459E+02 -0.14384547067E+02  0.45610325745E+02  0.00000000000E+00 0.  1.
         22    1    4    4    0    0 -0.67112627418E+00 -0.29572476754E+02  0.74633324489E+01  0.30507099552E+02  0.00000000000E+00 0.  1.
         22    1    4    4    0    0 -0.55616548897E+01 -0.13259042705E+02  0.44381358130E+01  0.15047633304E+02  0.00000000000E+00 0.  1.
<mgrwt>
<rscale>  0 0.91131236E+02</rscale>
<asrwt>0</asrwt>
<pdfrwt beam="1">  1        1 0.68216908E-02 0.91131236E+02</pdfrwt>
<pdfrwt beam="2">  1       -1 0.72037029E-02 0.91131236E+02</pdfrwt>
<totfact> 0.92216770E+04</totfact>
</mgrwt>
</event>
<event>
 7    1  0.3301067E-009  0.9587413E+02  0.7818608E-02  0.1289219E+00
         -1   -1    0    0    0  501 -0.00000000000E+00  0.00000000000E+00  0.12628513001E+02  0.12628514007E+02  0.50400000000E-02 0.  1.
          1   -1    0    0  501    0  0.00000000000E+00 -0.00000000000E+00 -0.18196614860E+03  0.18196614867E+03  0.50400000000E-02 0. -1.
         23    2    1    2    0    0  0.35527136788E-14  0.00000000000E+00 -0.16933763560E+03  0.19459466268E+03  0.95874125352E+02 0.  0.
    9000005    2    3    3    0    0 -0.29117221787E+02 -0.17096771742E+02 -0.16874592842E+02  0.38437397026E+02  0.72504757082E+01 0.  0.
         22    1    3    3    0    0  0.29117221787E+02  0.17096771742E+02 -0.15246304276E+03  0.15615726565E+03  0.00000000000E+00 0. -1.
         22    1    4    4    0    0 -0.46298757420E+01 -0.21194822414E+01  0.93389192518E-01  0.50928062892E+01  0.00000000000E+00 0. -1.
         22    1    4    4    0    0 -0.24487346045E+02 -0.14977289501E+02 -0.16967982034E+02  0.33344590737E+02  0.00000000000E+00 0. -1.
<mgrwt>
<rscale>  0 0.95874125E+02</rscale>
<asrwt>0</asrwt>
<pdfrwt beam="2">  1        1 0.27994790E-01 0.95874125E+02</pdfrwt>
<pdfrwt beam="1">  1       -1 0.19428484E-02 0.95874125E+02</pdfrwt>
<totfact> 0.10154056E+05</totfact>
</mgrwt>
</event>
<event>
 7    1  0.3301067E-009  0.9260022E+02  0.7818608E-02  0.1296674E+00
         -1   -1    0    0    0  501 -0.00000000000E+00  0.00000000000E+00  0.72457578029E+01  0.72457595558E+01  0.50400000000E-02 0.  1.
          1   -1    0    0  501    0  0.00000000000E+00 -0.00000000000E+00 -0.29585588860E+03  0.29585588865E+03  0.50400000000E-02 0. -1.
         23    2    1    2    0    0 -0.71054273576E-14  0.00000000000E+00 -0.28861013080E+03  0.30310164820E+03  0.92600224310E+02 0.  0.
    9000005    2    3    3    0    0  0.38761684774E+02 -0.15662229180E+02 -0.20873330815E+03  0.21294578080E+03  0.53420971676E+01 0.  0.
         22    1    3    3    0    0 -0.38761684774E+02  0.15662229180E+02 -0.79876822655E+02  0.90155867401E+02  0.00000000000E+00 0.  1.
         22    1    4    4    0    0  0.23537660861E+02 -0.10411956268E+02 -0.14049116436E+03  0.14282926022E+03  0.00000000000E+00 0.  1.
         22    1    4    4    0    0  0.15224023913E+02 -0.52502729116E+01 -0.68242143785E+02  0.70116520579E+02  0.00000000000E+00 0.  1.
<mgrwt>
<rscale>  0 0.92600224E+02</rscale>
<asrwt>0</asrwt>
<pdfrwt beam="2">  1        1 0.45516282E-01 0.92600224E+02</pdfrwt>
<pdfrwt beam="1">  1       -1 0.11147323E-02 0.92600224E+02</pdfrwt>
<totfact> 0.12260691E+05</totfact>
</mgrwt>
</event>
<event>
 7    1  0.3301067E-009  0.9230667E+02  0.7818608E-02  0.1297360E+00
          1   -1    0    0  501    0  0.00000000000E+00  0.00000000000E+00  0.96964139436E+03  0.96964139437E+03  0.50400000000E-02 0. -1.
         -1   -1    0    0    0  501 -0.00000000000E+00 -0.00000000000E+00 -0.21968201062E+01  0.21968258876E+01  0.50400000000E-02 0.  1.
         23    2    1    2    0    0  0.00000000000E+00  0.00000000000E+00  0.96744457426E+03  0.97183822026E+03  0.92306674224E+02 0.  0.
    9000005    2    3    3    0    0  0.29239757332E+02 -0.13268779209E+02  0.82965352106E+03  0.83035536529E+03  0.11577726351E+02 0.  0.
         22    1    3    3    0    0 -0.29239757332E+02  0.13268779209E+02  0.13779105319E+03  0.14148285497E+03  0.00000000000E+00 0.  1.
         22    1    4    4    0    0  0.25775716430E+02 -0.10517113169E+02  0.58517236806E+03  0.58583418948E+03  0.00000000000E+00 0. -1.
         22    1    4    4    0    0  0.34640409015E+01 -0.27516660398E+01  0.24448115301E+03  0.24452117581E+03  0.00000000000E+00 0. -1.
<mgrwt>
<rscale>  0 0.92306674E+02</rscale>
<asrwt>0</asrwt>
<pdfrwt beam="1">  1        1 0.14917577E+00 0.92306674E+02</pdfrwt>
<pdfrwt beam="2">  1       -1 0.33797238E-03 0.92306674E+02</pdfrwt>
<totfact> 0.13267970E+05</totfact>
</mgrwt>
</event>
<event>
 7    1  0.3301067E-009  0.9087293E+02  0.7818608E-02  0.1300751E+00
          1   -1    0    0  501    0  0.00000000000E+00  0.00000000000E+00  0.33947436589E+02  0.33947436963E+02  0.50400000000E-02 0. -1.
         -1   -1    0    0    0  501 -0.00000000000E+00 -0.00000000000E+00 -0.60813794812E+02  0.60813795021E+02  0.50400000000E-02 0.  1.
         23    2    1    2    0    0  0.00000000000E+00  0.00000000000E+00 -0.26866358223E+02  0.94761231985E+02  0.90872932621E+02 0.  0.
    9000005    2    3    3    0    0 -0.23263751315E+02 -0.21809062047E+02  0.18493272932E+02  0.39314559847E+02  0.13667339158E+02 0.  0.
         22    1    3    3    0    0  0.23263751315E+02  0.21809062047E+02 -0.45359631155E+02  0.55446672137E+02  0.00000000000E+00 0.  1.
         22    1    4    4    0    0 -0.18382402478E+02 -0.23215109745E+02  0.15929453755E+02  0.33624418780E+02  0.00000000000E+00 0.  1.
         22    1    4    4    0    0 -0.48813488366E+01  0.14060476985E+01  0.25638191770E+01  0.56901410674E+01  0.00000000000E+00 0.  1.
<mgrwt>
<rscale>  0 0.90872933E+02</rscale>
<asrwt>0</asrwt>
<pdfrwt beam="1">  1        1 0.52226826E-02 0.90872933E+02</pdfrwt>
<pdfrwt beam="2">  1       -1 0.93559685E-02 0.90872933E+02</pdfrwt>
<totfact> 0.89247024E+04</totfact>
</mgrwt>
</event>
<event>
 7    1  0.3301067E-009  0.1173425E+03  0.7818608E-02  0.1247547E+00
          1   -1    0    0  501    0  0.00000000000E+00  0.00000000000E+00  0.27458881016E+02  0.27458881478E+02  0.50400000000E-02 0. -1.
         -1   -1    0    0    0  501 -0.00000000000E+00 -0.00000000000E+00 -0.12536261098E+03  0.12536261108E+03  0.50400000000E-02 0.  1.
         23    2    1    2    0    0 -0.71054273576E-14  0.00000000000E+00 -0.97903729960E+02  0.15282149256E+03  0.11734252531E+03 0.  0.
    9000005    2    3    3    0    0  0.43396959991E+02  0.19366169156E+02 -0.59234825721E+01  0.49290286855E+02  0.11666194246E+02 0.  0.
         22    1    3    3    0    0 -0.43396959991E+02 -0.19366169156E+02 -0.91980247388E+02  0.10353120570E+03  0.00000000000E+00 0.  1.
         22    1    4    4    0    0  0.15182649651E+02  0.31065810744E+01 -0.62875351068E+01  0.16724138068E+02  0.00000000000E+00 0. -1.
         22    1    4    4    0    0  0.28214310340E+02  0.16259588081E+02  0.36405253474E+00  0.32566148787E+02  0.00000000000E+00 0. -1.
<mgrwt>
<rscale>  0 0.11734253E+03</rscale>
<asrwt>0</asrwt>
<pdfrwt beam="1">  1        1 0.42244433E-02 0.11734253E+03</pdfrwt>
<pdfrwt beam="2">  1       -1 0.19286555E-01 0.11734253E+03</pdfrwt>
<totfact> 0.40387508E+04</totfact>
</mgrwt>
</event>
<event>
 7    1  0.3301067E-009  0.9380532E+02  0.7818608E-02  0.1293890E+00
         -1   -1    0    0    0  501 -0.00000000000E+00  0.00000000000E+00  0.22685190769E+01  0.22685246757E+01  0.50400000000E-02 0.  1.
          1   -1    0    0  501    0  0.00000000000E+00 -0.00000000000E+00 -0.96973249771E+03  0.96973249772E+03  0.50400000000E-02 0. -1.
         23    2    1    2    0    0  0.00000000000E+00  0.00000000000E+00 -0.96746397863E+03  0.97200102240E+03  0.93805317502E+02 0.  0.
    9000005    2    3    3    0    0  0.44396849454E+01 -0.16623698499E+02 -0.93491672890E+03  0.93518551453E+03  0.14373533341E+02 0.  0.
         22    1    3    3    0    0 -0.44396849454E+01  0.16623698499E+02 -0.32547249730E+02  0.36815507863E+02  0.00000000000E+00 0.  1.
         22    1    4    4    0    0  0.65143135086E+01 -0.57938941249E+01 -0.64539407148E+03  0.64545295180E+03  0.00000000000E+00 0.  1.
         22    1    4    4    0    0 -0.20746285633E+01 -0.10829804375E+02 -0.28952265742E+03  0.28973256273E+03  0.00000000000E+00 0.  1.
<mgrwt>
<rscale>  0 0.93805318E+02</rscale>
<asrwt>0</asrwt>
<pdfrwt beam="2">  1        1 0.14918928E+00 0.93805318E+02</pdfrwt>
<pdfrwt beam="1">  1       -1 0.34900414E-03 0.93805318E+02</pdfrwt>
<totfact> 0.12713667E+05</totfact>
</mgrwt>
</event>
<event>
 7    1  0.3301067E-009  0.9122879E+02  0.7818608E-02  0.1299903E+00
          1   -1    0    0  501    0  0.00000000000E+00  0.00000000000E+00  0.31082760662E+03  0.31082760666E+03  0.50400000000E-02 0. -1.
         -1   -1    0    0    0  501 -0.00000000000E+00 -0.00000000000E+00 -0.66939772141E+01  0.66939791115E+01  0.50400000000E-02 0.  1.
         23    2    1    2    0    0 -0.71054273576E-14  0.00000000000E+00  0.30413362940E+03  0.31752158577E+03  0.91228794225E+02 0.  0.
    9000005    2    3    3    0    0  0.40274055121E+02 -0.19281726852E+02  0.15601539025E+03  0.16281929982E+03  0.13249071466E+02 0.  0.
         22    1    3    3    0    0 -0.40274055121E+02  0.19281726852E+02  0.14811823915E+03  0.15470228594E+03  0.00000000000E+00 0. -1.
         22    1    4    4    0    0  0.17982644190E+02 -0.15770592642E+02  0.75172155945E+02  0.78885614112E+02  0.00000000000E+00 0. -1.
         22    1    4    4    0    0  0.22291410931E+02 -0.35111342102E+01  0.80843234302E+02  0.83933685712E+02  0.00000000000E+00 0. -1.
<mgrwt>
<rscale>  0 0.91228794E+02</rscale>
<asrwt>0</asrwt>
<pdfrwt beam="1">  1        1 0.47819637E-01 0.91228794E+02</pdfrwt>
<pdfrwt beam="2">  1       -1 0.10298427E-02 0.91228794E+02</pdfrwt>
<totfact> 0.12879039E+05</totfact>
</mgrwt>
</event>
<event>
 7    1  0.3301067E-009  0.8811066E+02  0.7818608E-02  0.1307493E+00
          1   -1    0    0  501    0  0.00000000000E+00  0.00000000000E+00  0.97562593410E+01  0.97562606428E+01  0.50400000000E-02 0.  1.
         -1   -1    0    0    0  501 -0.00000000000E+00 -0.00000000000E+00 -0.19893605441E+03  0.19893605447E+03  0.50400000000E-02 0. -1.
         23    2    1    2    0    0  0.00000000000E+00  0.35527136788E-14 -0.18917979507E+03  0.20869231511E+03  0.88110655010E+02 0.  0.
    9000005    2    3    3    0    0  0.97339229499E+01  0.29033752897E+02 -0.16853599620E+03  0.17176164365E+03  0.12648009740E+02 0.  0.
         22    1    3    3    0    0 -0.97339229499E+01 -0.29033752897E+02 -0.20643798867E+02  0.36930671466E+02  0.00000000000E+00 0.  1.
         22    1    4    4    0    0 -0.22472487017E+00  0.17207325646E+02 -0.10291741862E+03  0.10434623909E+03  0.00000000000E+00 0.  1.
         22    1    4    4    0    0  0.99586478201E+01  0.11826427251E+02 -0.65618577578E+02  0.67415404555E+02  0.00000000000E+00 0.  1.
<mgrwt>
<rscale>  0 0.88110655E+02</rscale>
<asrwt>0</asrwt>
<pdfrwt beam="1">  1        1 0.15009632E-02 0.88110655E+02</pdfrwt>
<pdfrwt beam="2">  1       -1 0.30605544E-01 0.88110655E+02</pdfrwt>
<totfact> 0.75999838E+04</totfact>
</mgrwt>
</event>
<event>
 7    1  0.3301067E-009  0.8818656E+02  0.7818608E-02  0.1307304E+00
          1   -1    0    0  501    0  0.00000000000E+00  0.00000000000E+00  0.68834358769E+02  0.68834358953E+02  0.50400000000E-02 0. -1.
         -1   -1    0    0    0  501 -0.00000000000E+00 -0.00000000000E+00 -0.28244864392E+02  0.28244864841E+02  0.50400000000E-02 0.  1.
         23    2    1    2    0    0  0.22204460493E-15  0.00000000000E+00  0.40589494377E+02  0.97079223794E+02  0.88186555884E+02 0.  0.
    9000005    2    3    3    0    0 -0.13624221396E+01 -0.35945818970E+02  0.47546634506E+02  0.60440993839E+02  0.99233657519E+01 0.  0.
         22    1    3    3    0    0  0.13624221396E+01  0.35945818970E+02 -0.69571401294E+01  0.36638229956E+02  0.00000000000E+00 0.  1.
         22    1    4    4    0    0 -0.11784467825E+01 -0.11538369302E+02  0.84472092248E+01  0.14348451019E+02  0.00000000000E+00 0.  1.
         22    1    4    4    0    0 -0.18397535711E+00 -0.24407449668E+02  0.39099425282E+02  0.46092542820E+02  0.00000000000E+00 0.  1.
<mgrwt>
<rscale>  0 0.88186556E+02</rscale>
<asrwt>0</asrwt>
<pdfrwt beam="1">  1        1 0.10589901E-01 0.88186556E+02</pdfrwt>
<pdfrwt beam="2">  1       -1 0.43453638E-02 0.88186556E+02</pdfrwt>
<totfact> 0.10786551E+05</totfact>
</mgrwt>
</event>
<event>
 7    1  0.3301067E-009  0.9249216E+02  0.7818608E-02  0.1296926E+00
         -1   -1    0    0    0  501 -0.00000000000E+00  0.00000000000E+00  0.40035366455E+02  0.40035366773E+02  0.50400000000E-02 0.  1.
          1   -1    0    0  501    0  0.00000000000E+00 -0.00000000000E+00 -0.53420267782E+02  0.53420268020E+02  0.50400000000E-02 0. -1.
         23    2    1    2    0    0  0.00000000000E+00  0.00000000000E+00 -0.13384901327E+02  0.93455634792E+02  0.92492162322E+02 0.  0.
    9000005    2    3    3    0    0 -0.21827324786E+02 -0.34949365791E+02  0.11668136061E+02  0.45231730358E+02  0.14555883879E+02 0.  0.
         22    1    3    3    0    0  0.21827324786E+02  0.34949365791E+02 -0.25053037388E+02  0.48223904434E+02  0.00000000000E+00 0. -1.
         22    1    4    4    0    0 -0.88393911972E+01 -0.18319223313E+02  0.12914856202E+02  0.24094030179E+02  0.00000000000E+00 0. -1.
         22    1    4    4    0    0 -0.12987933589E+02 -0.16630142478E+02 -0.12467201409E+01  0.21137700179E+02  0.00000000000E+00 0. -1.
<mgrwt>
<rscale>  0 0.92492162E+02</rscale>
<asrwt>0</asrwt>
<pdfrwt beam="2">  1        1 0.82185028E-02 0.92492162E+02</pdfrwt>
<pdfrwt beam="1">  1       -1 0.61592872E-02 0.92492162E+02</pdfrwt>
<totfact> 0.90986434E+04</totfact>
</mgrwt>
</event>
<event>
 7    1  0.3301067E-009  0.9147107E+02  0.7818608E-02  0.1299328E+00
         -1   -1    0    0    0  501 -0.00000000000E+00  0.00000000000E+00  0.10264487062E+03  0.10264487075E+03  0.50400000000E-02 0.  1.
          1   -1    0    0  501    0  0.00000000000E+00 -0.00000000000E+00 -0.20378410602E+02  0.20378411225E+02  0.50400000000E-02 0. -1.
         23    2    1    2    0    0 -0.35527136788E-14  0.00000000000E+00  0.82266460020E+02  0.12302328197E+03  0.91471074459E+02 0.  0.
    9000005    2    3    3    0    0 -0.25389691185E+02 -0.88979816070E+01 -0.69094783631E+01  0.29877383072E+02  0.11004845881E+02 0.  0.
         22    1    3    3    0    0  0.25389691185E+02  0.88979816070E+01  0.89175938383E+02  0.93145898899E+02  0.00000000000E+00 0.  1.
         22    1    4    4    0    0 -0.71652258524E+01 -0.73770865488E+01 -0.51602843576E+01  0.11506102820E+02  0.00000000000E+00 0.  1.
         22    1    4    4    0    0 -0.18224465332E+02 -0.15208950582E+01 -0.17491940055E+01  0.18371280252E+02  0.00000000000E+00 0.  1.
<mgrwt>
<rscale>  0 0.91471074E+02</rscale>
<asrwt>0</asrwt>
<pdfrwt beam="2">  1        1 0.31351402E-02 0.91471074E+02</pdfrwt>
<pdfrwt beam="1">  1       -1 0.15791519E-01 0.91471074E+02</pdfrwt>
<totfact> 0.80303847E+04</totfact>
</mgrwt>
</event>
<event>
 7    1  0.3301067E-009  0.9168150E+02  0.7818608E-02  0.1298830E+00
          1   -1    0    0  501    0  0.00000000000E+00  0.00000000000E+00  0.43916591410E+02  0.43916591699E+02  0.50400000000E-02 0. -1.
         -1   -1    0    0    0  501 -0.00000000000E+00 -0.00000000000E+00 -0.47849212647E+02  0.47849212912E+02  0.50400000000E-02 0.  1.
         23    2    1    2    0    0  0.00000000000E+00 -0.35527136788E-14 -0.39326212374E+01  0.91765804611E+02  0.91681499694E+02 0.  0.
    9000005    2    3    3    0    0 -0.32955387359E+02  0.30577228406E+02 -0.17923644902E+01  0.46759081203E+02  0.12734781173E+02 0.  0.
         22    1    3    3    0    0  0.32955387359E+02 -0.30577228406E+02 -0.21402567472E+01  0.45006723408E+02  0.00000000000E+00 0. -1.
         22    1    4    4    0    0 -0.10477701159E+02  0.26374409912E+01  0.59198388565E+00  0.10820756050E+02  0.00000000000E+00 0.  1.
         22    1    4    4    0    0 -0.22477686200E+02  0.27939787414E+02 -0.23843483758E+01  0.35938325154E+02  0.00000000000E+00 0.  1.
<mgrwt>
<rscale>  0 0.91681500E+02</rscale>
<asrwt>0</asrwt>
<pdfrwt beam="1">  1        1 0.67563987E-02 0.91681500E+02</pdfrwt>
<pdfrwt beam="2">  1       -1 0.73614174E-02 0.91681500E+02</pdfrwt>
<totfact> 0.90535559E+04</totfact>
</mgrwt>
</event>
<event>
 7    1  0.3301067E-009  0.9015601E+02  0.7818608E-02  0.1302474E+00
          1   -1    0    0  501    0  0.00000000000E+00  0.00000000000E+00  0.20766202246E+04  0.20766202247E+04  0.50400000000E-02 0. -1.
         -1   -1    0    0    0  501 -0.00000000000E+00 -0.00000000000E+00 -0.97851934863E+00  0.97853232816E+00  0.50400000000E-02 0.  1.
         23    2    1    2    0    0  0.00000000000E+00  0.00000000000E+00  0.20756417053E+04  0.20775987570E+04  0.90156010539E+02 0.  0.
    9000005    2    3    3    0    0 -0.18596702457E+02  0.79135057703E+01  0.19656994953E+04  0.19658143643E+04  0.65687142801E+01 0.  0.
         22    1    3    3    0    0  0.18596702457E+02 -0.79135057703E+01  0.10994220999E+03  0.11178439271E+03  0.00000000000E+00 0.  1.
         22    1    4    4    0    0 -0.17216440686E+02  0.52316916512E+01  0.15629500648E+04  0.15630536400E+04  0.00000000000E+00 0. -1.
         22    1    4    4    0    0 -0.13802617708E+01  0.26818141190E+01  0.40274943053E+03  0.40276072430E+03  0.00000000000E+00 0. -1.
<mgrwt>
<rscale>  0 0.90156011E+02</rscale>
<asrwt>0</asrwt>
<pdfrwt beam="1">  1        1 0.31947803E+00 0.90156011E+02</pdfrwt>
<pdfrwt beam="2">  1       -1 0.15054338E-03 0.90156011E+02</pdfrwt>
<totfact> 0.77472243E+04</totfact>
</mgrwt>
</event>
<event>
 7    1  0.3301067E-009  0.9116628E+02  0.7818608E-02  0.1300052E+00
         -1   -1    0    0    0  501 -0.00000000000E+00  0.00000000000E+00  0.15257185839E+02  0.15257186671E+02  0.50400000000E-02 0.  1.
          1   -1    0    0  501    0  0.00000000000E+00 -0.00000000000E+00 -0.13618648234E+03  0.13618648243E+03  0.50400000000E-02 0. -1.
         23    2    1    2    0    0  0.00000000000E+00 -0.88817841970E-15 -0.12092929650E+03  0.15144366910E+03  0.91166277533E+02 0.  0.
    9000005    2    3    3    0    0  0.33574966176E+02 -0.58603539683E+01 -0.11055594419E+03  0.11581743522E+03  0.54258089671E+01 0.  0.
         22    1    3    3    0    0 -0.33574966176E+02  0.58603539683E+01 -0.10373352308E+02  0.35626233880E+02  0.00000000000E+00 0.  1.
         22    1    4    4    0    0  0.29916840394E+02 -0.59039132131E+01 -0.92570541250E+02  0.97463729857E+02  0.00000000000E+00 0. -1.
         22    1    4    4    0    0  0.36581257828E+01  0.43559244832E-01 -0.17985402939E+02  0.18353705363E+02  0.00000000000E+00 0. -1.
<mgrwt>
<rscale>  0 0.91166278E+02</rscale>
<asrwt>0</asrwt>
<pdfrwt beam="2">  1        1 0.20951766E-01 0.91166278E+02</pdfrwt>
<pdfrwt beam="1">  1       -1 0.23472595E-02 0.91166278E+02</pdfrwt>
<totfact> 0.11021411E+05</totfact>
</mgrwt>
</event>
<event>
 7    1  0.3301067E-009  0.9617616E+02  0.7818608E-02  0.1288549E+00
          1   -1    0    0  501    0  0.00000000000E+00  0.00000000000E+00  0.21029236690E+03  0.21029236696E+03  0.50400000000E-02 0. -1.
         -1   -1    0    0    0  501 -0.00000000000E+00 -0.00000000000E+00 -0.10996420878E+02  0.10996422033E+02  0.50400000000E-02 0.  1.
         23    2    1    2    0    0  0.00000000000E+00  0.00000000000E+00  0.19929594602E+03  0.22128878899E+03  0.96176161463E+02 0.  0.
    9000005    2    3    3    0    0 -0.32660719570E+02 -0.30925929144E+02  0.13574347119E+03  0.14342960358E+03  0.11073640576E+02 0.  0.
         22    1    3    3    0    0  0.32660719570E+02  0.30925929144E+02  0.63552474826E+02  0.77859185410E+02  0.00000000000E+00 0.  1.
         22    1    4    4    0    0 -0.17427652982E+02 -0.14211385089E+02  0.51338340172E+02  0.56047406062E+02  0.00000000000E+00 0. -1.
         22    1    4    4    0    0 -0.15233066588E+02 -0.16714544055E+02  0.84405131022E+02  0.87382197521E+02  0.00000000000E+00 0. -1.
<mgrwt>
<rscale>  0 0.96176161E+02</rscale>
<asrwt>0</asrwt>
<pdfrwt beam="1">  1        1 0.32352673E-01 0.96176161E+02</pdfrwt>
<pdfrwt beam="2">  1       -1 0.16917571E-02 0.96176161E+02</pdfrwt>
<totfact> 0.10357872E+05</totfact>
</mgrwt>
</event>
<event>
 7    1  0.3301067E-009  0.9012077E+02  0.7818608E-02  0.1302560E+00
          1   -1    0    0  501    0  0.00000000000E+00  0.00000000000E+00  0.19739081529E+03  0.19739081535E+03  0.50400000000E-02 0. -1.
         -1   -1    0    0    0  501 -0.00000000000E+00 -0.00000000000E+00 -0.10286385659E+02  0.10286386894E+02  0.50400000000E-02 0.  1.
         23    2    1    2    0    0  0.00000000000E+00  0.35527136788E-14  0.18710442963E+03  0.20767720224E+03  0.90120767562E+02 0.  0.
    9000005    2    3    3    0    0 -0.23552187160E+02 -0.17466626501E+02  0.17200420438E+03  0.17469530776E+03  0.85566153777E+01 0.  0.
         22    1    3    3    0    0  0.23552187160E+02  0.17466626501E+02  0.15100225245E+02  0.32981894485E+02  0.00000000000E+00 0.  1.
         22    1    4    4    0    0 -0.23328231199E+02 -0.16966853385E+02  0.15372970441E+03  0.15641260340E+03  0.00000000000E+00 0.  1.
         22    1    4    4    0    0 -0.22395596159E+00 -0.49977311635E+00  0.18274499967E+02  0.18282704354E+02  0.00000000000E+00 0.  1.
<mgrwt>
<rscale>  0 0.90120768E+02</rscale>
<asrwt>0</asrwt>
<pdfrwt beam="1">  1        1 0.30367820E-01 0.90120768E+02</pdfrwt>
<pdfrwt beam="2">  1       -1 0.15825208E-02 0.90120768E+02</pdfrwt>
<totfact> 0.12184970E+05</totfact>
</mgrwt>
</event>
<event>
 7    1  0.3301067E-009  0.9181188E+02  0.7818608E-02  0.1298522E+00
         -1   -1    0    0    0  501 -0.00000000000E+00  0.00000000000E+00  0.30069230486E+02  0.30069230908E+02  0.50400000000E-02 0.  1.
          1   -1    0    0  501    0  0.00000000000E+00 -0.00000000000E+00 -0.70083443603E+02  0.70083443784E+02  0.50400000000E-02 0. -1.
         23    2    1    2    0    0  0.00000000000E+00  0.00000000000E+00 -0.40014213117E+02  0.10015267469E+03  0.91811878298E+02 0.  0.
    9000005    2    3    3    0    0  0.21228656407E+02 -0.63720644303E+01  0.23809052640E+02  0.32590345619E+02  0.20001454848E+01 0.  0.
         22    1    3    3    0    0 -0.21228656407E+02  0.63720644303E+01 -0.63823265757E+02  0.67562329074E+02  0.00000000000E+00 0. -1.
         22    1    4    4    0    0  0.77209105392E+01 -0.13215818170E+01  0.84435605431E+01  0.11517497675E+02  0.00000000000E+00 0. -1.
         22    1    4    4    0    0  0.13507745868E+02 -0.50504826133E+01  0.15365492097E+02  0.21072847943E+02  0.00000000000E+00 0. -1.
<mgrwt>
<rscale>  0 0.91811878E+02</rscale>
<asrwt>0</asrwt>
<pdfrwt beam="2">  1        1 0.10782068E-01 0.91811878E+02</pdfrwt>
<pdfrwt beam="1">  1       -1 0.46260355E-02 0.91811878E+02</pdfrwt>
<totfact> 0.96811395E+04</totfact>
</mgrwt>
</event>
<event>
 7    1  0.3301067E-009  0.8716243E+02  0.7818608E-02  0.1309872E+00
         -1   -1    0    0    0  501 -0.00000000000E+00  0.00000000000E+00  0.59132982532E+02  0.59132982746E+02  0.50400000000E-02 0.  1.
          1   -1    0    0  501    0  0.00000000000E+00 -0.00000000000E+00 -0.32119507270E+02  0.32119507665E+02  0.50400000000E-02 0. -1.
         23    2    1    2    0    0  0.00000000000E+00  0.00000000000E+00  0.27013475262E+02  0.91252490412E+02  0.87162429754E+02 0.  0.
    9000005    2    3    3    0    0 -0.35495670416E+02  0.15930271563E+02 -0.50077048649E+01  0.40863283759E+02  0.11446164475E+02 0.  0.
         22    1    3    3    0    0  0.35495670416E+02 -0.15930271563E+02  0.32021180127E+02  0.50389206653E+02  0.00000000000E+00 0.  1.
         22    1    4    4    0    0 -0.47339859111E+01  0.28414682509E+01  0.32783235750E+01  0.64212124937E+01  0.00000000000E+00 0. -1.
         22    1    4    4    0    0 -0.30761684505E+02  0.13088803312E+02 -0.82860284399E+01  0.34442071265E+02  0.00000000000E+00 0. -1.
<mgrwt>
<rscale>  0 0.87162430E+02</rscale>
<asrwt>0</asrwt>
<pdfrwt beam="2">  1        1 0.49414627E-02 0.87162430E+02</pdfrwt>
<pdfrwt beam="1">  1       -1 0.90973819E-02 0.87162430E+02</pdfrwt>
<totfact> 0.99612081E+04</totfact>
</mgrwt>
</event>
<event>
 7    1  0.3301067E-009  0.9064802E+02  0.7818608E-02  0.1301290E+00
         -1   -1    0    0    0  501 -0.00000000000E+00  0.00000000000E+00  0.15405767578E+02  0.15405768403E+02  0.50400000000E-02 0.  1.
          1   -1    0    0  501    0  0.00000000000E+00 -0.00000000000E+00 -0.13334395076E+03  0.13334395086E+03  0.50400000000E-02 0. -1.
         23    2    1    2    0    0  0.00000000000E+00  0.22204460493E-15 -0.11793818318E+03  0.14874971926E+03  0.90648022191E+02 0.  0.
    9000005    2    3    3    0    0  0.27868733967E+02 -0.10431429728E+01 -0.11718944293E+03  0.12085142017E+03  0.96925611831E+01 0.  0.
         22    1    3    3    0    0 -0.27868733967E+02  0.10431429728E+01 -0.74874025291E+00  0.27898299091E+02  0.00000000000E+00 0.  1.
         22    1    4    4    0    0  0.27150814071E+02  0.11300522664E+01 -0.10578169596E+03  0.10921634916E+03  0.00000000000E+00 0.  1.
         22    1    4    4    0    0  0.71791989565E+00 -0.21731952392E+01 -0.11407746970E+02  0.11635071012E+02  0.00000000000E+00 0.  1.
<mgrwt>
<rscale>  0 0.90648022E+02</rscale>
<asrwt>0</asrwt>
<pdfrwt beam="2">  1        1 0.20514453E-01 0.90648022E+02</pdfrwt>
<pdfrwt beam="1">  1       -1 0.23701182E-02 0.90648022E+02</pdfrwt>
<totfact> 0.11150282E+05</totfact>
</mgrwt>
</event>
<event>
 7    1  0.3301067E-009  0.8549107E+02  0.7818608E-02  0.1314153E+00
         -1   -1    0    0    0  501 -0.00000000000E+00  0.00000000000E+00  0.89007068041E+01  0.89007082310E+01  0.50400000000E-02 0.  1.
          1   -1    0    0  501    0  0.00000000000E+00 -0.00000000000E+00 -0.20528488864E+03  0.20528488870E+03  0.50400000000E-02 0. -1.
         23    2    1    2    0    0  0.00000000000E+00  0.00000000000E+00 -0.19638418183E+03  0.21418559693E+03  0.85491070048E+02 0.  0.
    9000005    2    3    3    0    0  0.16217284836E+02 -0.32840535172E+02 -0.53409105817E+02  0.66593681705E+02  0.15514018855E+02 0.  0.
         22    1    3    3    0    0 -0.16217284836E+02  0.32840535172E+02 -0.14297507602E+03  0.14759191522E+03  0.00000000000E+00 0. -1.
         22    1    4    4    0    0 -0.32940822111E+00 -0.15861397950E+02 -0.24763977829E+02  0.29409982194E+02  0.00000000000E+00 0.  1.
         22    1    4    4    0    0  0.16546693057E+02 -0.16979137222E+02 -0.28645127988E+02  0.37183699512E+02  0.00000000000E+00 0.  1.
<mgrwt>
<rscale>  0 0.85491070E+02</rscale>
<asrwt>0</asrwt>
<pdfrwt beam="2">  1        1 0.31582287E-01 0.85491070E+02</pdfrwt>
<pdfrwt beam="1">  1       -1 0.13693398E-02 0.85491070E+02</pdfrwt>
<totfact> 0.14132655E+05</totfact>
</mgrwt>
</event>
<event>
 7    1  0.3301067E-009  0.9175376E+02  0.7818608E-02  0.1298659E+00
         -1   -1    0    0    0  501 -0.00000000000E+00  0.00000000000E+00  0.18527263626E+02  0.18527264312E+02  0.50400000000E-02 0.  1.
          1   -1    0    0  501    0  0.00000000000E+00 -0.00000000000E+00 -0.11359951357E+03  0.11359951368E+03  0.50400000000E-02 0. -1.
         23    2    1    2    0    0  0.00000000000E+00 -0.17763568394E-14 -0.95072249945E+02  0.13212677800E+03  0.91753761524E+02 0.  0.
    9000005    2    3    3    0    0  0.43273275945E+02 -0.11885941031E+02 -0.55875169380E+02  0.72542693459E+02  0.11249702926E+02 0.  0.
         22    1    3    3    0    0 -0.43273275945E+02  0.11885941031E+02 -0.39197080565E+02  0.59584084536E+02  0.00000000000E+00 0. -1.
         22    1    4    4    0    0  0.32780286844E+02 -0.56191372107E+01 -0.34502723238E+02  0.47922435449E+02  0.00000000000E+00 0.  1.
         22    1    4    4    0    0  0.10492989101E+02 -0.62668038198E+01 -0.21372446142E+02  0.24620258010E+02  0.00000000000E+00 0.  1.
<mgrwt>
<rscale>  0 0.91753762E+02</rscale>
<asrwt>0</asrwt>
<pdfrwt beam="2">  1        1 0.17476848E-01 0.91753762E+02</pdfrwt>
<pdfrwt beam="1">  1       -1 0.28503484E-02 0.91753762E+02</pdfrwt>
<totfact> 0.10490949E+05</totfact>
</mgrwt>
</event>
<event>
 7    1  0.3301067E-009  0.9297802E+02  0.7818608E-02  0.1295796E+00
          1   -1    0    0  501    0  0.00000000000E+00  0.00000000000E+00  0.45848298827E+02  0.45848299104E+02  0.50400000000E-02 0. -1.
         -1   -1    0    0    0  501 -0.00000000000E+00 -0.00000000000E+00 -0.47138670393E+02  0.47138670663E+02  0.50400000000E-02 0.  1.
         23    2    1    2    0    0 -0.22204460493E-15  0.00000000000E+00 -0.12903715661E+01  0.92986969767E+02  0.92978016152E+02 0.  0.
    9000005    2    3    3    0    0  0.10177148864E+01  0.36812378767E+02  0.25753164810E+02  0.47297366641E+02  0.14752234389E+02 0.  0.
         22    1    3    3    0    0 -0.10177148864E+01 -0.36812378767E+02 -0.27043536376E+02  0.45689603125E+02  0.00000000000E+00 0.  1.
         22    1    4    4    0    0 -0.33945941059E+01  0.21164861901E+02  0.71617427863E+01  0.22600115224E+02  0.00000000000E+00 0. -1.
         22    1    4    4    0    0  0.44123089922E+01  0.15647516866E+02  0.18591422023E+02  0.24697251417E+02  0.00000000000E+00 0. -1.
<mgrwt>
<rscale>  0 0.92978016E+02</rscale>
<asrwt>0</asrwt>
<pdfrwt beam="1">  1        1 0.70535845E-02 0.92978016E+02</pdfrwt>
<pdfrwt beam="2">  1       -1 0.72521032E-02 0.92978016E+02</pdfrwt>
<totfact> 0.87595364E+04</totfact>
</mgrwt>
</event>
<event>
 7    1  0.3301067E-009  0.9105405E+02  0.7818608E-02  0.1300319E+00
          1   -1    0    0  501    0  0.00000000000E+00  0.00000000000E+00  0.33899860387E+02  0.33899860761E+02  0.50400000000E-02 0. -1.
         -1   -1    0    0    0  501 -0.00000000000E+00 -0.00000000000E+00 -0.61142141805E+02  0.61142142013E+02  0.50400000000E-02 0.  1.
         23    2    1    2    0    0  0.00000000000E+00 -0.55511151231E-15 -0.27242281418E+02  0.95042002774E+02  0.91054052048E+02 0.  0.
    9000005    2    3    3    0    0  0.44074293185E+02  0.35622771993E+00 -0.10220520999E+02  0.47793610783E+02  0.15398050663E+02 0.  0.
         22    1    3    3    0    0 -0.44074293185E+02 -0.35622771993E+00 -0.17021760419E+02  0.47248391991E+02  0.00000000000E+00 0. -1.
         22    1    4    4    0    0  0.15792405176E+02 -0.50194014089E+01 -0.92746738963E+01  0.18989840116E+02  0.00000000000E+00 0. -1.
         22    1    4    4    0    0  0.28281888009E+02  0.53756291289E+01 -0.94584710233E+00  0.28803770667E+02  0.00000000000E+00 0. -1.
<mgrwt>
<rscale>  0 0.91054052E+02</rscale>
<asrwt>0</asrwt>
<pdfrwt beam="1">  1        1 0.52153632E-02 0.91054052E+02</pdfrwt>
<pdfrwt beam="2">  1       -1 0.94064834E-02 0.91054052E+02</pdfrwt>
<totfact> 0.88723151E+04</totfact>
</mgrwt>
</event>
<event>
 7    1  0.3301067E-009  0.9293598E+02  0.7818608E-02  0.1295894E+00
          1   -1    0    0  501    0  0.00000000000E+00  0.00000000000E+00  0.30058841036E+02  0.30058841458E+02  0.50400000000E-02 0. -1.
         -1   -1    0    0    0  501 -0.00000000000E+00 -0.00000000000E+00 -0.71834902967E+02  0.71834903144E+02  0.50400000000E-02 0.  1.
         23    2    1    2    0    0  0.00000000000E+00 -0.17763568394E-14 -0.41776061932E+02  0.10189374460E+03  0.92935977095E+02 0.  0.
    9000005    2    3    3    0    0 -0.33196904613E+02 -0.14507725760E+02 -0.52357720710E+02  0.64151459495E+02  0.78466715739E+01 0.  0.
         22    1    3    3    0    0  0.33196904613E+02  0.14507725760E+02  0.10581658778E+02  0.37742285107E+02  0.00000000000E+00 0. -1.
         22    1    4    4    0    0 -0.13321022275E+02 -0.21212047461E+01 -0.16326371839E+02  0.21177808230E+02  0.00000000000E+00 0. -1.
         22    1    4    4    0    0 -0.19875882338E+02 -0.12386521014E+02 -0.36031348871E+02  0.42973651264E+02  0.00000000000E+00 0. -1.
<mgrwt>
<rscale>  0 0.92935977E+02</rscale>
<asrwt>0</asrwt>
<pdfrwt beam="1">  1        1 0.46244371E-02 0.92935977E+02</pdfrwt>
<pdfrwt beam="2">  1       -1 0.11051524E-01 0.92935977E+02</pdfrwt>
<totfact> 0.82070706E+04</totfact>
</mgrwt>
</event>
<event>
 7    1  0.3532372E-009  0.9086967E+02  0.7818608E-02  0.1300759E+00
         -1   -1    0    0    0  501 -0.00000000000E+00  0.00000000000E+00  0.14775785741E+02  0.14775786601E+02  0.50400000000E-02 0.  1.
          1   -1    0    0  501    0  0.00000000000E+00 -0.00000000000E+00 -0.13970994752E+03  0.13970994761E+03  0.50400000000E-02 0. -1.
         23    2    1    2    0    0  0.00000000000E+00  0.00000000000E+00 -0.12493416178E+03  0.15448573421E+03  0.90869672033E+02 0.  0.
    9000005    2    3    3    0    0 -0.22153220539E+02 -0.28679140769E+02 -0.10730957350E+03  0.11418828507E+03  0.14503847287E+02 0.  0.
         22    1    3    3    0    0  0.22153220539E+02  0.28679140769E+02 -0.17624588275E+02  0.40297449142E+02  0.00000000000E+00 0.  1.
         22    1    4    4    0    0 -0.17203362534E+02 -0.15149854614E+02 -0.81134042110E+02  0.84310180681E+02  0.00000000000E+00 0.  1.
         22    1    4    4    0    0 -0.49498580049E+01 -0.13529286154E+02 -0.26175531390E+02  0.29878104386E+02  0.00000000000E+00 0.  1.
<mgrwt>
<rscale>  0 0.90869672E+02</rscale>
<asrwt>0</asrwt>
<pdfrwt beam="2">  1        1 0.21493837E-01 0.90869672E+02</pdfrwt>
<pdfrwt beam="1">  1       -1 0.22731980E-02 0.90869672E+02</pdfrwt>
<totfact> 0.11170216E+05</totfact>
</mgrwt>
</event>
<event>
 7    1  0.3301067E-009  0.9107029E+02  0.7818608E-02  0.1300280E+00
         -1   -1    0    0    0  501 -0.00000000000E+00  0.00000000000E+00  0.12362569597E+02  0.12362570625E+02  0.50400000000E-02 0.  1.
          1   -1    0    0  501    0  0.00000000000E+00 -0.00000000000E+00 -0.16771994594E+03  0.16771994601E+03  0.50400000000E-02 0. -1.
         23    2    1    2    0    0  0.00000000000E+00  0.00000000000E+00 -0.15535737634E+03  0.18008251664E+03  0.91070293813E+02 0.  0.
    9000005    2    3    3    0    0  0.27522317880E+02 -0.21374992651E+02 -0.13466847682E+03  0.13955599624E+03  0.11220924420E+02 0.  0.
         22    1    3    3    0    0 -0.27522317880E+02  0.21374992651E+02 -0.20688899520E+02  0.40526520399E+02  0.00000000000E+00 0.  1.
         22    1    4    4    0    0  0.12670794096E+02 -0.16659522880E+02 -0.82168921850E+02  0.84792808914E+02  0.00000000000E+00 0. -1.
         22    1    4    4    0    0  0.14851523783E+02 -0.47154697710E+01 -0.52499554971E+02  0.54763187325E+02  0.00000000000E+00 0. -1.
<mgrwt>
<rscale>  0 0.91070294E+02</rscale>
<asrwt>0</asrwt>
<pdfrwt beam="2">  1        1 0.25803067E-01 0.91070294E+02</pdfrwt>
<pdfrwt beam="1">  1       -1 0.19019340E-02 0.91070294E+02</pdfrwt>
<totfact> 0.11484549E+05</totfact>
</mgrwt>
</event>
<event>
 7    1  0.3301067E-009  0.8977232E+02  0.7818608E-02  0.1303404E+00
          1   -1    0    0  501    0  0.00000000000E+00  0.00000000000E+00  0.55807477893E+03  0.55807477895E+03  0.50400000000E-02 0. -1.
         -1   -1    0    0    0  501 -0.00000000000E+00 -0.00000000000E+00 -0.36102087084E+01  0.36102122264E+01  0.50400000000E-02 0.  1.
         23    2    1    2    0    0 -0.88817841970E-15  0.00000000000E+00  0.55446457022E+03  0.56168499118E+03  0.89772321375E+02 0.  0.
    9000005    2    3    3    0    0  0.69142814447E+01  0.13389248375E+02  0.54155637408E+03  0.54184309642E+03  0.91408737204E+01 0.  0.
         22    1    3    3    0    0 -0.69142814447E+01 -0.13389248375E+02  0.12908196139E+02  0.19841894756E+02  0.00000000000E+00 0.  1.
         22    1    4    4    0    0 -0.13735926781E+01  0.68005008039E+01  0.18693011478E+03  0.18705881797E+03  0.00000000000E+00 0.  1.
         22    1    4    4    0    0  0.82878741228E+01  0.65887475708E+01  0.35462625930E+03  0.35478427845E+03  0.00000000000E+00 0.  1.
<mgrwt>
<rscale>  0 0.89772321E+02</rscale>
<asrwt>0</asrwt>
<pdfrwt beam="1">  1        1 0.85857697E-01 0.89772321E+02</pdfrwt>
<pdfrwt beam="2">  1       -1 0.55541675E-03 0.89772321E+02</pdfrwt>
<totfact> 0.14674493E+05</totfact>
</mgrwt>
</event>
<event>
 7    1  0.3301067E-009  0.8699601E+02  0.7818608E-02  0.1310294E+00
          1   -1    0    0  501    0  0.00000000000E+00  0.00000000000E+00  0.82460842154E+02  0.82460842308E+02  0.50400000000E-02 0. -1.
         -1   -1    0    0    0  501 -0.00000000000E+00 -0.00000000000E+00 -0.22945152126E+02  0.22945152680E+02  0.50400000000E-02 0.  1.
         23    2    1    2    0    0  0.00000000000E+00  0.35527136788E-14  0.59515690028E+02  0.10540599499E+03  0.86996013815E+02 0.  0.
    9000005    2    3    3    0    0  0.22190870084E+02 -0.27511835246E+02  0.12802266990E+00  0.36295714797E+02  0.82478317852E+01 0.  0.
         22    1    3    3    0    0 -0.22190870084E+02  0.27511835246E+02  0.59387667358E+02  0.69110280190E+02  0.00000000000E+00 0. -1.
         22    1    4    4    0    0  0.22465029377E+02 -0.24392683051E+02  0.24536583582E+00  0.33162339117E+02  0.00000000000E+00 0. -1.
         22    1    4    4    0    0 -0.27415929296E+00 -0.31191521951E+01 -0.11734316592E+00  0.31333756801E+01  0.00000000000E+00 0. -1.
<mgrwt>
<rscale>  0 0.86996014E+02</rscale>
<asrwt>0</asrwt>
<pdfrwt beam="1">  1        1 0.12686284E-01 0.86996014E+02</pdfrwt>
<pdfrwt beam="2">  1       -1 0.35300234E-02 0.86996014E+02</pdfrwt>
<totfact> 0.11507422E+05</totfact>
</mgrwt>
</event>
<event>
 7    1  0.3301067E-009  0.9249790E+02  0.7818608E-02  0.1296913E+00
         -1   -1    0    0    0  501 -0.00000000000E+00  0.00000000000E+00  0.72393776112E+01  0.72393793656E+01  0.50400000000E-02 0.  1.
          1   -1    0    0  501    0  0.00000000000E+00 -0.00000000000E+00 -0.29546258765E+03  0.29546258770E+03  0.50400000000E-02 0. -1.
         23    2    1    2    0    0  0.00000000000E+00 -0.44408920985E-15 -0.28822321004E+03  0.30270196706E+03  0.92497902983E+02 0.  0.
    9000005    2    3    3    0    0  0.40005506885E+02  0.25314599854E+01 -0.75688228455E+02  0.86419819697E+02  0.11525122081E+02 0.  0.
         22    1    3    3    0    0 -0.40005506885E+02 -0.25314599854E+01 -0.21253498159E+03  0.21628214736E+03  0.00000000000E+00 0.  1.
         22    1    4    4    0    0  0.22490955403E+02 -0.42133715926E+01 -0.43854689342E+02  0.49465435936E+02  0.00000000000E+00 0.  1.
         22    1    4    4    0    0  0.17514551481E+02  0.67448315780E+01 -0.31833539113E+02  0.36954383760E+02  0.00000000000E+00 0.  1.
<mgrwt>
<rscale>  0 0.92497903E+02</rscale>
<asrwt>0</asrwt>
<pdfrwt beam="2">  1        1 0.45455773E-01 0.92497903E+02</pdfrwt>
<pdfrwt beam="1">  1       -1 0.11137508E-02 0.92497903E+02</pdfrwt>
<totfact> 0.12293808E+05</totfact>
</mgrwt>
</event>
<event>
 7    1  0.4291477E-009  0.9130721E+02  0.7818608E-02  0.1299717E+00
         -1   -1    0    0    0  501 -0.00000000000E+00  0.00000000000E+00  0.44444239467E+01  0.44444268044E+01  0.50400000000E-02 0.  1.
          1   -1    0    0  501    0  0.00000000000E+00 -0.00000000000E+00 -0.46895864141E+03  0.46895864144E+03  0.50400000000E-02 0. -1.
         23    2    1    2    0    0  0.00000000000E+00 -0.88817841970E-15 -0.46451421746E+03  0.47340306824E+03  0.91307211078E+02 0.  0.
    9000005    2    3    3    0    0 -0.13545399094E+02 -0.70536257932E+01 -0.45497113418E+03  0.45539468375E+03  0.12343159119E+02 0.  0.
         22    1    3    3    0    0  0.13545399094E+02  0.70536257932E+01 -0.95430832838E+01  0.18008384492E+02  0.00000000000E+00 0.  1.
         22    1    4    4    0    0  0.23142417328E+01 -0.17886953133E+01 -0.66419038027E+02  0.66483409646E+02  0.00000000000E+00 0. -1.
         22    1    4    4    0    0 -0.15859640827E+02 -0.52649304799E+01 -0.38855209615E+03  0.38891127410E+03  0.00000000000E+00 0. -1.
<mgrwt>
<rscale>  0 0.91307211E+02</rscale>
<asrwt>0</asrwt>
<pdfrwt beam="2">  1        1 0.72147444E-01 0.91307211E+02</pdfrwt>
<pdfrwt beam="1">  1       -1 0.68375812E-03 0.91307211E+02</pdfrwt>
<totfact> 0.13762134E+05</totfact>
</mgrwt>
</event>
<event>
 7    1  0.3301067E-009  0.8976793E+02  0.7818608E-02  0.1303415E+00
          1   -1    0    0  501    0  0.00000000000E+00  0.00000000000E+00  0.63726501667E+01  0.63726521598E+01  0.50400000000E-02 0. -1.
         -1   -1    0    0    0  501 -0.00000000000E+00 -0.00000000000E+00 -0.31612752554E+03  0.31612752558E+03  0.50400000000E-02 0.  1.
         23    2    1    2    0    0  0.35527136788E-14  0.00000000000E+00 -0.30975487537E+03  0.32250017774E+03  0.89767933165E+02 0.  0.
    9000005    2    3    3    0    0 -0.30008830859E+02  0.24788433487E+02 -0.23349753771E+03  0.23688371956E+03  0.88204370656E+01 0.  0.
         22    1    3    3    0    0  0.30008830859E+02 -0.24788433487E+02 -0.76257337658E+02  0.85616458178E+02  0.00000000000E+00 0. -1.
         22    1    4    4    0    0 -0.27165353818E+02  0.18353239180E+02 -0.19798624944E+03  0.20068221846E+03  0.00000000000E+00 0.  1.
         22    1    4    4    0    0 -0.28434770410E+01  0.64351943069E+01 -0.35511288269E+02  0.36201501101E+02  0.00000000000E+00 0.  1.
<mgrwt>
<rscale>  0 0.89767933E+02</rscale>
<asrwt>0</asrwt>
<pdfrwt beam="1">  1        1 0.98040812E-03 0.89767933E+02</pdfrwt>
<pdfrwt beam="2">  1       -1 0.48634992E-01 0.89767933E+02</pdfrwt>
<totfact> 0.61787565E+04</totfact>
</mgrwt>
</event>
<event>
 7    1  0.3301067E-009  0.1055217E+03  0.7818608E-02  0.1269095E+00
         -1   -1    0    0    0  501 -0.00000000000E+00  0.00000000000E+00  0.10206321796E+02  0.10206323041E+02  0.50400000000E-02 0.  1.
          1   -1    0    0  501    0  0.00000000000E+00 -0.00000000000E+00 -0.27274346038E+03  0.27274346043E+03  0.50400000000E-02 0. -1.
         23    2    1    2    0    0  0.00000000000E+00  0.00000000000E+00 -0.26253713858E+03  0.28294978347E+03  0.10552170786E+03 0.  0.
    9000005    2    3    3    0    0  0.31185960124E+02  0.86258379072E+01 -0.24235823519E+03  0.24481636859E+03  0.12270736512E+02 0.  0.
         22    1    3    3    0    0 -0.31185960124E+02 -0.86258379072E+01 -0.20178903395E+02  0.38133414883E+02  0.00000000000E+00 0.  1.
         22    1    4    4    0    0  0.17621637359E+02  0.32238609188E+00 -0.96754851591E+02  0.98346974241E+02  0.00000000000E+00 0.  1.
         22    1    4    4    0    0  0.13564322765E+02  0.83034518153E+01 -0.14560338360E+03  0.14646939434E+03  0.00000000000E+00 0.  1.
<mgrwt>
<rscale>  0 0.10552171E+03</rscale>
<asrwt>0</asrwt>
<pdfrwt beam="2">  1        1 0.41960527E-01 0.10552171E+03</pdfrwt>
<pdfrwt beam="1">  1       -1 0.15702037E-02 0.10552171E+03</pdfrwt>
<totfact> 0.84912308E+04</totfact>
</mgrwt>
</event>
<event>
 7    1  0.3301067E-009  0.8994285E+02  0.7818608E-02  0.1302990E+00
         -1   -1    0    0    0  501 -0.00000000000E+00  0.00000000000E+00  0.90214207236E+01  0.90214221314E+01  0.50400000000E-02 0.  1.
          1   -1    0    0  501    0  0.00000000000E+00 -0.00000000000E+00 -0.22418077816E+03  0.22418077821E+03  0.50400000000E-02 0. -1.
         23    2    1    2    0    0  0.00000000000E+00  0.35527136788E-14 -0.21515935743E+03  0.23320220035E+03  0.89942854939E+02 0.  0.
    9000005    2    3    3    0    0 -0.39601745068E+02  0.19123062076E+02 -0.10679990512E+03  0.11625879257E+03  0.13262631767E+02 0.  0.
         22    1    3    3    0    0  0.39601745068E+02 -0.19123062076E+02 -0.10835945232E+03  0.11694340778E+03  0.00000000000E+00 0.  1.
         22    1    4    4    0    0 -0.27578395806E+02  0.16671681902E+02 -0.88866184782E+02  0.94528893415E+02  0.00000000000E+00 0.  1.
         22    1    4    4    0    0 -0.12023349262E+02  0.24513801739E+01 -0.17933720334E+02  0.21729899154E+02  0.00000000000E+00 0.  1.
<mgrwt>
<rscale>  0 0.89942855E+02</rscale>
<asrwt>0</asrwt>
<pdfrwt beam="2">  1        1 0.34489346E-01 0.89942855E+02</pdfrwt>
<pdfrwt beam="1">  1       -1 0.13879112E-02 0.89942855E+02</pdfrwt>
<totfact> 0.12555841E+05</totfact>
</mgrwt>
</event>
<event>
 7    1  0.3301067E-009  0.9110460E+02  0.7818608E-02  0.1300199E+00
         -1   -1    0    0    0  501 -0.00000000000E+00  0.00000000000E+00  0.37740480339E+01  0.37740513992E+01  0.50400000000E-02 0.  1.
          1   -1    0    0  501    0  0.00000000000E+00 -0.00000000000E+00 -0.54981042541E+03  0.54981042544E+03  0.50400000000E-02 0. -1.
         23    2    1    2    0    0  0.00000000000E+00  0.00000000000E+00 -0.54603637738E+03  0.55358447683E+03  0.91104596875E+02 0.  0.
    9000005    2    3    3    0    0  0.31743351034E+02 -0.29738494604E+02 -0.35419643248E+03  0.35687509004E+03  0.35635249833E+01 0.  0.
         22    1    3    3    0    0 -0.31743351034E+02  0.29738494604E+02 -0.19183994490E+03  0.19670938680E+03  0.00000000000E+00 0.  1.
         22    1    4    4    0    0  0.72265226609E+00 -0.83033805494E-01 -0.60677739656E+01  0.61112193389E+01  0.00000000000E+00 0.  1.
         22    1    4    4    0    0  0.31020698768E+02 -0.29655460799E+02 -0.34812865851E+03  0.35076387070E+03  0.00000000000E+00 0.  1.
<mgrwt>
<rscale>  0 0.91104597E+02</rscale>
<asrwt>0</asrwt>
<pdfrwt beam="2">  1        1 0.84586156E-01 0.91104597E+02</pdfrwt>
<pdfrwt beam="1">  1       -1 0.58062347E-03 0.91104597E+02</pdfrwt>
<totfact> 0.14095182E+05</totfact>
</mgrwt>
</event>
<event>
 7    1  0.3301067E-009  0.9187557E+02  0.7818608E-02  0.1298372E+00
         -1   -1    0    0    0  501 -0.00000000000E+00  0.00000000000E+00  0.72634088137E+02  0.72634088312E+02  0.50400000000E-02 0.  1.
          1   -1    0    0  501    0  0.00000000000E+00 -0.00000000000E+00 -0.29053576098E+02  0.29053576535E+02  0.50400000000E-02 0. -1.
         23    2    1    2    0    0  0.17763568394E-14  0.00000000000E+00  0.43580512039E+02  0.10168766485E+03  0.91875568855E+02 0.  0.
    9000005    2    3    3    0    0  0.13866997662E+02 -0.41824027647E+02  0.74558035343E+01  0.44709270017E+02  0.13367521574E+01 0.  0.
         22    1    3    3    0    0 -0.13866997662E+02  0.41824027647E+02  0.36124708504E+02  0.56978394830E+02  0.00000000000E+00 0.  1.
         22    1    4    4    0    0  0.61608231434E+00 -0.14714453697E+01  0.50772333736E-01  0.15960221565E+01  0.00000000000E+00 0.  1.
         22    1    4    4    0    0  0.13250915348E+02 -0.40352582278E+02  0.74050312006E+01  0.43113247861E+02  0.00000000000E+00 0.  1.
<mgrwt>
<rscale>  0 0.91875569E+02</rscale>
<asrwt>0</asrwt>
<pdfrwt beam="2">  1        1 0.44697810E-02 0.91875569E+02</pdfrwt>
<pdfrwt beam="1">  1       -1 0.11174475E-01 0.91875569E+02</pdfrwt>
<totfact> 0.84359094E+04</totfact>
</mgrwt>
</event>
<event>
 7    1  0.3301067E-009  0.9120919E+02  0.7818608E-02  0.1299950E+00
         -1   -1    0    0    0  501 -0.00000000000E+00  0.00000000000E+00  0.17609408090E+01  0.17609480215E+01  0.50400000000E-02 0.  1.
          1   -1    0    0  501    0  0.00000000000E+00 -0.00000000000E+00 -0.11810588762E+04  0.11810588762E+04  0.50400000000E-02 0. -1.
         23    2    1    2    0    0 -0.44408920985E-15  0.00000000000E+00 -0.11792979354E+04  0.11828198242E+04  0.91209189118E+02 0.  0.
    9000005    2    3    3    0    0  0.12941573328E+01 -0.11413484601E+02 -0.11619081499E+04  0.11619788283E+04  0.56838390106E+01 0.  0.
         22    1    3    3    0    0 -0.12941573328E+01  0.11413484601E+02 -0.17389785472E+02  0.20840995962E+02  0.00000000000E+00 0.  1.
         22    1    4    4    0    0 -0.18265748514E+01 -0.19135331093E+01 -0.32955220274E+03  0.32956281998E+03  0.00000000000E+00 0.  1.
         22    1    4    4    0    0  0.31207321842E+01 -0.94999514914E+01 -0.83235594718E+03  0.83241600829E+03  0.00000000000E+00 0.  1.
<mgrwt>
<rscale>  0 0.91209189E+02</rscale>
<asrwt>0</asrwt>
<pdfrwt beam="2">  1        1 0.18170073E+00 0.91209189E+02</pdfrwt>
<pdfrwt beam="1">  1       -1 0.27091547E-03 0.91209189E+02</pdfrwt>
<totfact> 0.12811721E+05</totfact>
</mgrwt>
</event>
<event>
 7    1  0.3301067E-009  0.9357166E+02  0.7818608E-02  0.1294426E+00
         -1   -1    0    0    0  501 -0.00000000000E+00  0.00000000000E+00  0.24065902833E+03  0.24065902838E+03  0.50400000000E-02 0.  1.
          1   -1    0    0  501    0  0.00000000000E+00 -0.00000000000E+00 -0.90954987475E+01  0.90955001439E+01  0.50400000000E-02 0. -1.
         23    2    1    2    0    0 -0.71054273576E-14  0.00000000000E+00  0.23156352958E+03  0.24975452852E+03  0.93571663909E+02 0.  0.
    9000005    2    3    3    0    0 -0.46400625300E+02 -0.18915616854E+01  0.10226521501E+03  0.11236948500E+03  0.34829476058E+01 0.  0.
         22    1    3    3    0    0  0.46400625300E+02  0.18915616854E+01  0.12929831457E+03  0.13738504352E+03  0.00000000000E+00 0.  1.
         22    1    4    4    0    0 -0.37071683341E+02 -0.28956318508E+01  0.81221568328E+02  0.89328817025E+02  0.00000000000E+00 0. -1.
         22    1    4    4    0    0 -0.93289419587E+01  0.10040701655E+01  0.21043646685E+02  0.23040667975E+02  0.00000000000E+00 0. -1.
<mgrwt>
<rscale>  0 0.93571664E+02</rscale>
<asrwt>0</asrwt>
<pdfrwt beam="2">  1        1 0.13993076E-02 0.93571664E+02</pdfrwt>
<pdfrwt beam="1">  1       -1 0.37024467E-01 0.93571664E+02</pdfrwt>
<totfact> 0.61294933E+04</totfact>
</mgrwt>
</event>
<event>
 7    1  0.3301067E-009  0.9137698E+02  0.7818608E-02  0.1299551E+00
         -1   -1    0    0    0  501 -0.00000000000E+00  0.00000000000E+00  0.13404183711E+02  0.13404184659E+02  0.50400000000E-02 0.  1.
          1   -1    0    0  501    0  0.00000000000E+00 -0.00000000000E+00 -0.15573035201E+03  0.15573035209E+03  0.50400000000E-02 0. -1.
         23    2    1    2    0    0  0.35527136788E-14  0.00000000000E+00 -0.14232616830E+03  0.16913453675E+03  0.91376984734E+02 0.  0.
    9000005    2    3    3    0    0 -0.22626171115E+02  0.24442427514E+02 -0.12823993736E+03  0.13297104986E+03  0.11244673545E+02 0.  0.
         22    1    3    3    0    0  0.22626171115E+02 -0.24442427514E+02 -0.14086230931E+02  0.36163486889E+02  0.00000000000E+00 0.  1.
         22    1    4    4    0    0 -0.91608212417E+01  0.16381971439E+02 -0.82689889380E+02  0.84793321905E+02  0.00000000000E+00 0. -1.
         22    1    4    4    0    0 -0.13465349874E+02  0.80604560751E+01 -0.45550047985E+02  0.48177727954E+02  0.00000000000E+00 0. -1.
<mgrwt>
<rscale>  0 0.91376985E+02</rscale>
<asrwt>0</asrwt>
<pdfrwt beam="2">  1        1 0.23958514E-01 0.91376985E+02</pdfrwt>
<pdfrwt beam="1">  1       -1 0.20621823E-02 0.91376985E+02</pdfrwt>
<totfact> 0.11224528E+05</totfact>
</mgrwt>
</event>
<event>
 7    1  0.3301067E-009  0.9612736E+02  0.7818608E-02  0.1288657E+00
          1   -1    0    0  501    0  0.00000000000E+00  0.00000000000E+00  0.17765435045E+02  0.17765435760E+02  0.50400000000E-02 0. -1.
         -1   -1    0    0    0  501 -0.00000000000E+00 -0.00000000000E+00 -0.13003436537E+03  0.13003436547E+03  0.50400000000E-02 0.  1.
         23    2    1    2    0    0  0.00000000000E+00  0.00000000000E+00 -0.11226893033E+03  0.14779980123E+03  0.96127355767E+02 0.  0.
    9000005    2    3    3    0    0  0.10507158961E+02  0.23238248569E+02  0.45336911184E+01  0.28245340993E+02  0.11261809211E+02 0.  0.
         22    1    3    3    0    0 -0.10507158961E+02 -0.23238248569E+02 -0.11680262144E+03  0.11955446024E+03  0.00000000000E+00 0.  1.
         22    1    4    4    0    0  0.12097838664E+02  0.23040910960E+02  0.51491269629E+01  0.26528377008E+02  0.00000000000E+00 0.  1.
         22    1    4    4    0    0 -0.15906797029E+01  0.19733760914E+00 -0.61543584449E+00  0.17169639856E+01  0.00000000000E+00 0.  1.
<mgrwt>
<rscale>  0 0.96127356E+02</rscale>
<asrwt>0</asrwt>
<pdfrwt beam="1">  1        1 0.27331440E-02 0.96127356E+02</pdfrwt>
<pdfrwt beam="2">  1       -1 0.20005286E-01 0.96127356E+02</pdfrwt>
<totfact> 0.67323313E+04</totfact>
</mgrwt>
</event>
<event>
 7    1  0.3301067E-009  0.9081804E+02  0.7818608E-02  0.1300883E+00
          1   -1    0    0  501    0  0.00000000000E+00  0.00000000000E+00  0.20771163025E+02  0.20771163637E+02  0.50400000000E-02 0. -1.
         -1   -1    0    0    0  501 -0.00000000000E+00 -0.00000000000E+00 -0.99271244593E+02  0.99271244720E+02  0.50400000000E-02 0.  1.
         23    2    1    2    0    0  0.00000000000E+00  0.00000000000E+00 -0.78500081567E+02  0.12004240836E+03  0.90818043352E+02 0.  0.
    9000005    2    3    3    0    0  0.92916150031E+01  0.61977364748E+01 -0.97380125555E+02  0.98106088981E+02  0.41436451683E+01 0.  0.
         22    1    3    3    0    0 -0.92916150031E+01 -0.61977364748E+01  0.18880043988E+02  0.21936319376E+02  0.00000000000E+00 0. -1.
         22    1    4    4    0    0  0.73933182038E+01  0.51878157181E+01 -0.61283334721E+02  0.61945312175E+02  0.00000000000E+00 0.  1.
         22    1    4    4    0    0  0.18982967993E+01  0.10099207567E+01 -0.36096790835E+02  0.36160776806E+02  0.00000000000E+00 0.  1.
<mgrwt>
<rscale>  0 0.90818043E+02</rscale>
<asrwt>0</asrwt>
<pdfrwt beam="1">  1        1 0.31955637E-02 0.90818043E+02</pdfrwt>
<pdfrwt beam="2">  1       -1 0.15272499E-01 0.90818043E+02</pdfrwt>
<totfact> 0.82312331E+04</totfact>
</mgrwt>
</event>
<event>
 7    1  0.3301067E-009  0.9099137E+02  0.7818608E-02  0.1300469E+00
         -1   -1    0    0    0  501 -0.00000000000E+00  0.00000000000E+00  0.10295058592E+03  0.10295058604E+03  0.50400000000E-02 0.  1.
          1   -1    0    0  501    0  0.00000000000E+00 -0.00000000000E+00 -0.20105349239E+02  0.20105349871E+02  0.50400000000E-02 0. -1.
         23    2    1    2    0    0  0.00000000000E+00  0.00000000000E+00  0.82845236680E+02  0.12305593591E+03  0.90991373893E+02 0.  0.
    9000005    2    3    3    0    0  0.14068409348E+02 -0.15011530945E+02 -0.13398958909E+02  0.24637383864E+02  0.20499709554E+01 0.  0.
         22    1    3    3    0    0 -0.14068409348E+02  0.15011530945E+02  0.96244195589E+02  0.98418552050E+02  0.00000000000E+00 0.  1.
         22    1    4    4    0    0  0.45080747085E+00 -0.13379108688E+00 -0.10652626925E+00  0.48215690055E+00  0.00000000000E+00 0. -1.
         22    1    4    4    0    0  0.13617601877E+02 -0.14877739858E+02 -0.13292432640E+02  0.24155226963E+02  0.00000000000E+00 0. -1.
<mgrwt>
<rscale>  0 0.90991374E+02</rscale>
<asrwt>0</asrwt>
<pdfrwt beam="2">  1        1 0.30931308E-02 0.90991374E+02</pdfrwt>
<pdfrwt beam="1">  1       -1 0.15838551E-01 0.90991374E+02</pdfrwt>
<totfact> 0.81354679E+04</totfact>
</mgrwt>
</event>
<event>
 7    1  0.3301067E-009  0.9276355E+02  0.7818608E-02  0.1296294E+00
          1   -1    0    0  501    0  0.00000000000E+00  0.00000000000E+00  0.30375069650E+02  0.30375070068E+02  0.50400000000E-02 0. -1.
         -1   -1    0    0    0  501 -0.00000000000E+00 -0.00000000000E+00 -0.70823502653E+02  0.70823502833E+02  0.50400000000E-02 0.  1.
         23    2    1    2    0    0 -0.35527136788E-14  0.00000000000E+00 -0.40448433003E+02  0.10119857290E+03  0.92763545775E+02 0.  0.
    9000005    2    3    3    0    0  0.18944731152E+02  0.81496518647E+01  0.23083921095E+02  0.34402767036E+02  0.15012105204E+02 0.  0.
         22    1    3    3    0    0 -0.18944731152E+02 -0.81496518647E+01 -0.63532354098E+02  0.66795805865E+02  0.00000000000E+00 0.  1.
         22    1    4    4    0    0  0.13224772771E+01 -0.23936882357E+01  0.92411608794E+01  0.96373099938E+01  0.00000000000E+00 0. -1.
         22    1    4    4    0    0  0.17622253875E+02  0.10543340100E+02  0.13842760215E+02  0.24765457042E+02  0.00000000000E+00 0. -1.
<mgrwt>
<rscale>  0 0.92763546E+02</rscale>
<asrwt>0</asrwt>
<pdfrwt beam="1">  1        1 0.46730877E-02 0.92763546E+02</pdfrwt>
<pdfrwt beam="2">  1       -1 0.10895923E-01 0.92763546E+02</pdfrwt>
<totfact> 0.82653103E+04</totfact>
</mgrwt>
</event>
<event>
 7    1  0.3301067E-009  0.8949461E+02  0.7818608E-02  0.1304080E+00
          1   -1    0    0  501    0  0.00000000000E+00  0.00000000000E+00  0.36776082824E+03  0.36776082828E+03  0.50400000000E-02 0. -1.
         -1   -1    0    0    0  501 -0.00000000000E+00 -0.00000000000E+00 -0.54446274784E+01  0.54446298111E+01  0.50400000000E-02 0.  1.
         23    2    1    2    0    0  0.00000000000E+00  0.00000000000E+00  0.36231620076E+03  0.37320545809E+03  0.89494606601E+02 0.  0.
    9000005    2    3    3    0    0 -0.35109670456E+02  0.12752010062E+02  0.28311040497E+03  0.28563342598E+03  0.62968178341E+01 0.  0.
         22    1    3    3    0    0  0.35109670456E+02 -0.12752010062E+02  0.79205795798E+02  0.87572032112E+02  0.00000000000E+00 0.  1.
         22    1    4    4    0    0 -0.14117840646E+02  0.82406821224E+01  0.13057764442E+03  0.13159689772E+03  0.00000000000E+00 0.  1.
         22    1    4    4    0    0 -0.20991829810E+02  0.45113279394E+01  0.15253276054E+03  0.15403652826E+03  0.00000000000E+00 0.  1.
<mgrwt>
<rscale>  0 0.89494607E+02</rscale>
<asrwt>0</asrwt>
<pdfrwt beam="1">  1        1 0.56578609E-01 0.89494607E+02</pdfrwt>
<pdfrwt beam="2">  1       -1 0.83763488E-03 0.89494607E+02</pdfrwt>
<totfact> 0.13972348E+05</totfact>
</mgrwt>
</event>
<event>
 7    1  0.3301067E-009  0.9167362E+02  0.7818608E-02  0.1298849E+00
         -1   -1    0    0    0  501 -0.00000000000E+00  0.00000000000E+00  0.11927353390E+03  0.11927353400E+03  0.50400000000E-02 0.  1.
          1   -1    0    0  501    0  0.00000000000E+00 -0.00000000000E+00 -0.17615082650E+02  0.17615083371E+02  0.50400000000E-02 0. -1.
         23    2    1    2    0    0 -0.35527136788E-14 -0.17763568394E-14  0.10165845125E+03  0.13688861737E+03  0.91673621380E+02 0.  0.
    9000005    2    3    3    0    0 -0.28915562658E+02 -0.15624248900E+02  0.67600122814E+01  0.36459833475E+02  0.14261653954E+02 0.  0.
         22    1    3    3    0    0  0.28915562658E+02  0.15624248900E+02  0.94898438965E+02  0.10042878390E+03  0.00000000000E+00 0.  1.
         22    1    4    4    0    0 -0.27125289631E+02 -0.88880385133E+01  0.73180462090E+01  0.29467479812E+02  0.00000000000E+00 0.  1.
         22    1    4    4    0    0 -0.17902730267E+01 -0.67362103863E+01 -0.55803392761E+00  0.69923536627E+01  0.00000000000E+00 0.  1.
<mgrwt>
<rscale>  0 0.91673621E+02</rscale>
<asrwt>0</asrwt>
<pdfrwt beam="2">  1        1 0.27100129E-02 0.91673621E+02</pdfrwt>
<pdfrwt beam="1">  1       -1 0.18349774E-01 0.91673621E+02</pdfrwt>
<totfact> 0.77530257E+04</totfact>
</mgrwt>
</event>
<event>
 7    1  0.3301067E-009  0.9040385E+02  0.7818608E-02  0.1301877E+00
          1   -1    0    0  501    0  0.00000000000E+00  0.00000000000E+00  0.48689236814E+01  0.48689262899E+01  0.50400000000E-02 0. -1.
         -1   -1    0    0    0  501 -0.00000000000E+00 -0.00000000000E+00 -0.41964374826E+03  0.41964374829E+03  0.50400000000E-02 0.  1.
         23    2    1    2    0    0  0.00000000000E+00  0.00000000000E+00 -0.41477482458E+03  0.42451267458E+03  0.90403848231E+02 0.  0.
    9000005    2    3    3    0    0  0.18764381624E+02 -0.33819697727E+02 -0.31344448489E+03  0.31605202866E+03  0.12065062783E+02 0.  0.
         22    1    3    3    0    0 -0.18764381624E+02  0.33819697727E+02 -0.10133033969E+03  0.10846064592E+03  0.00000000000E+00 0. -1.
         22    1    4    4    0    0  0.12727259038E+02 -0.13813476329E+02 -0.18057768441E+03  0.18155190817E+03  0.00000000000E+00 0.  1.
         22    1    4    4    0    0  0.60371225862E+01 -0.20006221398E+02 -0.13286680047E+03  0.13450012049E+03  0.00000000000E+00 0.  1.
<mgrwt>
<rscale>  0 0.90403848E+02</rscale>
<asrwt>0</asrwt>
<pdfrwt beam="1">  1        1 0.74906571E-03 0.90403848E+02</pdfrwt>
<pdfrwt beam="2">  1       -1 0.64560549E-01 0.90403848E+02</pdfrwt>
<totfact> 0.53160021E+04</totfact>
</mgrwt>
</event>
<event>
 7    1  0.3301067E-009  0.9141109E+02  0.7818608E-02  0.1299470E+00
          1   -1    0    0  501    0  0.00000000000E+00  0.00000000000E+00  0.62286492404E+02  0.62286492608E+02  0.50400000000E-02 0. -1.
         -1   -1    0    0    0  501 -0.00000000000E+00 -0.00000000000E+00 -0.33538518540E+02  0.33538518919E+02  0.50400000000E-02 0.  1.
         23    2    1    2    0    0  0.00000000000E+00  0.35527136788E-14  0.28747973864E+02  0.95825011527E+02  0.91411087035E+02 0.  0.
    9000005    2    3    3    0    0 -0.86328284731E+01 -0.20426455002E+02  0.56035168088E+02  0.60663146388E+02  0.69506457006E+01 0.  0.
         22    1    3    3    0    0  0.86328284731E+01  0.20426455002E+02 -0.27287194224E+02  0.35161865139E+02  0.00000000000E+00 0.  1.
         22    1    4    4    0    0 -0.36234942844E+01 -0.42136193225E+01  0.81864195878E+01  0.98945320400E+01  0.00000000000E+00 0. -1.
         22    1    4    4    0    0 -0.50093341887E+01 -0.16212835680E+02  0.47848748500E+02  0.50768614348E+02  0.00000000000E+00 0. -1.
<mgrwt>
<rscale>  0 0.91411087E+02</rscale>
<asrwt>0</asrwt>
<pdfrwt beam="1">  1        1 0.95825373E-02 0.91411087E+02</pdfrwt>
<pdfrwt beam="2">  1       -1 0.51597722E-02 0.91411087E+02</pdfrwt>
<totfact> 0.96232168E+04</totfact>
</mgrwt>
</event>
<event>
 7    1  0.3301067E-009  0.9022165E+02  0.7818608E-02  0.1302316E+00
         -1   -1    0    0    0  501 -0.00000000000E+00  0.00000000000E+00  0.20888882632E+01  0.20888943433E+01  0.50400000000E-02 0. -1.
          1   -1    0    0  501    0  0.00000000000E+00 -0.00000000000E+00 -0.97419460169E+03  0.97419460170E+03  0.50400000000E-02 0.  1.
         23    2    1    2    0    0  0.00000000000E+00  0.00000000000E+00 -0.97210571343E+03  0.97628349604E+03  0.90221652475E+02 0.  0.
    9000005    2    3    3    0    0  0.33133930264E+02  0.10956444964E+02 -0.79526111619E+03  0.79602836410E+03  0.17356576055E+01 0.  0.
         22    1    3    3    0    0 -0.33133930264E+02 -0.10956444964E+02 -0.17684459723E+03  0.18025513194E+03  0.00000000000E+00 0. -1.
         22    1    4    4    0    0  0.89803714387E+01  0.37169452109E+01 -0.22857070673E+03  0.22877725133E+03  0.00000000000E+00 0. -1.
         22    1    4    4    0    0  0.24153558826E+02  0.72394997533E+01 -0.56669040947E+03  0.56725111277E+03  0.00000000000E+00 0. -1.
<mgrwt>
<rscale>  0 0.90221652E+02</rscale>
<asrwt>0</asrwt>
<pdfrwt beam="2">  1        1 0.14987573E+00 0.90221652E+02</pdfrwt>
<pdfrwt beam="1">  1       -1 0.32136867E-03 0.90221652E+02</pdfrwt>
<totfact> 0.14078290E+05</totfact>
</mgrwt>
</event>
<event>
 7    1  0.3301067E-009  0.9328159E+02  0.7818608E-02  0.1295094E+00
          1   -1    0    0  501    0  0.00000000000E+00  0.00000000000E+00  0.97294869656E+01  0.97294882710E+01  0.50400000000E-02 0. -1.
         -1   -1    0    0    0  501 -0.00000000000E+00 -0.00000000000E+00 -0.22358460663E+03  0.22358460668E+03  0.50400000000E-02 0.  1.
         23    2    1    2    0    0  0.00000000000E+00  0.00000000000E+00 -0.21385511966E+03  0.23331409495E+03  0.93281588211E+02 0.  0.
    9000005    2    3    3    0    0 -0.29047376470E+02  0.34809872016E+02 -0.10896717555E+03  0.11904704769E+03  0.15584509874E+02 0.  0.
         22    1    3    3    0    0  0.29047376470E+02 -0.34809872016E+02 -0.10488794412E+03  0.11426704726E+03  0.00000000000E+00 0. -1.
         22    1    4    4    0    0 -0.24710922057E+02  0.17975791751E+02 -0.69378785041E+02  0.75810121829E+02  0.00000000000E+00 0.  1.
         22    1    4    4    0    0 -0.43364544130E+01  0.16834080265E+02 -0.39588390505E+02  0.43236925862E+02  0.00000000000E+00 0.  1.
<mgrwt>
<rscale>  0 0.93281588E+02</rscale>
<asrwt>0</asrwt>
<pdfrwt beam="1">  1        1 0.14968444E-02 0.93281588E+02</pdfrwt>
<pdfrwt beam="2">  1       -1 0.34397628E-01 0.93281588E+02</pdfrwt>
<totfact> 0.63268343E+04</totfact>
</mgrwt>
</event>
<event>
 7    1  0.3301067E-009  0.9176001E+02  0.7818608E-02  0.1298645E+00
          1   -1    0    0  501    0  0.00000000000E+00  0.00000000000E+00  0.18135724458E+03  0.18135724465E+03  0.50400000000E-02 0. -1.
         -1   -1    0    0    0  501 -0.00000000000E+00 -0.00000000000E+00 -0.11606785281E+02  0.11606786375E+02  0.50400000000E-02 0.  1.
         23    2    1    2    0    0  0.17763568394E-14  0.00000000000E+00  0.16975045930E+03  0.19296403102E+03  0.91760006741E+02 0.  0.
    9000005    2    3    3    0    0  0.13053454492E+02 -0.28975717239E+02  0.15296513248E+03  0.15702335685E+03  0.15748586561E+02 0.  0.
         22    1    3    3    0    0 -0.13053454492E+02  0.28975717239E+02  0.16785326822E+02  0.35940674176E+02  0.00000000000E+00 0.  1.
         22    1    4    4    0    0 -0.25993511401E+01 -0.84733925495E+01  0.55472950720E+02  0.56176536643E+02  0.00000000000E+00 0. -1.
         22    1    4    4    0    0  0.15652805632E+02 -0.20502324690E+02  0.97492181755E+02  0.10084682020E+03  0.00000000000E+00 0. -1.
<mgrwt>
<rscale>  0 0.91760007E+02</rscale>
<asrwt>0</asrwt>
<pdfrwt beam="1">  1        1 0.27901113E-01 0.91760007E+02</pdfrwt>
<pdfrwt beam="2">  1       -1 0.17856595E-02 0.91760007E+02</pdfrwt>
<totfact> 0.11421737E+05</totfact>
</mgrwt>
</event>
<event>
 7    1  0.3301067E-009  0.9123047E+02  0.7818608E-02  0.1299899E+00
          1   -1    0    0  501    0  0.00000000000E+00  0.00000000000E+00  0.43456739582E+03  0.43456739585E+03  0.50400000000E-02 0. -1.
         -1   -1    0    0    0  501 -0.00000000000E+00 -0.00000000000E+00 -0.47880933026E+01  0.47880959552E+01  0.50400000000E-02 0.  1.
         23    2    1    2    0    0  0.88817841970E-15  0.00000000000E+00  0.42977930252E+03  0.43935549180E+03  0.91230473562E+02 0.  0.
    9000005    2    3    3    0    0  0.75350314599E+01 -0.29583121873E+02  0.37603880818E+03  0.37754951692E+03  0.14370618504E+02 0.  0.
         22    1    3    3    0    0 -0.75350314599E+01  0.29583121873E+02  0.53740494342E+02  0.61805974881E+02  0.00000000000E+00 0.  1.
         22    1    4    4    0    0  0.65647531018E+01 -0.99817836842E+01  0.21282029190E+03  0.21315536267E+03  0.00000000000E+00 0. -1.
         22    1    4    4    0    0  0.97027835806E+00 -0.19601338189E+02  0.16321851628E+03  0.16439415426E+03  0.00000000000E+00 0. -1.
<mgrwt>
<rscale>  0 0.91230474E+02</rscale>
<asrwt>0</asrwt>
<pdfrwt beam="1">  1        1 0.66856485E-01 0.91230474E+02</pdfrwt>
<pdfrwt beam="2">  1       -1 0.73663036E-03 0.91230474E+02</pdfrwt>
<totfact> 0.13644491E+05</totfact>
</mgrwt>
</event>
<event>
 7    1  0.3301067E-009  0.9170313E+02  0.7818608E-02  0.1298779E+00
          1   -1    0    0  501    0  0.00000000000E+00  0.00000000000E+00  0.88468072590E+02  0.88468072733E+02  0.50400000000E-02 0. -1.
         -1   -1    0    0    0  501 -0.00000000000E+00 -0.00000000000E+00 -0.23764121212E+02  0.23764121747E+02  0.50400000000E-02 0.  1.
         23    2    1    2    0    0  0.00000000000E+00  0.00000000000E+00  0.64703951378E+02  0.11223219448E+03  0.91703130557E+02 0.  0.
    9000005    2    3    3    0    0 -0.38955526624E+02 -0.82677682811E+01  0.59504674596E+01  0.41254304124E+02  0.89788918483E+01 0.  0.
         22    1    3    3    0    0  0.38955526624E+02  0.82677682811E+01  0.58753483918E+02  0.70977890356E+02  0.00000000000E+00 0.  1.
         22    1    4    4    0    0 -0.28259505271E+02 -0.38293238517E+01  0.66690617303E+00  0.28525569638E+02  0.00000000000E+00 0.  1.
         22    1    4    4    0    0 -0.10696021353E+02 -0.44384444294E+01  0.52835612865E+01  0.12728734486E+02  0.00000000000E+00 0.  1.
<mgrwt>
<rscale>  0 0.91703131E+02</rscale>
<asrwt>0</asrwt>
<pdfrwt beam="1">  1        1 0.13610473E-01 0.91703131E+02</pdfrwt>
<pdfrwt beam="2">  1       -1 0.36560188E-02 0.91703131E+02</pdfrwt>
<totfact> 0.10077386E+05</totfact>
</mgrwt>
</event>
<event>
 7    1  0.3301067E-009  0.9076043E+02  0.7818608E-02  0.1301021E+00
          1   -1    0    0  501    0  0.00000000000E+00  0.00000000000E+00  0.39784303716E+02  0.39784304035E+02  0.50400000000E-02 0. -1.
         -1   -1    0    0    0  501 -0.00000000000E+00 -0.00000000000E+00 -0.51763220853E+02  0.51763221098E+02  0.50400000000E-02 0.  1.
         23    2    1    2    0    0  0.44408920985E-15  0.71054273576E-14 -0.11978917137E+02  0.91547525133E+02  0.90760425859E+02 0.  0.
    9000005    2    3    3    0    0  0.26845143033E+01  0.45046074790E+02 -0.16850192289E+01  0.45262324419E+02  0.30794887580E+01 0.  0.
         22    1    3    3    0    0 -0.26845143033E+01 -0.45046074790E+02 -0.10293897908E+02  0.46285200714E+02  0.00000000000E+00 0. -1.
         22    1    4    4    0    0  0.44277319235E+00  0.30537433713E+02 -0.15722103690E+01  0.30581084862E+02  0.00000000000E+00 0.  1.
         22    1    4    4    0    0  0.22417411109E+01  0.14508641076E+02 -0.11280885991E+00  0.14681239557E+02  0.00000000000E+00 0.  1.
<mgrwt>
<rscale>  0 0.90760426E+02</rscale>
<asrwt>0</asrwt>
<pdfrwt beam="1">  1        1 0.61206622E-02 0.90760426E+02</pdfrwt>
<pdfrwt beam="2">  1       -1 0.79635725E-02 0.90760426E+02</pdfrwt>
<totfact> 0.91767692E+04</totfact>
</mgrwt>
</event>
<event>
 7    1  0.3301067E-009  0.1051349E+03  0.7818608E-02  0.1269854E+00
         -1   -1    0    0    0  501 -0.00000000000E+00  0.00000000000E+00  0.17240937451E+02  0.17240938188E+02  0.50400000000E-02 0.  1.
          1   -1    0    0  501    0  0.00000000000E+00 -0.00000000000E+00 -0.16027774921E+03  0.16027774929E+03  0.50400000000E-02 0. -1.
         23    2    1    2    0    0  0.00000000000E+00  0.88817841970E-15 -0.14303681176E+03  0.17751868748E+03  0.10513493656E+03 0.  0.
    9000005    2    3    3    0    0 -0.42742469000E+02 -0.46981722916E+01 -0.12245051586E+03  0.12984493099E+03  0.40725655116E+01 0.  0.
         22    1    3    3    0    0  0.42742469000E+02  0.46981722916E+01 -0.20586295903E+02  0.47673756493E+02  0.00000000000E+00 0.  1.
         22    1    4    4    0    0 -0.39327551439E+02 -0.47495031760E+01 -0.10926053175E+03  0.11621995474E+03  0.00000000000E+00 0. -1.
         22    1    4    4    0    0 -0.34149175613E+01  0.51330884389E-01 -0.13189984111E+02  0.13624976245E+02  0.00000000000E+00 0. -1.
<mgrwt>
<rscale>  0 0.10513494E+03</rscale>
<asrwt>0</asrwt>
<pdfrwt beam="2">  1        1 0.24658114E-01 0.10513494E+03</pdfrwt>
<pdfrwt beam="1">  1       -1 0.26524521E-02 0.10513494E+03</pdfrwt>
<totfact> 0.77080165E+04</totfact>
</mgrwt>
</event>
<event>
 7    1  0.3301067E-009  0.9108511E+02  0.7818608E-02  0.1300245E+00
          1   -1    0    0  501    0  0.00000000000E+00  0.00000000000E+00  0.41236752306E+03  0.41236752309E+03  0.50400000000E-02 0. -1.
         -1   -1    0    0    0  501 -0.00000000000E+00 -0.00000000000E+00 -0.50297939897E+01  0.50297965148E+01  0.50400000000E-02 0.  1.
         23    2    1    2    0    0  0.00000000000E+00  0.00000000000E+00  0.40733772907E+03  0.41739731960E+03  0.91085107947E+02 0.  0.
    9000005    2    3    3    0    0 -0.16799042690E+01 -0.41894563617E+02  0.28506764523E+03  0.28813808419E+03  0.14200922382E+01 0.  0.
         22    1    3    3    0    0  0.16799042690E+01  0.41894563617E+02  0.12227008383E+03  0.12925923541E+03  0.00000000000E+00 0.  1.
         22    1    4    4    0    0 -0.11810028630E+00 -0.19814902870E+02  0.13612295560E+03  0.13755763652E+03  0.00000000000E+00 0.  1.
         22    1    4    4    0    0 -0.15618039827E+01 -0.22079660747E+02  0.14894468964E+03  0.15058044767E+03  0.00000000000E+00 0.  1.
<mgrwt>
<rscale>  0 0.91085108E+02</rscale>
<asrwt>0</asrwt>
<pdfrwt beam="1">  1        1 0.63441153E-01 0.91085108E+02</pdfrwt>
<pdfrwt beam="2">  1       -1 0.77381472E-03 0.91085108E+02</pdfrwt>
<totfact> 0.13591889E+05</totfact>
</mgrwt>
</event>
<event>
 7    1  0.3301067E-009  0.8924205E+02  0.7818608E-02  0.1304698E+00
          1   -1    0    0  501    0  0.00000000000E+00  0.00000000000E+00  0.46314658742E+01  0.46314686165E+01  0.50400000000E-02 0. -1.
         -1   -1    0    0    0  501 -0.00000000000E+00 -0.00000000000E+00 -0.42989306491E+03  0.42989306494E+03  0.50400000000E-02 0.  1.
         23    2    1    2    0    0  0.00000000000E+00  0.35527136788E-14 -0.42526159903E+03  0.43452453355E+03  0.89242045290E+02 0.  0.
    9000005    2    3    3    0    0 -0.63460256724E+01 -0.21736953228E+02 -0.39980076292E+03  0.40045077014E+03  0.27206797562E+01 0.  0.
         22    1    3    3    0    0  0.63460256724E+01  0.21736953228E+02 -0.25460836114E+02  0.34073763412E+02  0.00000000000E+00 0. -1.
         22    1    4    4    0    0 -0.44129931358E+00 -0.14298725857E+01 -0.16770941555E+02  0.16837569936E+02  0.00000000000E+00 0.  1.
         22    1    4    4    0    0 -0.59047263588E+01 -0.20307080642E+02 -0.38302982136E+03  0.38361320020E+03  0.00000000000E+00 0.  1.
<mgrwt>
<rscale>  0 0.89242045E+02</rscale>
<asrwt>0</asrwt>
<pdfrwt beam="1">  1        1 0.71253377E-03 0.89242045E+02</pdfrwt>
<pdfrwt beam="2">  1       -1 0.66137363E-01 0.89242045E+02</pdfrwt>
<totfact> 0.54288078E+04</totfact>
</mgrwt>
</event>
<event>
 7    1  0.3301067E-009  0.9784391E+02  0.7818608E-02  0.1284896E+00
          1   -1    0    0  501    0  0.00000000000E+00  0.00000000000E+00  0.10226048654E+02  0.10226049896E+02  0.50400000000E-02 0. -1.
         -1   -1    0    0    0  501 -0.00000000000E+00 -0.00000000000E+00 -0.23404517184E+03  0.23404517190E+03  0.50400000000E-02 0.  1.
         23    2    1    2    0    0  0.00000000000E+00  0.00000000000E+00 -0.22381912319E+03  0.24427122179E+03  0.97843905746E+02 0.  0.
    9000005    2    3    3    0    0  0.39807303633E+02 -0.87391041018E+01 -0.17711301746E+03  0.18228369341E+03  0.14047439808E+02 0.  0.
         22    1    3    3    0    0 -0.39807303633E+02  0.87391041018E+01 -0.46706105724E+02  0.61987528382E+02  0.00000000000E+00 0.  1.
         22    1    4    4    0    0  0.18927121176E+01  0.28860499683E+01 -0.14040363869E+02  0.14458335352E+02  0.00000000000E+00 0. -1.
         22    1    4    4    0    0  0.37914591516E+02 -0.11625154070E+02 -0.16307265359E+03  0.16782535806E+03  0.00000000000E+00 0. -1.
<mgrwt>
<rscale>  0 0.97843906E+02</rscale>
<asrwt>0</asrwt>
<pdfrwt beam="1">  1        1 0.15732385E-02 0.97843906E+02</pdfrwt>
<pdfrwt beam="2">  1       -1 0.36006946E-01 0.97843906E+02</pdfrwt>
<totfact> 0.55028945E+04</totfact>
</mgrwt>
</event>
<event>
 7    1  0.3301067E-009  0.9046207E+02  0.7818608E-02  0.1301737E+00
          1   -1    0    0  501    0  0.00000000000E+00  0.00000000000E+00  0.51982738313E+03  0.51982738315E+03  0.50400000000E-02 0. -1.
         -1   -1    0    0    0  501 -0.00000000000E+00 -0.00000000000E+00 -0.39356248692E+01  0.39356280963E+01  0.50400000000E-02 0.  1.
         23    2    1    2    0    0  0.00000000000E+00  0.35527136788E-14  0.51589175826E+03  0.52376301125E+03  0.90462067813E+02 0.  0.
    9000005    2    3    3    0    0 -0.88586594823E+01  0.22784197277E+02  0.47696588248E+03  0.47779759709E+03  0.14017676134E+02 0.  0.
         22    1    3    3    0    0  0.88586594823E+01 -0.22784197277E+02  0.38925875779E+02  0.45965414156E+02  0.00000000000E+00 0.  1.
         22    1    4    4    0    0  0.33463890838E+01  0.65890610135E+01  0.91132175685E+02  0.91431326634E+02  0.00000000000E+00 0. -1.
         22    1    4    4    0    0 -0.12205048566E+02  0.16195136264E+02  0.38583370680E+03  0.38636627046E+03  0.00000000000E+00 0. -1.
<mgrwt>
<rscale>  0 0.90462068E+02</rscale>
<asrwt>0</asrwt>
<pdfrwt beam="1">  1        1 0.79973393E-01 0.90462068E+02</pdfrwt>
<pdfrwt beam="2">  1       -1 0.60548138E-03 0.90462068E+02</pdfrwt>
<totfact> 0.14282228E+05</totfact>
</mgrwt>
</event>
<event>
 7    1  0.3301067E-009  0.8910950E+02  0.7818608E-02  0.1305023E+00
         -1   -1    0    0    0  501 -0.00000000000E+00  0.00000000000E+00  0.37235608218E+01  0.37235642327E+01  0.50400000000E-02 0.  1.
          1   -1    0    0  501    0  0.00000000000E+00 -0.00000000000E+00 -0.53312535125E+03  0.53312535127E+03  0.50400000000E-02 0. -1.
         23    2    1    2    0    0  0.00000000000E+00  0.00000000000E+00 -0.52940179043E+03  0.53684891550E+03  0.89109496530E+02 0.  0.
    9000005    2    3    3    0    0  0.26536231920E+02 -0.29839962631E+02 -0.38164635013E+03  0.38379250398E+03  0.69393488584E+01 0.  0.
         22    1    3    3    0    0 -0.26536231920E+02  0.29839962631E+02 -0.14775544029E+03  0.15305641153E+03  0.00000000000E+00 0.  1.
         22    1    4    4    0    0  0.15187274914E+02 -0.17584834883E+02 -0.25339671546E+03  0.25445977116E+03  0.00000000000E+00 0.  1.
         22    1    4    4    0    0  0.11348957006E+02 -0.12255127748E+02 -0.12824963468E+03  0.12933273281E+03  0.00000000000E+00 0.  1.
<mgrwt>
<rscale>  0 0.89109497E+02</rscale>
<asrwt>0</asrwt>
<pdfrwt beam="2">  1        1 0.82019225E-01 0.89109497E+02</pdfrwt>
<pdfrwt beam="1">  1       -1 0.57285620E-03 0.89109497E+02</pdfrwt>
<totfact> 0.14901464E+05</totfact>
</mgrwt>
</event>
<event>
 7    1  0.3301067E-009  0.9555209E+02  0.7818608E-02  0.1289937E+00
         -1   -1    0    0    0  501 -0.00000000000E+00  0.00000000000E+00  0.18502601419E+02  0.18502602106E+02  0.50400000000E-02 0.  1.
          1   -1    0    0  501    0  0.00000000000E+00 -0.00000000000E+00 -0.12336376121E+03  0.12336376131E+03  0.50400000000E-02 0. -1.
         23    2    1    2    0    0  0.00000000000E+00  0.00000000000E+00 -0.10486115979E+03  0.14186636342E+03  0.95552091745E+02 0.  0.
    9000005    2    3    3    0    0 -0.32360347230E+02 -0.18936601360E+02 -0.12604468152E+02  0.42281805900E+02  0.14936249492E+02 0.  0.
         22    1    3    3    0    0  0.32360347230E+02  0.18936601360E+02 -0.92256691638E+02  0.99584557517E+02  0.00000000000E+00 0. -1.
         22    1    4    4    0    0 -0.52758513190E+01 -0.10880990050E+02 -0.33540194987E+01  0.12549103490E+02  0.00000000000E+00 0.  1.
         22    1    4    4    0    0 -0.27084495911E+02 -0.80556113098E+01 -0.92504486533E+01  0.29732702410E+02  0.00000000000E+00 0.  1.
<mgrwt>
<rscale>  0 0.95552092E+02</rscale>
<asrwt>0</asrwt>
<pdfrwt beam="2">  1        1 0.18979040E-01 0.95552092E+02</pdfrwt>
<pdfrwt beam="1">  1       -1 0.28465542E-02 0.95552092E+02</pdfrwt>
<totfact> 0.95301016E+04</totfact>
</mgrwt>
</event>
<event>
 7    1  0.3301067E-009  0.7893058E+02  0.7818608E-02  0.1332114E+00
         -1   -1    0    0    0  501 -0.00000000000E+00  0.00000000000E+00  0.15403200658E+02  0.15403201483E+02  0.50400000000E-02 0.  1.
          1   -1    0    0  501    0  0.00000000000E+00 -0.00000000000E+00 -0.10111592662E+03  0.10111592674E+03  0.50400000000E-02 0. -1.
         23    2    1    2    0    0  0.00000000000E+00  0.00000000000E+00 -0.85712725959E+02  0.11651912823E+03  0.78930576149E+02 0.  0.
    9000005    2    3    3    0    0  0.33058619021E+02 -0.13059446078E+02 -0.18147002618E+02  0.40174197850E+02  0.46077158559E+01 0.  0.
         22    1    3    3    0    0 -0.33058619021E+02  0.13059446078E+02 -0.67565723342E+02  0.76344930376E+02  0.00000000000E+00 0. -1.
         22    1    4    4    0    0  0.16752648795E+02 -0.51453228912E+01 -0.10998396403E+02  0.20690343466E+02  0.00000000000E+00 0. -1.
         22    1    4    4    0    0  0.16305970226E+02 -0.79141231867E+01 -0.71486062146E+01  0.19483854383E+02  0.00000000000E+00 0. -1.
<mgrwt>
<rscale>  0 0.78930576E+02</rscale>
<asrwt>0</asrwt>
<pdfrwt beam="2">  1        1 0.15556296E-01 0.78930576E+02</pdfrwt>
<pdfrwt beam="1">  1       -1 0.23697233E-02 0.78930576E+02</pdfrwt>
<totfact> 0.15443822E+05</totfact>
</mgrwt>
</event>
<event>
 7    1  0.3301067E-009  0.9363190E+02  0.7818608E-02  0.1294287E+00
         -1   -1    0    0    0  501 -0.00000000000E+00  0.00000000000E+00  0.62659412602E+01  0.62659432872E+01  0.50400000000E-02 0.  1.
          1   -1    0    0  501    0  0.00000000000E+00 -0.00000000000E+00 -0.34978507439E+03  0.34978507442E+03  0.50400000000E-02 0. -1.
         23    2    1    2    0    0 -0.17763568394E-14  0.00000000000E+00 -0.34351913313E+03  0.35605101771E+03  0.93631898349E+02 0.  0.
    9000005    2    3    3    0    0 -0.15926848502E+02  0.59785174776E+01 -0.33756802154E+03  0.33802817377E+03  0.46335650130E+01 0.  0.
         22    1    3    3    0    0  0.15926848502E+02 -0.59785174776E+01 -0.59511115879E+01  0.18022843937E+02  0.00000000000E+00 0.  1.
         22    1    4    4    0    0 -0.29743960674E+01  0.31263395071E+01 -0.94753358345E+02  0.94851567981E+02  0.00000000000E+00 0.  1.
         22    1    4    4    0    0 -0.12952452435E+02  0.28521779705E+01 -0.24281466319E+03  0.24317660579E+03  0.00000000000E+00 0.  1.
<mgrwt>
<rscale>  0 0.93631898E+02</rscale>
<asrwt>0</asrwt>
<pdfrwt beam="2">  1        1 0.53813073E-01 0.93631898E+02</pdfrwt>
<pdfrwt beam="1">  1       -1 0.96399139E-03 0.93631898E+02</pdfrwt>
<totfact> 0.12280944E+05</totfact>
</mgrwt>
</event>
<event>
 7    1  0.3301067E-009  0.9286047E+02  0.7818608E-02  0.1296069E+00
         -1   -1    0    0    0  501 -0.00000000000E+00  0.00000000000E+00  0.50580918946E+01  0.50580944055E+01  0.50400000000E-02 0.  1.
          1   -1    0    0  501    0  0.00000000000E+00 -0.00000000000E+00 -0.42620148200E+03  0.42620148203E+03  0.50400000000E-02 0. -1.
         23    2    1    2    0    0  0.00000000000E+00  0.00000000000E+00 -0.42114339011E+03  0.43125957644E+03  0.92860471880E+02 0.  0.
    9000005    2    3    3    0    0 -0.25493847464E+02  0.94091213373E+01 -0.38498932786E+03  0.38603144316E+03  0.80637905689E+01 0.  0.
         22    1    3    3    0    0  0.25493847464E+02 -0.94091213373E+01 -0.36154062246E+02  0.45228133277E+02  0.00000000000E+00 0.  1.
         22    1    4    4    0    0 -0.17406134598E+02  0.95246800726E+01 -0.24116833012E+03  0.24198317402E+03  0.00000000000E+00 0. -1.
         22    1    4    4    0    0 -0.80877128658E+01 -0.11555873537E+00 -0.14382099774E+03  0.14404826914E+03  0.00000000000E+00 0. -1.
<mgrwt>
<rscale>  0 0.92860472E+02</rscale>
<asrwt>0</asrwt>
<pdfrwt beam="2">  1        1 0.65569431E-01 0.92860472E+02</pdfrwt>
<pdfrwt beam="1">  1       -1 0.77816851E-03 0.92860472E+02</pdfrwt>
<totfact> 0.12978983E+05</totfact>
</mgrwt>
</event>
<event>
 7    1  0.3301067E-009  0.9118472E+02  0.7818608E-02  0.1300008E+00
         -1   -1    0    0    0  501 -0.00000000000E+00  0.00000000000E+00  0.45444151983E+02  0.45444152262E+02  0.50400000000E-02 0.  1.
          1   -1    0    0  501    0  0.00000000000E+00 -0.00000000000E+00 -0.45741054696E+02  0.45741054973E+02  0.50400000000E-02 0. -1.
         23    2    1    2    0    0  0.88817841970E-15  0.71054273576E-14 -0.29690271256E+00  0.91185207236E+02  0.91184723871E+02 0.  0.
    9000005    2    3    3    0    0 -0.52885144026E+01 -0.44235533837E+02 -0.91979685441E+01  0.45754162659E+02  0.49081500424E+01 0.  0.
         22    1    3    3    0    0  0.52885144026E+01  0.44235533837E+02  0.89010658316E+01  0.45431044577E+02  0.00000000000E+00 0.  1.
         22    1    4    4    0    0  0.59931629071E+00 -0.13131011615E+01  0.86949228121E-01  0.14460203473E+01  0.00000000000E+00 0. -1.
         22    1    4    4    0    0 -0.58878306933E+01 -0.42922432675E+02 -0.92849177722E+01  0.44308142311E+02  0.00000000000E+00 0. -1.
<mgrwt>
<rscale>  0 0.91184724E+02</rscale>
<asrwt>0</asrwt>
<pdfrwt beam="2">  1        1 0.70370854E-02 0.91184724E+02</pdfrwt>
<pdfrwt beam="1">  1       -1 0.69914080E-02 0.91184724E+02</pdfrwt>
<totfact> 0.92496299E+04</totfact>
</mgrwt>
</event>
<event>
 7    1  0.3301067E-009  0.9105880E+02  0.7818608E-02  0.1300308E+00
         -1   -1    0    0    0  501 -0.00000000000E+00  0.00000000000E+00  0.17618221060E+03  0.17618221068E+03  0.50400000000E-02 0.  1.
          1   -1    0    0  501    0  0.00000000000E+00 -0.00000000000E+00 -0.11765808424E+02  0.11765809504E+02  0.50400000000E-02 0. -1.
         23    2    1    2    0    0  0.71054273576E-14  0.35527136788E-14  0.16441640218E+03  0.18794802018E+03  0.91058799596E+02 0.  0.
    9000005    2    3    3    0    0  0.37779259126E+02  0.18808489557E+02  0.50924596018E+02  0.66863662126E+02  0.98185097548E+01 0.  0.
         22    1    3    3    0    0 -0.37779259126E+02 -0.18808489557E+02  0.11349180616E+03  0.12108435805E+03  0.00000000000E+00 0. -1.
         22    1    4    4    0    0  0.16715506339E+02  0.71520185803E+01  0.14756252573E+02  0.23415945677E+02  0.00000000000E+00 0.  1.
         22    1    4    4    0    0  0.21063752786E+02  0.11656470977E+02  0.36168343444E+02  0.43447716448E+02  0.00000000000E+00 0.  1.
<mgrwt>
<rscale>  0 0.91058800E+02</rscale>
<asrwt>0</asrwt>
<pdfrwt beam="2">  1        1 0.18101245E-02 0.91058800E+02</pdfrwt>
<pdfrwt beam="1">  1       -1 0.27104955E-01 0.91058800E+02</pdfrwt>
<totfact> 0.72116696E+04</totfact>
</mgrwt>
</event>
<event>
 7    1  0.3301067E-009  0.9098669E+02  0.7818608E-02  0.1300480E+00
         -1   -1    0    0    0  501 -0.00000000000E+00  0.00000000000E+00  0.57891164925E+02  0.57891165144E+02  0.50400000000E-02 0.  1.
          1   -1    0    0  501    0  0.00000000000E+00 -0.00000000000E+00 -0.35750612713E+02  0.35750613068E+02  0.50400000000E-02 0. -1.
         23    2    1    2    0    0  0.00000000000E+00  0.35527136788E-14  0.22140552212E+02  0.93641778213E+02  0.90986694492E+02 0.  0.
    9000005    2    3    3    0    0  0.21898548492E+02  0.16634845552E+02 -0.25852289202E+02  0.38328331930E+02  0.66675077012E+01 0.  0.
         22    1    3    3    0    0 -0.21898548492E+02 -0.16634845552E+02  0.47992841414E+02  0.55313446282E+02  0.00000000000E+00 0.  1.
         22    1    4    4    0    0  0.40151382354E+01  0.45271255986E+01 -0.93984469679E+01  0.11177969701E+02  0.00000000000E+00 0. -1.
         22    1    4    4    0    0  0.17883410257E+02  0.12107719954E+02 -0.16453842234E+02  0.27150362229E+02  0.00000000000E+00 0. -1.
<mgrwt>
<rscale>  0 0.90986694E+02</rscale>
<asrwt>0</asrwt>
<pdfrwt beam="2">  1        1 0.55000944E-02 0.90986694E+02</pdfrwt>
<pdfrwt beam="1">  1       -1 0.89063330E-02 0.90986694E+02</pdfrwt>
<totfact> 0.89647279E+04</totfact>
</mgrwt>
</event>
<event>
 7    1  0.3301067E-009  0.9160492E+02  0.7818608E-02  0.1299011E+00
         -1   -1    0    0    0  501 -0.00000000000E+00  0.00000000000E+00  0.80558511730E+01  0.80558527496E+01  0.50400000000E-02 0.  1.
          1   -1    0    0  501    0  0.00000000000E+00 -0.00000000000E+00 -0.26041509487E+03  0.26041509492E+03  0.50400000000E-02 0. -1.
         23    2    1    2    0    0  0.55511151231E-16  0.00000000000E+00 -0.25235924370E+03  0.26847094767E+03  0.91604922699E+02 0.  0.
    9000005    2    3    3    0    0  0.45050078639E+00  0.18045743434E+02 -0.24935926319E+03  0.25017199442E+03  0.89516951770E+01 0.  0.
         22    1    3    3    0    0 -0.45050078639E+00 -0.18045743434E+02 -0.29999805112E+01  0.18298953252E+02  0.00000000000E+00 0.  1.
         22    1    4    4    0    0 -0.79909919040E+00  0.42451343186E+01 -0.23895684617E+02  0.24282987218E+02  0.00000000000E+00 0. -1.
         22    1    4    4    0    0  0.12495999768E+01  0.13800609116E+02 -0.22546357857E+03  0.22588900720E+03  0.00000000000E+00 0. -1.
<mgrwt>
<rscale>  0 0.91604923E+02</rscale>
<asrwt>0</asrwt>
<pdfrwt beam="2">  1        1 0.40063854E-01 0.91604923E+02</pdfrwt>
<pdfrwt beam="1">  1       -1 0.12393620E-02 0.91604923E+02</pdfrwt>
<totfact> 0.12310798E+05</totfact>
</mgrwt>
</event>
<event>
 7    1  0.3301067E-009  0.6622023E+02  0.7818608E-02  0.1373439E+00
          1   -1    0    0  501    0  0.00000000000E+00  0.00000000000E+00  0.14148739999E+03  0.14148740008E+03  0.50400000000E-02 0. -1.
         -1   -1    0    0    0  501 -0.00000000000E+00 -0.00000000000E+00 -0.77482495495E+01  0.77482511887E+01  0.50400000000E-02 0.  1.
         23    2    1    2    0    0  0.00000000000E+00  0.00000000000E+00  0.13373915044E+03  0.14923565127E+03  0.66220232927E+02 0.  0.
    9000005    2    3    3    0    0 -0.31455385128E+02 -0.71539507368E+01  0.69284370449E+02  0.77159032810E+02  0.10609999571E+02 0.  0.
         22    1    3    3    0    0  0.31455385128E+02  0.71539507368E+01  0.64454779990E+02  0.72076618458E+02  0.00000000000E+00 0.  1.
         22    1    4    4    0    0  0.76613637664E+00  0.34975742688E+00  0.12514229740E+01  0.15084278787E+01  0.00000000000E+00 0.  1.
         22    1    4    4    0    0 -0.32221521505E+02 -0.75037081637E+01  0.68032947475E+02  0.75650604931E+02  0.00000000000E+00 0.  1.
<mgrwt>
<rscale>  0 0.66220233E+02</rscale>
<asrwt>0</asrwt>
<pdfrwt beam="1">  1        1 0.21767290E-01 0.66220233E+02</pdfrwt>
<pdfrwt beam="2">  1       -1 0.11920386E-02 0.66220233E+02</pdfrwt>
<totfact> 0.25887353E+05</totfact>
</mgrwt>
</event>
<event>
 7    1  0.3301067E-009  0.9031181E+02  0.7818608E-02  0.1302098E+00
          1   -1    0    0  501    0  0.00000000000E+00  0.00000000000E+00  0.41199338360E+02  0.41199338668E+02  0.50400000000E-02 0. -1.
         -1   -1    0    0    0  501 -0.00000000000E+00 -0.00000000000E+00 -0.49492444028E+02  0.49492444284E+02  0.50400000000E-02 0.  1.
         23    2    1    2    0    0  0.00000000000E+00  0.00000000000E+00 -0.82931056674E+01  0.90691782953E+02  0.90311814806E+02 0.  0.
    9000005    2    3    3    0    0 -0.17572892960E+02  0.32243531555E+02  0.21244252446E+02  0.43565278537E+02  0.99077413156E+01 0.  0.
         22    1    3    3    0    0  0.17572892960E+02 -0.32243531555E+02 -0.29537358113E+02  0.47126504415E+02  0.00000000000E+00 0.  1.
         22    1    4    4    0    0 -0.11503114740E+02  0.19217633770E+02  0.18237776733E+02  0.28883483111E+02  0.00000000000E+00 0.  1.
         22    1    4    4    0    0 -0.60697782192E+01  0.13025897785E+02  0.30064757121E+01  0.14681795427E+02  0.00000000000E+00 0.  1.
<mgrwt>
<rscale>  0 0.90311815E+02</rscale>
<asrwt>0</asrwt>
<pdfrwt beam="1">  1        1 0.63383598E-02 0.90311815E+02</pdfrwt>
<pdfrwt beam="2">  1       -1 0.76142222E-02 0.90311815E+02</pdfrwt>
<totfact> 0.93549134E+04</totfact>
</mgrwt>
</event>
<event>
 7    1  0.3301067E-009  0.9453371E+02  0.7818608E-02  0.1292230E+00
          1   -1    0    0  501    0  0.00000000000E+00  0.00000000000E+00  0.20385836036E+03  0.20385836042E+03  0.50400000000E-02 0. -1.
         -1   -1    0    0    0  501 -0.00000000000E+00 -0.00000000000E+00 -0.10959350699E+02  0.10959351858E+02  0.50400000000E-02 0.  1.
         23    2    1    2    0    0  0.00000000000E+00  0.35527136788E-14  0.19289900966E+03  0.21481771228E+03  0.94533706057E+02 0.  0.
    9000005    2    3    3    0    0  0.19948527618E+02 -0.25120268967E+02  0.17532152328E+03  0.17823985430E+03  0.16844783453E+01 0.  0.
         22    1    3    3    0    0 -0.19948527618E+02  0.25120268967E+02  0.17577486379E+02  0.36577857982E+02  0.00000000000E+00 0.  1.
         22    1    4    4    0    0  0.32401494720E+01 -0.39128510138E+01  0.24558089361E+02  0.25078052650E+02  0.00000000000E+00 0.  1.
         22    1    4    4    0    0  0.16708378146E+02 -0.21207417953E+02  0.15076343392E+03  0.15316180165E+03  0.00000000000E+00 0.  1.
<mgrwt>
<rscale>  0 0.94533706E+02</rscale>
<asrwt>0</asrwt>
<pdfrwt beam="1">  1        1 0.31362825E-01 0.94533706E+02</pdfrwt>
<pdfrwt beam="2">  1       -1 0.16860541E-02 0.94533706E+02</pdfrwt>
<totfact> 0.10783882E+05</totfact>
</mgrwt>
</event>
<event>
 7    1  0.3301067E-009  0.8956271E+02  0.7818608E-02  0.1303914E+00
          1   -1    0    0  501    0  0.00000000000E+00  0.00000000000E+00  0.17759471410E+02  0.17759472125E+02  0.50400000000E-02 0. -1.
         -1   -1    0    0    0  501 -0.00000000000E+00 -0.00000000000E+00 -0.11291832798E+03  0.11291832809E+03  0.50400000000E-02 0.  1.
         23    2    1    2    0    0  0.00000000000E+00  0.00000000000E+00 -0.95158856570E+02  0.13067780022E+03  0.89562712587E+02 0.  0.
    9000005    2    3    3    0    0  0.41382863398E+02  0.88326831571E+01 -0.29652149315E+02  0.52692632589E+02  0.10329854566E+02 0.  0.
         22    1    3    3    0    0 -0.41382863398E+02 -0.88326831571E+01 -0.65506707255E+02  0.77985167629E+02  0.00000000000E+00 0. -1.
         22    1    4    4    0    0  0.51910304098E+01  0.15588721982E+01 -0.12584925055E+00  0.54215050751E+01  0.00000000000E+00 0.  1.
         22    1    4    4    0    0  0.36191832988E+02  0.72738109589E+01 -0.29526300065E+02  0.47271127513E+02  0.00000000000E+00 0.  1.
<mgrwt>
<rscale>  0 0.89562713E+02</rscale>
<asrwt>0</asrwt>
<pdfrwt beam="1">  1        1 0.27322265E-02 0.89562713E+02</pdfrwt>
<pdfrwt beam="2">  1       -1 0.17372050E-01 0.89562713E+02</pdfrwt>
<totfact> 0.83244947E+04</totfact>
</mgrwt>
</event>
<event>
 7    1  0.3301067E-009  0.9172463E+02  0.7818608E-02  0.1298728E+00
         -1   -1    0    0    0  501 -0.00000000000E+00  0.00000000000E+00  0.74515200319E+02  0.74515200489E+02  0.50400000000E-02 0.  1.
          1   -1    0    0  501    0  0.00000000000E+00 -0.00000000000E+00 -0.28227152242E+02  0.28227152692E+02  0.50400000000E-02 0. -1.
         23    2    1    2    0    0  0.35527136788E-14  0.00000000000E+00  0.46288048077E+02  0.10274235318E+03  0.91724629966E+02 0.  0.
    9000005    2    3    3    0    0  0.31198592719E+02  0.13302350490E+02  0.57116468303E+02  0.67139552718E+02  0.97531467483E+01 0.  0.
         22    1    3    3    0    0 -0.31198592719E+02 -0.13302350490E+02 -0.10828420226E+02  0.35602800463E+02  0.00000000000E+00 0. -1.
         22    1    4    4    0    0  0.15700256060E+02  0.11833842659E+02  0.33844941297E+02  0.39141000547E+02  0.00000000000E+00 0.  1.
         22    1    4    4    0    0  0.15498336659E+02  0.14685078310E+01  0.23271527006E+02  0.27998552171E+02  0.00000000000E+00 0.  1.
<mgrwt>
<rscale>  0 0.91724630E+02</rscale>
<asrwt>0</asrwt>
<pdfrwt beam="2">  1        1 0.43426389E-02 0.91724630E+02</pdfrwt>
<pdfrwt beam="1">  1       -1 0.11463877E-01 0.91724630E+02</pdfrwt>
<totfact> 0.84358270E+04</totfact>
</mgrwt>
</event>
<event>
 7    1  0.3301067E-009  0.9913821E+02  0.7818608E-02  0.1282119E+00
          1   -1    0    0  501    0  0.00000000000E+00  0.00000000000E+00  0.17286333375E+02  0.17286334110E+02  0.50400000000E-02 0. -1.
         -1   -1    0    0    0  501 -0.00000000000E+00 -0.00000000000E+00 -0.14214096375E+03  0.14214096384E+03  0.50400000000E-02 0.  1.
         23    2    1    2    0    0  0.00000000000E+00 -0.71054273576E-14 -0.12485463037E+03  0.15942729795E+03  0.99138209613E+02 0.  0.
    9000005    2    3    3    0    0 -0.43602727182E+01  0.34894122998E+02 -0.11848937245E+03  0.12369036598E+03  0.47920199729E+01 0.  0.
         22    1    3    3    0    0  0.43602727182E+01 -0.34894122998E+02 -0.63652579264E+01  0.35736931967E+02  0.00000000000E+00 0. -1.
         22    1    4    4    0    0 -0.31930526458E+01  0.25706103196E+02 -0.94145894137E+02  0.97644501687E+02  0.00000000000E+00 0. -1.
         22    1    4    4    0    0 -0.11672200724E+01  0.91880198015E+01 -0.24343478311E+02  0.26045864294E+02  0.00000000000E+00 0. -1.
<mgrwt>
<rscale>  0 0.99138210E+02</rscale>
<asrwt>0</asrwt>
<pdfrwt beam="1">  1        1 0.26594361E-02 0.99138210E+02</pdfrwt>
<pdfrwt beam="2">  1       -1 0.21867840E-01 0.99138210E+02</pdfrwt>
<totfact> 0.60911092E+04</totfact>
</mgrwt>
</event>
<event>
 7    1  0.3301067E-009  0.9099528E+02  0.7818608E-02  0.1300459E+00
          1   -1    0    0  501    0  0.00000000000E+00  0.00000000000E+00  0.18332503346E+02  0.18332504039E+02  0.50400000000E-02 0. -1.
         -1   -1    0    0    0  501 -0.00000000000E+00 -0.00000000000E+00 -0.11291613094E+03  0.11291613106E+03  0.50400000000E-02 0.  1.
         23    2    1    2    0    0  0.00000000000E+00  0.00000000000E+00 -0.94583627597E+02  0.13124863509E+03  0.90995283421E+02 0.  0.
    9000005    2    3    3    0    0  0.27226174734E+01  0.23185419873E+02  0.86581742994E+01  0.25400413573E+02  0.50240110366E+01 0.  0.
         22    1    3    3    0    0 -0.27226174734E+01 -0.23185419873E+02 -0.10324180190E+03  0.10584822152E+03  0.00000000000E+00 0.  1.
         22    1    4    4    0    0 -0.68080928004E+00  0.14396262891E+02  0.59658708735E+01  0.15598317274E+02  0.00000000000E+00 0.  1.
         22    1    4    4    0    0  0.34034267534E+01  0.87891569814E+01  0.26923034259E+01  0.98020962986E+01  0.00000000000E+00 0.  1.
<mgrwt>
<rscale>  0 0.90995283E+02</rscale>
<asrwt>0</asrwt>
<pdfrwt beam="1">  1        1 0.28203853E-02 0.90995283E+02</pdfrwt>
<pdfrwt beam="2">  1       -1 0.17371712E-01 0.90995283E+02</pdfrwt>
<totfact> 0.79908053E+04</totfact>
</mgrwt>
</event>
<event>
 7    1  0.3301067E-009  0.9035606E+02  0.7818608E-02  0.1301992E+00
         -1   -1    0    0    0  501 -0.00000000000E+00  0.00000000000E+00  0.21959837474E+01  0.21959895311E+01  0.50400000000E-02 0.  1.
          1   -1    0    0  501    0  0.00000000000E+00 -0.00000000000E+00 -0.92944763296E+03  0.92944763297E+03  0.50400000000E-02 0. -1.
         23    2    1    2    0    0 -0.35527136788E-14  0.00000000000E+00 -0.92725164921E+03  0.93164362250E+03  0.90356064469E+02 0.  0.
    9000005    2    3    3    0    0 -0.29817126430E+02 -0.11330250386E+02 -0.79308890296E+03  0.79374120017E+03  0.42011016065E+01 0.  0.
         22    1    3    3    0    0  0.29817126430E+02  0.11330250386E+02 -0.13416274625E+03  0.13790242233E+03  0.00000000000E+00 0.  1.
         22    1    4    4    0    0 -0.86978579769E+01 -0.45596082365E+01 -0.28313393444E+03  0.28330419621E+03  0.00000000000E+00 0.  1.
         22    1    4    4    0    0 -0.21119268453E+02 -0.67706421497E+01 -0.50995496852E+03  0.51043700396E+03  0.00000000000E+00 0.  1.
<mgrwt>
<rscale>  0 0.90356064E+02</rscale>
<asrwt>0</asrwt>
<pdfrwt beam="2">  1        1 0.14299163E+00 0.90356064E+02</pdfrwt>
<pdfrwt beam="1">  1       -1 0.33784484E-03 0.90356064E+02</pdfrwt>
<totfact> 0.14168951E+05</totfact>
</mgrwt>
</event>
<event>
 7    1  0.3301067E-009  0.1046973E+03  0.7818608E-02  0.1270717E+00
         -1   -1    0    0    0  501 -0.00000000000E+00  0.00000000000E+00  0.10016788853E+03  0.10016788866E+03  0.50400000000E-02 0.  1.
          1   -1    0    0  501    0  0.00000000000E+00 -0.00000000000E+00 -0.27357894818E+02  0.27357895282E+02  0.50400000000E-02 0. -1.
         23    2    1    2    0    0  0.00000000000E+00  0.00000000000E+00  0.72809993711E+02  0.12752578394E+03  0.10469732750E+03 0.  0.
    9000005    2    3    3    0    0 -0.14713445800E+02 -0.11037472899E+02  0.95830400342E+02  0.98059694670E+02  0.96915836497E+01 0.  0.
         22    1    3    3    0    0  0.14713445800E+02  0.11037472899E+02 -0.23020406631E+02  0.29466089269E+02  0.00000000000E+00 0. -1.
         22    1    4    4    0    0 -0.44795389599E+01  0.13894136714E+01  0.22165577051E+02  0.22656335663E+02  0.00000000000E+00 0.  1.
         22    1    4    4    0    0 -0.10233906840E+02 -0.12426886570E+02  0.73664823291E+02  0.75403359007E+02  0.00000000000E+00 0.  1.
<mgrwt>
<rscale>  0 0.10469733E+03</rscale>
<asrwt>0</asrwt>
<pdfrwt beam="2">  1        1 0.42089071E-02 0.10469733E+03</pdfrwt>
<pdfrwt beam="1">  1       -1 0.15410444E-01 0.10469733E+03</pdfrwt>
<totfact> 0.56927606E+04</totfact>
</mgrwt>
</event>
<event>
 7    1  0.3301067E-009  0.9042421E+02  0.7818608E-02  0.1301828E+00
         -1   -1    0    0    0  501 -0.00000000000E+00  0.00000000000E+00  0.17039951940E+02  0.17039952685E+02  0.50400000000E-02 0.  1.
          1   -1    0    0  501    0  0.00000000000E+00 -0.00000000000E+00 -0.11996126855E+03  0.11996126866E+03  0.50400000000E-02 0. -1.
         23    2    1    2    0    0 -0.17763568394E-14  0.00000000000E+00 -0.10292131661E+03  0.13700122134E+03  0.90424207136E+02 0.  0.
    9000005    2    3    3    0    0  0.13981705015E+02  0.11512643901E+02 -0.11386835519E+03  0.11583836004E+03  0.11157701295E+02 0.  0.
         22    1    3    3    0    0 -0.13981705015E+02 -0.11512643901E+02  0.10947038581E+02  0.21162861300E+02  0.00000000000E+00 0.  1.
         22    1    4    4    0    0  0.25833117427E+01  0.52396296967E+01 -0.14669164361E+02  0.15789604237E+02  0.00000000000E+00 0.  1.
         22    1    4    4    0    0  0.11398393272E+02  0.62730142048E+01 -0.99199190832E+02  0.10004875580E+03  0.00000000000E+00 0.  1.
<mgrwt>
<rscale>  0 0.90424207E+02</rscale>
<asrwt>0</asrwt>
<pdfrwt beam="2">  1        1 0.18455579E-01 0.90424207E+02</pdfrwt>
<pdfrwt beam="1">  1       -1 0.26215312E-02 0.90424207E+02</pdfrwt>
<totfact> 0.11017936E+05</totfact>
</mgrwt>
</event>
<event>
 7    1  0.3301067E-009  0.9322485E+02  0.7818608E-02  0.1295225E+00
          1   -1    0    0  501    0  0.00000000000E+00  0.00000000000E+00  0.50223040273E+03  0.50223040276E+03  0.50400000000E-02 0. -1.
         -1   -1    0    0    0  501 -0.00000000000E+00 -0.00000000000E+00 -0.43261363562E+01  0.43261392920E+01  0.50400000000E-02 0.  1.
         23    2    1    2    0    0  0.00000000000E+00  0.00000000000E+00  0.49790426638E+03  0.50655654205E+03  0.93224845496E+02 0.  0.
    9000005    2    3    3    0    0 -0.28961642498E+01 -0.21499303920E+02  0.47295666821E+03  0.47349613536E+03  0.63223696104E+01 0.  0.
         22    1    3    3    0    0  0.28961642498E+01  0.21499303920E+02  0.24947598167E+02  0.33060406693E+02  0.00000000000E+00 0.  1.
         22    1    4    4    0    0 -0.39306390544E+01 -0.10659614265E+02  0.28260008476E+03  0.28282836705E+03  0.00000000000E+00 0. -1.
         22    1    4    4    0    0  0.10344748046E+01 -0.10839689656E+02  0.19035658345E+03  0.19066776831E+03  0.00000000000E+00 0. -1.
<mgrwt>
<rscale>  0 0.93224845E+02</rscale>
<asrwt>0</asrwt>
<pdfrwt beam="1">  1        1 0.77266181E-01 0.93224845E+02</pdfrwt>
<pdfrwt beam="2">  1       -1 0.66555997E-03 0.93224845E+02</pdfrwt>
<totfact> 0.13136170E+05</totfact>
</mgrwt>
</event>
<event>
 7    1  0.3301067E-009  0.9135713E+02  0.7818608E-02  0.1299598E+00
          1   -1    0    0  501    0  0.00000000000E+00  0.00000000000E+00  0.20178132488E+03  0.20178132494E+03  0.50400000000E-02 0. -1.
         -1   -1    0    0    0  501 -0.00000000000E+00 -0.00000000000E+00 -0.10340555344E+02  0.10340556572E+02  0.50400000000E-02 0.  1.
         23    2    1    2    0    0 -0.35527136788E-14  0.00000000000E+00  0.19144076953E+03  0.21212188151E+03  0.91357125486E+02 0.  0.
    9000005    2    3    3    0    0 -0.28964161953E+02  0.10877227652E+02  0.24314864770E+02  0.42156282635E+02  0.15122921603E+02 0.  0.
         22    1    3    3    0    0  0.28964161953E+02 -0.10877227652E+02  0.16712590476E+03  0.16996559888E+03  0.00000000000E+00 0. -1.
         22    1    4    4    0    0 -0.18954630404E+02  0.95159581981E+01  0.24029313738E+02  0.32050575547E+02  0.00000000000E+00 0.  1.
         22    1    4    4    0    0 -0.10009531549E+02  0.13612694537E+01  0.28555103198E+00  0.10105707088E+02  0.00000000000E+00 0.  1.
<mgrwt>
<rscale>  0 0.91357125E+02</rscale>
<asrwt>0</asrwt>
<pdfrwt beam="1">  1        1 0.31043278E-01 0.91357125E+02</pdfrwt>
<pdfrwt beam="2">  1       -1 0.15908549E-02 0.91357125E+02</pdfrwt>
<totfact> 0.11798275E+05</totfact>
</mgrwt>
</event>
<event>
 7    1  0.3301067E-009  0.9242643E+02  0.7818608E-02  0.1297080E+00
         -1   -1    0    0    0  501 -0.00000000000E+00  0.00000000000E+00  0.76386756430E+01  0.76386773057E+01  0.50400000000E-02 0.  1.
          1   -1    0    0  501    0  0.00000000000E+00 -0.00000000000E+00 -0.27958525982E+03  0.27958525987E+03  0.50400000000E-02 0. -1.
         23    2    1    2    0    0  0.00000000000E+00  0.00000000000E+00 -0.27194658418E+03  0.28722393717E+03  0.92426432575E+02 0.  0.
    9000005    2    3    3    0    0 -0.33902517700E+02  0.18173924804E+02 -0.57485154456E+02  0.69340075706E+02  0.48816868819E+01 0.  0.
         22    1    3    3    0    0  0.33902517700E+02 -0.18173924804E+02 -0.21446142972E+03  0.21788386147E+03  0.00000000000E+00 0. -1.
         22    1    4    4    0    0 -0.33027510524E+02  0.16736572578E+02 -0.54063504167E+02  0.65527031032E+02  0.00000000000E+00 0.  1.
         22    1    4    4    0    0 -0.87500717616E+00  0.14373522261E+01 -0.34216502894E+01  0.38130446737E+01  0.00000000000E+00 0.  1.
<mgrwt>
<rscale>  0 0.92426433E+02</rscale>
<asrwt>0</asrwt>
<pdfrwt beam="2">  1        1 0.43013109E-01 0.92426433E+02</pdfrwt>
<pdfrwt beam="1">  1       -1 0.11751812E-02 0.92426433E+02</pdfrwt>
<totfact> 0.12188425E+05</totfact>
</mgrwt>
</event>
<event>
 7    1  0.3301067E-009  0.9006133E+02  0.7818608E-02  0.1302703E+00
         -1   -1    0    0    0  501 -0.00000000000E+00  0.00000000000E+00  0.40044581647E+02  0.40044581964E+02  0.50400000000E-02 0.  1.
          1   -1    0    0  501    0  0.00000000000E+00 -0.00000000000E+00 -0.50637579225E+02  0.50637579476E+02  0.50400000000E-02 0. -1.
         23    2    1    2    0    0  0.00000000000E+00  0.00000000000E+00 -0.10592997578E+02  0.90682161440E+02  0.90061328026E+02 0.  0.
    9000005    2    3    3    0    0  0.28118072348E+02  0.92977451027E+01 -0.37935017010E+02  0.50375089068E+02  0.14883212911E+02 0.  0.
         22    1    3    3    0    0 -0.28118072348E+02 -0.92977451027E+01  0.27342019432E+02  0.40307072372E+02  0.00000000000E+00 0.  1.
         22    1    4    4    0    0  0.28241742118E+01  0.61396276900E+01 -0.37374172073E+01  0.77226469253E+01  0.00000000000E+00 0. -1.
         22    1    4    4    0    0  0.25293898136E+02  0.31581174127E+01 -0.34197599803E+02  0.42652442143E+02  0.00000000000E+00 0. -1.
<mgrwt>
<rscale>  0 0.90061328E+02</rscale>
<asrwt>0</asrwt>
<pdfrwt beam="2">  1        1 0.77903969E-02 0.90061328E+02</pdfrwt>
<pdfrwt beam="1">  1       -1 0.61607049E-02 0.90061328E+02</pdfrwt>
<totfact> 0.97223507E+04</totfact>
</mgrwt>
</event>
<event>
 7    1  0.3381608E-009  0.9226022E+02  0.7818608E-02  0.1297469E+00
          1   -1    0    0  501    0  0.00000000000E+00  0.00000000000E+00  0.16976928658E+03  0.16976928665E+03  0.50400000000E-02 0. -1.
         -1   -1    0    0    0  501 -0.00000000000E+00 -0.00000000000E+00 -0.12534582151E+02  0.12534583165E+02  0.50400000000E-02 0.  1.
         23    2    1    2    0    0  0.00000000000E+00  0.00000000000E+00  0.15723470443E+03  0.18230386982E+03  0.92260222601E+02 0.  0.
    9000005    2    3    3    0    0  0.36608699984E+02 -0.19386723488E+02  0.11579157122E+03  0.12370715274E+03  0.13406331036E+02 0.  0.
         22    1    3    3    0    0 -0.36608699984E+02  0.19386723488E+02  0.41443133209E+02  0.58596717078E+02  0.00000000000E+00 0. -1.
         22    1    4    4    0    0  0.36376665944E+02 -0.18258490584E+02  0.11557844534E+03  0.12253575532E+03  0.00000000000E+00 0. -1.
         22    1    4    4    0    0  0.23203403944E+00 -0.11282329042E+01  0.21312587575E+00  0.11713974221E+01  0.00000000000E+00 0. -1.
<mgrwt>
<rscale>  0 0.92260223E+02</rscale>
<asrwt>0</asrwt>
<pdfrwt beam="1">  1        1 0.26118351E-01 0.92260223E+02</pdfrwt>
<pdfrwt beam="2">  1       -1 0.19283974E-02 0.92260223E+02</pdfrwt>
<totfact> 0.11115180E+05</totfact>
</mgrwt>
</event>
<event>
 7    1  0.3301067E-009  0.8990973E+02  0.7818608E-02  0.1303070E+00
         -1   -1    0    0    0  501 -0.00000000000E+00  0.00000000000E+00  0.43737770917E+01  0.43737799956E+01  0.50400000000E-02 0.  1.
          1   -1    0    0  501    0  0.00000000000E+00 -0.00000000000E+00 -0.46205811265E+03  0.46205811268E+03  0.50400000000E-02 0. -1.
         23    2    1    2    0    0  0.00000000000E+00  0.00000000000E+00 -0.45768433556E+03  0.46643189267E+03  0.89909729658E+02 0.  0.
    9000005    2    3    3    0    0 -0.43415807555E+02 -0.28229732405E+00 -0.26779984898E+03  0.27164706195E+03  0.13796924078E+02 0.  0.
         22    1    3    3    0    0  0.43415807555E+02  0.28229732405E+00 -0.18988448658E+03  0.19478483073E+03  0.00000000000E+00 0. -1.
         22    1    4    4    0    0 -0.41433773629E+02  0.18673656181E-01 -0.22390172431E+03  0.22770318420E+03  0.00000000000E+00 0. -1.
         22    1    4    4    0    0 -0.19820339260E+01 -0.30097098023E+00 -0.43898124670E+02  0.43943877749E+02  0.00000000000E+00 0. -1.
<mgrwt>
<rscale>  0 0.89909730E+02</rscale>
<asrwt>0</asrwt>
<pdfrwt beam="2">  1        1 0.71085825E-01 0.89909730E+02</pdfrwt>
<pdfrwt beam="1">  1       -1 0.67288937E-03 0.89909730E+02</pdfrwt>
<totfact> 0.14307380E+05</totfact>
</mgrwt>
</event>
<event>
 7    1  0.3301067E-009  0.9337016E+02  0.7818608E-02  0.1294890E+00
          1   -1    0    0  501    0  0.00000000000E+00  0.00000000000E+00  0.13661485330E+02  0.13661486260E+02  0.50400000000E-02 0. -1.
         -1   -1    0    0    0  501 -0.00000000000E+00 -0.00000000000E+00 -0.15953585419E+03  0.15953585427E+03  0.50400000000E-02 0.  1.
         23    2    1    2    0    0  0.22204460493E-15  0.00000000000E+00 -0.14587436886E+03  0.17319734053E+03  0.93370162665E+02 0.  0.
    9000005    2    3    3    0    0  0.12456105784E+01  0.28489490310E+02 -0.14113385299E+03  0.14428929503E+03  0.93505933193E+01 0.  0.
         22    1    3    3    0    0 -0.12456105784E+01 -0.28489490310E+02 -0.47405158645E+01  0.28908045498E+02  0.00000000000E+00 0. -1.
         22    1    4    4    0    0 -0.62996757206E-01  0.14136907683E+02 -0.92189898407E+02  0.93267537202E+02  0.00000000000E+00 0. -1.
         22    1    4    4    0    0  0.13086073357E+01  0.14352582627E+02 -0.48943954588E+02  0.51021757829E+02  0.00000000000E+00 0. -1.
<mgrwt>
<rscale>  0 0.93370163E+02</rscale>
<asrwt>0</asrwt>
<pdfrwt beam="1">  1        1 0.21017672E-02 0.93370163E+02</pdfrwt>
<pdfrwt beam="2">  1       -1 0.24543976E-01 0.93370163E+02</pdfrwt>
<totfact> 0.69275808E+04</totfact>
</mgrwt>
</event>
<event>
 7    1  0.3301067E-009  0.8214821E+02  0.7818608E-02  0.1323063E+00
          1   -1    0    0  501    0  0.00000000000E+00  0.00000000000E+00  0.14021924536E+02  0.14021925442E+02  0.50400000000E-02 0. -1.
         -1   -1    0    0    0  501 -0.00000000000E+00 -0.00000000000E+00 -0.12031744515E+03  0.12031744526E+03  0.50400000000E-02 0.  1.
         23    2    1    2    0    0  0.35527136788E-14  0.11102230246E-15 -0.10629552062E+03  0.13433937070E+03  0.82148212501E+02 0.  0.
    9000005    2    3    3    0    0 -0.26057011104E+02 -0.80584818841E+00 -0.10420487938E+03  0.10818620646E+03  0.12883367711E+02 0.  0.
         22    1    3    3    0    0  0.26057011104E+02  0.80584818841E+00 -0.20906412405E+01  0.26153164240E+02  0.00000000000E+00 0. -1.
         22    1    4    4    0    0 -0.22242598217E+02  0.49062615167E+00 -0.63542932220E+02  0.67325167097E+02  0.00000000000E+00 0. -1.
         22    1    4    4    0    0 -0.38144128870E+01 -0.12964743401E+01 -0.40661947157E+02  0.40861039365E+02  0.00000000000E+00 0. -1.
<mgrwt>
<rscale>  0 0.82148213E+02</rscale>
<asrwt>0</asrwt>
<pdfrwt beam="1">  1        1 0.21572193E-02 0.82148213E+02</pdfrwt>
<pdfrwt beam="2">  1       -1 0.18510376E-01 0.82148213E+02</pdfrwt>
<totfact> 0.10269318E+05</totfact>
</mgrwt>
</event>
<event>
 7    1  0.3301067E-009  0.8633007E+02  0.7818608E-02  0.1311990E+00
          1   -1    0    0  501    0  0.00000000000E+00  0.00000000000E+00  0.51425413409E+02  0.51425413656E+02  0.50400000000E-02 0. -1.
         -1   -1    0    0    0  501 -0.00000000000E+00 -0.00000000000E+00 -0.36231508396E+02  0.36231508747E+02  0.50400000000E-02 0.  1.
         23    2    1    2    0    0  0.00000000000E+00 -0.35527136788E-14  0.15193905013E+02  0.87656922403E+02  0.86330071792E+02 0.  0.
    9000005    2    3    3    0    0 -0.22315503498E+02 -0.25834402128E+02  0.33765057696E+02  0.48794527448E+02  0.86849731165E+01 0.  0.
         22    1    3    3    0    0  0.22315503498E+02  0.25834402128E+02 -0.18571152683E+02  0.38862394955E+02  0.00000000000E+00 0.  1.
         22    1    4    4    0    0 -0.24055405538E+01 -0.69892320757E+01  0.10488655952E+02  0.12831519553E+02  0.00000000000E+00 0. -1.
         22    1    4    4    0    0 -0.19909962944E+02 -0.18845170052E+02  0.23276401744E+02  0.35963007895E+02  0.00000000000E+00 0. -1.
<mgrwt>
<rscale>  0 0.86330072E+02</rscale>
<asrwt>0</asrwt>
<pdfrwt beam="1">  1        1 0.79116020E-02 0.86330072E+02</pdfrwt>
<pdfrwt beam="2">  1       -1 0.55740783E-02 0.86330072E+02</pdfrwt>
<totfact> 0.10958521E+05</totfact>
</mgrwt>
</event>
<event>
 7    1  0.3301067E-009  0.9189475E+02  0.7818608E-02  0.1298327E+00
         -1   -1    0    0    0  501 -0.00000000000E+00  0.00000000000E+00  0.32240922367E+02  0.32240922760E+02  0.50400000000E-02 0.  1.
          1   -1    0    0  501    0  0.00000000000E+00 -0.00000000000E+00 -0.65480796213E+02  0.65480796407E+02  0.50400000000E-02 0. -1.
         23    2    1    2    0    0  0.00000000000E+00  0.00000000000E+00 -0.33239873846E+02  0.97721719167E+02  0.91894750578E+02 0.  0.
    9000005    2    3    3    0    0  0.70750770127E+01  0.18817470251E+02 -0.60039173946E+02  0.64220131336E+02  0.10740994338E+02 0.  0.
         22    1    3    3    0    0 -0.70750770127E+01 -0.18817470251E+02  0.26799300100E+02  0.33501587831E+02  0.00000000000E+00 0.  1.
         22    1    4    4    0    0 -0.44031661413E+00  0.13089677452E+02 -0.39422640303E+02  0.41541281913E+02  0.00000000000E+00 0.  1.
         22    1    4    4    0    0  0.75153936268E+01  0.57277927989E+01 -0.20616533643E+02  0.22678849423E+02  0.00000000000E+00 0.  1.
<mgrwt>
<rscale>  0 0.91894751E+02</rscale>
<asrwt>0</asrwt>
<pdfrwt beam="2">  1        1 0.10073969E-01 0.91894751E+02</pdfrwt>
<pdfrwt beam="1">  1       -1 0.49601420E-02 0.91894751E+02</pdfrwt>
<totfact> 0.95562822E+04</totfact>
</mgrwt>
</event>
<event>
 7    1  0.3301067E-009  0.9304996E+02  0.7818608E-02  0.1295629E+00
         -1   -1    0    0    0  501 -0.00000000000E+00  0.00000000000E+00  0.40499495144E+01  0.40499526505E+01  0.50400000000E-02 0.  1.
          1   -1    0    0  501    0  0.00000000000E+00 -0.00000000000E+00 -0.53446916545E+03  0.53446916548E+03  0.50400000000E-02 0. -1.
         23    2    1    2    0    0 -0.71054273576E-14  0.00000000000E+00 -0.53041921594E+03  0.53851911813E+03  0.93049964812E+02 0.  0.
    9000005    2    3    3    0    0  0.37997734731E+02 -0.23099031835E+02 -0.33589396841E+03  0.33897597732E+03  0.10127293350E+02 0.  0.
         22    1    3    3    0    0 -0.37997734731E+02  0.23099031835E+02 -0.19452524753E+03  0.19954314080E+03  0.00000000000E+00 0.  1.
         22    1    4    4    0    0  0.36762179752E+01 -0.56107111608E+01 -0.67383163711E+02  0.67716212313E+02  0.00000000000E+00 0. -1.
         22    1    4    4    0    0  0.34321516756E+02 -0.17488320674E+02 -0.26851080470E+03  0.27125976501E+03  0.00000000000E+00 0. -1.
<mgrwt>
<rscale>  0 0.93049965E+02</rscale>
<asrwt>0</asrwt>
<pdfrwt beam="2">  1        1 0.82225970E-01 0.93049965E+02</pdfrwt>
<pdfrwt beam="1">  1       -1 0.62306982E-03 0.93049965E+02</pdfrwt>
<totfact> 0.13291390E+05</totfact>
</mgrwt>
</event>
<event>
 7    1  0.3301067E-009  0.9068481E+02  0.7818608E-02  0.1301202E+00
          1   -1    0    0  501    0  0.00000000000E+00  0.00000000000E+00  0.57009195411E+02  0.57009195634E+02  0.50400000000E-02 0. -1.
         -1   -1    0    0    0  501 -0.00000000000E+00 -0.00000000000E+00 -0.36063190274E+02  0.36063190626E+02  0.50400000000E-02 0.  1.
         23    2    1    2    0    0  0.00000000000E+00  0.00000000000E+00  0.20946005137E+02  0.93072386260E+02  0.90684805524E+02 0.  0.
    9000005    2    3    3    0    0  0.88515341482E+01 -0.37443584078E+02  0.34249910826E+02  0.52361631515E+02  0.93974686958E+01 0.  0.
         22    1    3    3    0    0 -0.88515341482E+01  0.37443584078E+02 -0.13303905689E+02  0.40710754746E+02  0.00000000000E+00 0.  1.
         22    1    4    4    0    0  0.51362160566E+01 -0.30604744923E+02  0.31191664847E+02  0.43999444123E+02  0.00000000000E+00 0. -1.
         22    1    4    4    0    0  0.37153180916E+01 -0.68388391546E+01  0.30582459794E+01  0.83621873917E+01  0.00000000000E+00 0. -1.
<mgrwt>
<rscale>  0 0.90684806E+02</rscale>
<asrwt>0</asrwt>
<pdfrwt beam="1">  1        1 0.87706455E-02 0.90684806E+02</pdfrwt>
<pdfrwt beam="2">  1       -1 0.55481832E-02 0.90684806E+02</pdfrwt>
<totfact> 0.97077986E+04</totfact>
</mgrwt>
</event>
<event>
 6    1  0.3301067E-009  0.1296405E+03  0.7818608E-02  0.1227990E+00
          1   -1    0    0  501    0  0.00000000000E+00  0.00000000000E+00  0.26974803654E+03  0.26974803659E+03  0.50400000000E-02 0. -1.
         -1   -1    0    0    0  501 -0.00000000000E+00 -0.00000000000E+00 -0.15576263800E+02  0.15576264615E+02  0.50400000000E-02 0.  1.
    9000005    2    1    2    0    0 -0.40350823594E+01 -0.28138962273E+02  0.25491628206E+03  0.25688775110E+03  0.14174721133E+02 0.  0.
         22    1    1    2    0    0  0.40350823594E+01  0.28138962273E+02 -0.74450932031E+00  0.28436550100E+02  0.00000000000E+00 0.  1.
         22    1    3    3    0    0 -0.19134495388E+00 -0.16523771686E+02  0.19707959810E+03  0.19777117998E+03  0.00000000000E+00 0. -1.
         22    1    3    3    0    0 -0.38437374056E+01 -0.11615190587E+02  0.57836683963E+02  0.59116571124E+02  0.00000000000E+00 0. -1.
<mgrwt>
<rscale>  0 0.12964053E+03</rscale>
<asrwt>0</asrwt>
<pdfrwt beam="1">  1        1 0.41499692E-01 0.12964053E+03</pdfrwt>
<pdfrwt beam="2">  1       -1 0.23963487E-02 0.12964053E+03</pdfrwt>
<totfact> 0.48179205E+04</totfact>
</mgrwt>
</event>
<event>
 7    1  0.3301067E-009  0.9204044E+02  0.7818608E-02  0.1297984E+00
         -1   -1    0    0    0  501 -0.00000000000E+00  0.00000000000E+00  0.27745176022E+02  0.27745176480E+02  0.50400000000E-02 0.  1.
          1   -1    0    0  501    0  0.00000000000E+00 -0.00000000000E+00 -0.76332570728E+02  0.76332570895E+02  0.50400000000E-02 0. -1.
         23    2    1    2    0    0  0.00000000000E+00  0.88817841970E-15 -0.48587394706E+02  0.10407774737E+03  0.92040439885E+02 0.  0.
    9000005    2    3    3    0    0 -0.31161365512E+02 -0.76839807747E+01 -0.60766940895E+02  0.69749688786E+02  0.11929950496E+02 0.  0.
         22    1    3    3    0    0  0.31161365512E+02  0.76839807747E+01  0.12179546189E+02  0.34328058589E+02  0.00000000000E+00 0.  1.
         22    1    4    4    0    0 -0.21865401188E+02 -0.80065990158E+01 -0.32419664429E+02  0.39915360935E+02  0.00000000000E+00 0.  1.
         22    1    4    4    0    0 -0.92959643248E+01  0.32261824106E+00 -0.28347276466E+02  0.29834327851E+02  0.00000000000E+00 0.  1.
<mgrwt>
<rscale>  0 0.92040440E+02</rscale>
<asrwt>0</asrwt>
<pdfrwt beam="2">  1        1 0.11743472E-01 0.92040440E+02</pdfrwt>
<pdfrwt beam="1">  1       -1 0.42684887E-02 0.92040440E+02</pdfrwt>
<totfact> 0.97441387E+04</totfact>
</mgrwt>
</event>
<event>
 7    1  0.3301067E-009  0.9398706E+02  0.7818608E-02  0.1293474E+00
          1   -1    0    0  501    0  0.00000000000E+00  0.00000000000E+00  0.58331291442E+02  0.58331291660E+02  0.50400000000E-02 0. -1.
         -1   -1    0    0    0  501 -0.00000000000E+00 -0.00000000000E+00 -0.37859474874E+02  0.37859475209E+02  0.50400000000E-02 0.  1.
         23    2    1    2    0    0  0.00000000000E+00 -0.35527136788E-14  0.20471816568E+02  0.96190766869E+02  0.93987064840E+02 0.  0.
    9000005    2    3    3    0    0  0.32368620350E+02 -0.17061614346E+02  0.39050525853E+02  0.55154262314E+02  0.13350011783E+02 0.  0.
         22    1    3    3    0    0 -0.32368620350E+02  0.17061614346E+02 -0.18578709285E+02  0.41036504555E+02  0.00000000000E+00 0.  1.
         22    1    4    4    0    0  0.10532625427E+02 -0.16075769462E+01  0.47768524948E+01  0.11676421617E+02  0.00000000000E+00 0.  1.
         22    1    4    4    0    0  0.21835994922E+02 -0.15454037400E+02  0.34273673358E+02  0.43477840696E+02  0.00000000000E+00 0.  1.
<mgrwt>
<rscale>  0 0.93987065E+02</rscale>
<asrwt>0</asrwt>
<pdfrwt beam="1">  1        1 0.89740448E-02 0.93987065E+02</pdfrwt>
<pdfrwt beam="2">  1       -1 0.58245347E-02 0.93987065E+02</pdfrwt>
<totfact> 0.88179789E+04</totfact>
</mgrwt>
</event>
<event>
 7    1  0.3301067E-009  0.8949048E+02  0.7818608E-02  0.1304090E+00
         -1   -1    0    0    0  501 -0.00000000000E+00  0.00000000000E+00  0.56580450232E+02  0.56580450457E+02  0.50400000000E-02 0.  1.
          1   -1    0    0  501    0  0.00000000000E+00 -0.00000000000E+00 -0.35385660236E+02  0.35385660595E+02  0.50400000000E-02 0. -1.
         23    2    1    2    0    0  0.00000000000E+00  0.00000000000E+00  0.21194789996E+02  0.91966111051E+02  0.89490482505E+02 0.  0.
    9000005    2    3    3    0    0  0.32332355157E+02  0.12079251801E+02 -0.16883123123E+02  0.40573339366E+02  0.13033284576E+02 0.  0.
         22    1    3    3    0    0 -0.32332355157E+02 -0.12079251801E+02  0.38077913119E+02  0.51392771686E+02  0.00000000000E+00 0.  1.
         22    1    4    4    0    0  0.16511577888E+02 -0.74451788856E+00 -0.76263296333E+01  0.18202950720E+02  0.00000000000E+00 0.  1.
         22    1    4    4    0    0  0.15820777268E+02  0.12823769690E+02 -0.92567934895E+01  0.22370388645E+02  0.00000000000E+00 0.  1.
<mgrwt>
<rscale>  0 0.89490483E+02</rscale>
<asrwt>0</asrwt>
<pdfrwt beam="2">  1        1 0.54439479E-02 0.89490483E+02</pdfrwt>
<pdfrwt beam="1">  1       -1 0.87046846E-02 0.89490483E+02</pdfrwt>
<totfact> 0.93813174E+04</totfact>
</mgrwt>
</event>
<event>
 7    1  0.3301067E-009  0.8834331E+02  0.7818608E-02  0.1306914E+00
          1   -1    0    0  501    0  0.00000000000E+00  0.00000000000E+00  0.95639916401E+01  0.95639929681E+01  0.50400000000E-02 0. -1.
         -1   -1    0    0    0  501 -0.00000000000E+00 -0.00000000000E+00 -0.20400842521E+03  0.20400842527E+03  0.50400000000E-02 0.  1.
         23    2    1    2    0    0  0.00000000000E+00  0.00000000000E+00 -0.19444443357E+03  0.21357241824E+03  0.88343308103E+02 0.  0.
    9000005    2    3    3    0    0  0.23097035170E+01 -0.37992682152E+02 -0.47841991249E+02  0.62109370860E+02  0.10951675417E+02 0.  0.
         22    1    3    3    0    0 -0.23097035170E+01  0.37992682152E+02 -0.14660244232E+03  0.15146304738E+03  0.00000000000E+00 0.  1.
         22    1    4    4    0    0 -0.13203614512E+01 -0.86374061500E+01 -0.18429836901E+02  0.20396250331E+02  0.00000000000E+00 0.  1.
         22    1    4    4    0    0  0.36300649682E+01 -0.29355276002E+02 -0.29412154348E+02  0.41713120528E+02  0.00000000000E+00 0.  1.
<mgrwt>
<rscale>  0 0.88343308E+02</rscale>
<asrwt>0</asrwt>
<pdfrwt beam="1">  1        1 0.14713836E-02 0.88343308E+02</pdfrwt>
<pdfrwt beam="2">  1       -1 0.31385908E-01 0.88343308E+02</pdfrwt>
<totfact> 0.74938075E+04</totfact>
</mgrwt>
</event>
<event>
 7    1  0.3301067E-009  0.9170140E+02  0.7818608E-02  0.1298783E+00
         -1   -1    0    0    0  501 -0.00000000000E+00  0.00000000000E+00  0.10548509498E+02  0.10548510702E+02  0.50400000000E-02 0.  1.
          1   -1    0    0  501    0  0.00000000000E+00 -0.00000000000E+00 -0.19929703472E+03  0.19929703478E+03  0.50400000000E-02 0. -1.
         23    2    1    2    0    0  0.44408920985E-15 -0.35527136788E-14 -0.18874852522E+03  0.20984554548E+03  0.91701402315E+02 0.  0.
    9000005    2    3    3    0    0 -0.34505761075E+01 -0.25814706210E+02 -0.18040521625E+03  0.18249748638E+03  0.89991639427E+01 0.  0.
         22    1    3    3    0    0  0.34505761075E+01  0.25814706210E+02 -0.83433089665E+01  0.27348059103E+02  0.00000000000E+00 0.  1.
         22    1    4    4    0    0 -0.49478306215E+01 -0.18089719416E+02 -0.14625139349E+03  0.14744893717E+03  0.00000000000E+00 0.  1.
         22    1    4    4    0    0  0.14972545140E+01 -0.77249867933E+01 -0.34153822766E+02  0.35048549207E+02  0.00000000000E+00 0.  1.
<mgrwt>
<rscale>  0 0.91701402E+02</rscale>
<asrwt>0</asrwt>
<pdfrwt beam="2">  1        1 0.30661079E-01 0.91701402E+02</pdfrwt>
<pdfrwt beam="1">  1       -1 0.16228479E-02 0.91701402E+02</pdfrwt>
<totfact> 0.11651659E+05</totfact>
</mgrwt>
</event>
<event>
 7    1  0.3301067E-009  0.9178704E+02  0.7818608E-02  0.1298581E+00
         -1   -1    0    0    0  501 -0.00000000000E+00  0.00000000000E+00  0.19405588393E+03  0.19405588399E+03  0.50400000000E-02 0.  1.
          1   -1    0    0  501    0  0.00000000000E+00 -0.00000000000E+00 -0.10853652313E+02  0.10853653483E+02  0.50400000000E-02 0. -1.
         23    2    1    2    0    0  0.00000000000E+00  0.00000000000E+00  0.18320223162E+03  0.20490953748E+03  0.91787040915E+02 0.  0.
    9000005    2    3    3    0    0 -0.27729075484E+01  0.44069196358E+02  0.64768135151E+02  0.78511680338E+02  0.44033549236E+01 0.  0.
         22    1    3    3    0    0  0.27729075484E+01 -0.44069196358E+02  0.11843409646E+03  0.12639785714E+03  0.00000000000E+00 0.  1.
         22    1    4    4    0    0  0.97685585249E+00  0.17381741719E+02  0.24376059246E+02  0.29954489762E+02  0.00000000000E+00 0.  1.
         22    1    4    4    0    0 -0.37497634009E+01  0.26687454639E+02  0.40392075905E+02  0.48557190576E+02  0.00000000000E+00 0.  1.
<mgrwt>
<rscale>  0 0.91787041E+02</rscale>
<asrwt>0</asrwt>
<pdfrwt beam="2">  1        1 0.16697929E-02 0.91787041E+02</pdfrwt>
<pdfrwt beam="1">  1       -1 0.29854749E-01 0.91787041E+02</pdfrwt>
<totfact> 0.68812642E+04</totfact>
</mgrwt>
</event>
<event>
 7    1  0.3301067E-009  0.9209038E+02  0.7818608E-02  0.1297867E+00
          1   -1    0    0  501    0  0.00000000000E+00  0.00000000000E+00  0.46712394366E+01  0.46712421555E+01  0.50400000000E-02 0. -1.
         -1   -1    0    0    0  501 -0.00000000000E+00 -0.00000000000E+00 -0.45387500055E+03  0.45387500058E+03  0.50400000000E-02 0.  1.
         23    2    1    2    0    0 -0.71054273576E-14 -0.88817841970E-15 -0.44920376112E+03  0.45854624274E+03  0.92090378035E+02 0.  0.
    9000005    2    3    3    0    0  0.44878444645E+02  0.47809501622E+01 -0.22371355075E+03  0.22858370829E+03  0.12877368832E+02 0.  0.
         22    1    3    3    0    0 -0.44878444645E+02 -0.47809501622E+01 -0.22549021037E+03  0.22996253445E+03  0.00000000000E+00 0.  1.
         22    1    4    4    0    0  0.37269144620E+02  0.83737190217E+01 -0.17205067096E+03  0.17624001160E+03  0.00000000000E+00 0.  1.
         22    1    4    4    0    0  0.76093000250E+01 -0.35927688595E+01 -0.51662879784E+02  0.52343696684E+02  0.00000000000E+00 0.  1.
<mgrwt>
<rscale>  0 0.92090378E+02</rscale>
<asrwt>0</asrwt>
<pdfrwt beam="1">  1        1 0.71865279E-03 0.92090378E+02</pdfrwt>
<pdfrwt beam="2">  1       -1 0.69826888E-01 0.92090378E+02</pdfrwt>
<totfact> 0.48523523E+04</totfact>
</mgrwt>
</event>
<event>
 7    1  0.3301067E-009  0.8863563E+02  0.7818608E-02  0.1306190E+00
         -1   -1    0    0    0  501 -0.00000000000E+00  0.00000000000E+00  0.43364195996E+03  0.43364195999E+03  0.50400000000E-02 0.  1.
          1   -1    0    0  501    0  0.00000000000E+00 -0.00000000000E+00 -0.45292386996E+01  0.45292415037E+01  0.50400000000E-02 0. -1.
         23    2    1    2    0    0  0.00000000000E+00  0.00000000000E+00  0.42911272126E+03  0.43817120150E+03  0.88635626417E+02 0.  0.
    9000005    2    3    3    0    0 -0.96262791189E+01 -0.21034915076E+02  0.40002663501E+03  0.40100759947E+03  0.15832031261E+02 0.  0.
         22    1    3    3    0    0  0.96262791189E+01  0.21034915076E+02  0.29086086252E+02  0.37163602024E+02  0.00000000000E+00 0. -1.
         22    1    4    4    0    0 -0.70321092649E+01 -0.21661615387E+02  0.38886496412E+03  0.38953130357E+03  0.00000000000E+00 0. -1.
         22    1    4    4    0    0 -0.25941698541E+01  0.62670031073E+00  0.11161670887E+02  0.11476295896E+02  0.00000000000E+00 0. -1.
<mgrwt>
<rscale>  0 0.88635626E+02</rscale>
<asrwt>0</asrwt>
<pdfrwt beam="2">  1        1 0.69680607E-03 0.88635626E+02</pdfrwt>
<pdfrwt beam="1">  1       -1 0.66714158E-01 0.88635626E+02</pdfrwt>
<totfact> 0.55006189E+04</totfact>
</mgrwt>
</event>
<event>
 7    1  0.3301067E-009  0.9337621E+02  0.7818608E-02  0.1294876E+00
         -1   -1    0    0    0  501 -0.00000000000E+00  0.00000000000E+00  0.14190838551E+02  0.14190839446E+02  0.50400000000E-02 0.  1.
          1   -1    0    0  501    0  0.00000000000E+00 -0.00000000000E+00 -0.15360466579E+03  0.15360466587E+03  0.50400000000E-02 0. -1.
         23    2    1    2    0    0  0.00000000000E+00  0.35527136788E-14 -0.13941382724E+03  0.16779550532E+03  0.93376208853E+02 0.  0.
    9000005    2    3    3    0    0 -0.49089381065E+00 -0.28571268575E+02 -0.13600691126E+03  0.13901764158E+03  0.33862067527E+01 0.  0.
         22    1    3    3    0    0  0.49089381065E+00  0.28571268575E+02 -0.34069159801E+01  0.28777863737E+02  0.00000000000E+00 0.  1.
         22    1    4    4    0    0 -0.56689596427E+00 -0.10266958714E+02 -0.56795095870E+02  0.57718408910E+02  0.00000000000E+00 0.  1.
         22    1    4    4    0    0  0.76002153618E-01 -0.18304309861E+02 -0.79211815390E+02  0.81299232673E+02  0.00000000000E+00 0.  1.
<mgrwt>
<rscale>  0 0.93376209E+02</rscale>
<asrwt>0</asrwt>
<pdfrwt beam="2">  1        1 0.23631486E-01 0.93376209E+02</pdfrwt>
<pdfrwt beam="1">  1       -1 0.21832061E-02 0.93376209E+02</pdfrwt>
<totfact> 0.10559896E+05</totfact>
</mgrwt>
</event>
<event>
 7    1  0.3301067E-009  0.9172838E+02  0.7818608E-02  0.1298719E+00
          1   -1    0    0  501    0  0.00000000000E+00  0.00000000000E+00  0.87053108375E+02  0.87053108521E+02  0.50400000000E-02 0. -1.
         -1   -1    0    0    0  501 -0.00000000000E+00 -0.00000000000E+00 -0.24163685568E+02  0.24163686094E+02  0.50400000000E-02 0.  1.
         23    2    1    2    0    0  0.00000000000E+00 -0.71054273576E-14  0.62889422807E+02  0.11121679461E+03  0.91728381122E+02 0.  0.
    9000005    2    3    3    0    0 -0.17868770175E+02 -0.40258471236E+02  0.45357460079E+02  0.63809968409E+02  0.86241190645E+01 0.  0.
         22    1    3    3    0    0  0.17868770175E+02  0.40258471236E+02  0.17531962728E+02  0.47406826206E+02  0.00000000000E+00 0.  1.
         22    1    4    4    0    0 -0.18664137052E+02 -0.37392089862E+02  0.41090221463E+02  0.58608230617E+02  0.00000000000E+00 0.  1.
         22    1    4    4    0    0  0.79536687655E+00 -0.28663813744E+01  0.42672386160E+01  0.52017377921E+01  0.00000000000E+00 0.  1.
<mgrwt>
<rscale>  0 0.91728381E+02</rscale>
<asrwt>0</asrwt>
<pdfrwt beam="1">  1        1 0.13392786E-01 0.91728381E+02</pdfrwt>
<pdfrwt beam="2">  1       -1 0.37174902E-02 0.91728381E+02</pdfrwt>
<totfact> 0.10043556E+05</totfact>
</mgrwt>
</event>
<event>
 7    1  0.4575481E-009  0.9208913E+02  0.7818608E-02  0.1297870E+00
          1   -1    0    0  501    0  0.00000000000E+00  0.00000000000E+00  0.60036627773E+03  0.60036627775E+03  0.50400000000E-02 0. -1.
         -1   -1    0    0    0  501 -0.00000000000E+00 -0.00000000000E+00 -0.35313457523E+01  0.35313493489E+01  0.50400000000E-02 0.  1.
         23    2    1    2    0    0  0.00000000000E+00 -0.71054273576E-14  0.59683493198E+03  0.60389762710E+03  0.92089130674E+02 0.  0.
    9000005    2    3    3    0    0 -0.22553820918E+02  0.37376559799E+02  0.37388051914E+03  0.37670970431E+03  0.14760645796E+02 0.  0.
         22    1    3    3    0    0  0.22553820918E+02 -0.37376559799E+02  0.22295441284E+03  0.22718792280E+03  0.00000000000E+00 0.  1.
         22    1    4    4    0    0  0.19973174684E+01  0.11287640886E+01  0.20223030394E+02  0.20352747818E+02  0.00000000000E+00 0. -1.
         22    1    4    4    0    0 -0.24551138386E+02  0.36247795710E+02  0.35365748875E+03  0.35635695649E+03  0.00000000000E+00 0. -1.
<mgrwt>
<rscale>  0 0.92089131E+02</rscale>
<asrwt>0</asrwt>
<pdfrwt beam="1">  1        1 0.92364086E-01 0.92089131E+02</pdfrwt>
<pdfrwt beam="2">  1       -1 0.54328399E-03 0.92089131E+02</pdfrwt>
<totfact> 0.13790732E+05</totfact>
</mgrwt>
</event>
<event>
 7    1  0.3301067E-009  0.9132833E+02  0.7818608E-02  0.1299666E+00
          1   -1    0    0  501    0  0.00000000000E+00  0.00000000000E+00  0.19786874652E+03  0.19786874659E+03  0.50400000000E-02 0. -1.
         -1   -1    0    0    0  501 -0.00000000000E+00 -0.00000000000E+00 -0.10538378534E+02  0.10538379740E+02  0.50400000000E-02 0.  1.
         23    2    1    2    0    0  0.00000000000E+00 -0.35527136788E-14  0.18733036799E+03  0.20840712633E+03  0.91328328207E+02 0.  0.
    9000005    2    3    3    0    0  0.36279269860E+02  0.24396287370E+02  0.12244388786E+03  0.13016634692E+03  0.62775741104E+01 0.  0.
         22    1    3    3    0    0 -0.36279269860E+02 -0.24396287370E+02  0.64886480128E+02  0.78240779408E+02  0.00000000000E+00 0.  1.
         22    1    4    4    0    0  0.26362998027E+01  0.18219689727E+01  0.50809166230E+01  0.60071092314E+01  0.00000000000E+00 0. -1.
         22    1    4    4    0    0  0.33642970057E+02  0.22574318397E+02  0.11736297124E+03  0.12415923769E+03  0.00000000000E+00 0. -1.
<mgrwt>
<rscale>  0 0.91328328E+02</rscale>
<asrwt>0</asrwt>
<pdfrwt beam="1">  1        1 0.30441346E-01 0.91328328E+02</pdfrwt>
<pdfrwt beam="2">  1       -1 0.16212891E-02 0.91328328E+02</pdfrwt>
<totfact> 0.11763493E+05</totfact>
</mgrwt>
</event>
<event>
 7    1  0.3301067E-009  0.9111723E+02  0.7818608E-02  0.1300169E+00
         -1   -1    0    0    0  501 -0.00000000000E+00  0.00000000000E+00  0.41228705840E+01  0.41228736646E+01  0.50400000000E-02 0.  1.
          1   -1    0    0  501    0  0.00000000000E+00 -0.00000000000E+00 -0.50343237522E+03  0.50343237524E+03  0.50400000000E-02 0. -1.
         23    2    1    2    0    0 -0.35527136788E-14 -0.55511151231E-16 -0.49930950463E+03  0.50755524891E+03  0.91117228207E+02 0.  0.
    9000005    2    3    3    0    0 -0.18680977681E+02  0.19260870379E+00 -0.48103912913E+03  0.48142437356E+03  0.46655848428E+01 0.  0.
         22    1    3    3    0    0  0.18680977681E+02 -0.19260870379E+00 -0.18270375507E+02  0.26130875347E+02  0.00000000000E+00 0.  1.
         22    1    4    4    0    0 -0.31345911184E+01 -0.13722215719E+01 -0.11710738100E+03  0.11715736143E+03  0.00000000000E+00 0. -1.
         22    1    4    4    0    0 -0.15546386563E+02  0.15648302757E+01 -0.36393174813E+03  0.36426701213E+03  0.00000000000E+00 0. -1.
<mgrwt>
<rscale>  0 0.91117228E+02</rscale>
<asrwt>0</asrwt>
<pdfrwt beam="2">  1        1 0.77451086E-01 0.91117228E+02</pdfrwt>
<pdfrwt beam="1">  1       -1 0.63428842E-03 0.91117228E+02</pdfrwt>
<totfact> 0.13961855E+05</totfact>
</mgrwt>
</event>
<event>
 7    1  0.3301067E-009  0.9368428E+02  0.7818608E-02  0.1294167E+00
         -1   -1    0    0    0  501 -0.00000000000E+00  0.00000000000E+00  0.54796236246E+02  0.54796236478E+02  0.50400000000E-02 0.  1.
          1   -1    0    0  501    0  0.00000000000E+00 -0.00000000000E+00 -0.40042641287E+02  0.40042641604E+02  0.50400000000E-02 0. -1.
         23    2    1    2    0    0  0.17763568394E-14  0.00000000000E+00  0.14753594959E+02  0.94838878082E+02  0.93684279533E+02 0.  0.
    9000005    2    3    3    0    0  0.11766589830E+02  0.44641038007E+02  0.15285918198E+02  0.48670076076E+02  0.19601274326E+01 0.  0.
         22    1    3    3    0    0 -0.11766589830E+02 -0.44641038007E+02 -0.53232323934E+00  0.46168802005E+02  0.00000000000E+00 0.  1.
         22    1    4    4    0    0  0.12717277557E+01  0.37446785158E+01  0.18180469564E+01  0.43526088047E+01  0.00000000000E+00 0.  1.
         22    1    4    4    0    0  0.10494862074E+02  0.40896359491E+02  0.13467871242E+02  0.44317467272E+02  0.00000000000E+00 0.  1.
<mgrwt>
<rscale>  0 0.93684280E+02</rscale>
<asrwt>0</asrwt>
<pdfrwt beam="2">  1        1 0.61604064E-02 0.93684280E+02</pdfrwt>
<pdfrwt beam="1">  1       -1 0.84301902E-02 0.93684280E+02</pdfrwt>
<totfact> 0.83968233E+04</totfact>
</mgrwt>
</event>
<event>
 7    1  0.3301067E-009  0.9146157E+02  0.7818608E-02  0.1299350E+00
          1   -1    0    0  501    0  0.00000000000E+00  0.00000000000E+00  0.52913329919E+02  0.52913330159E+02  0.50400000000E-02 0. -1.
         -1   -1    0    0    0  501 -0.00000000000E+00 -0.00000000000E+00 -0.39523207767E+02  0.39523208089E+02  0.50400000000E-02 0.  1.
         23    2    1    2    0    0 -0.44408920985E-15  0.00000000000E+00  0.13390122151E+02  0.92436538248E+02  0.91461566967E+02 0.  0.
    9000005    2    3    3    0    0 -0.33730538512E+01  0.33997804283E+02  0.36326980360E+02  0.51286475637E+02  0.11976013228E+02 0.  0.
         22    1    3    3    0    0  0.33730538512E+01 -0.33997804283E+02 -0.22936858208E+02  0.41150062611E+02  0.00000000000E+00 0.  1.
         22    1    4    4    0    0 -0.68780522219E+01  0.11341859406E+02  0.12654937437E+02  0.18332834442E+02  0.00000000000E+00 0.  1.
         22    1    4    4    0    0  0.35049983706E+01  0.22655944877E+02  0.23672042922E+02  0.32953641195E+02  0.00000000000E+00 0.  1.
<mgrwt>
<rscale>  0 0.91461567E+02</rscale>
<asrwt>0</asrwt>
<pdfrwt beam="1">  1        1 0.81405123E-02 0.91461567E+02</pdfrwt>
<pdfrwt beam="2">  1       -1 0.60804936E-02 0.91461567E+02</pdfrwt>
<totfact> 0.93744812E+04</totfact>
</mgrwt>
</event>
<event>
 7    1  0.3301067E-009  0.9293042E+02  0.7818608E-02  0.1295907E+00
         -1   -1    0    0    0  501 -0.00000000000E+00  0.00000000000E+00  0.68261894469E+03  0.68261894471E+03  0.50400000000E-02 0.  1.
          1   -1    0    0  501    0  0.00000000000E+00 -0.00000000000E+00 -0.31628399554E+01  0.31628439710E+01  0.50400000000E-02 0. -1.
         23    2    1    2    0    0  0.00000000000E+00  0.00000000000E+00  0.67945610474E+03  0.68578178868E+03  0.92930422487E+02 0.  0.
    9000005    2    3    3    0    0 -0.14236335859E+02 -0.32995100757E+02  0.55357443724E+03  0.55487134546E+03  0.12091423196E+02 0.  0.
         22    1    3    3    0    0  0.14236335859E+02  0.32995100757E+02  0.12588166750E+03  0.13091044322E+03  0.00000000000E+00 0. -1.
         22    1    4    4    0    0 -0.10702874391E+02 -0.32655699202E+02  0.50095672410E+03  0.50213403154E+03  0.00000000000E+00 0.  1.
         22    1    4    4    0    0 -0.35334614681E+01 -0.33940155488E+00  0.52617713142E+02  0.52737313922E+02  0.00000000000E+00 0.  1.
<mgrwt>
<rscale>  0 0.92930422E+02</rscale>
<asrwt>0</asrwt>
<pdfrwt beam="2">  1        1 0.48659090E-03 0.92930422E+02</pdfrwt>
<pdfrwt beam="1">  1       -1 0.10501834E+00 0.92930422E+02</pdfrwt>
<totfact> 0.35793981E+04</totfact>
</mgrwt>
</event>
<event>
 7    1  0.3301067E-009  0.9220967E+02  0.7818608E-02  0.1297587E+00
         -1   -1    0    0    0  501 -0.00000000000E+00  0.00000000000E+00  0.76918358025E+01  0.76918374537E+01  0.50400000000E-02 0.  1.
          1   -1    0    0  501    0  0.00000000000E+00 -0.00000000000E+00 -0.27635219902E+03  0.27635219906E+03  0.50400000000E-02 0. -1.
         23    2    1    2    0    0  0.00000000000E+00  0.00000000000E+00 -0.26866036321E+03  0.28404403652E+03  0.92209673669E+02 0.  0.
    9000005    2    3    3    0    0 -0.60648154516E+01 -0.37206539479E+02 -0.53200563395E+02  0.65311245411E+02  0.37616838229E+01 0.  0.
         22    1    3    3    0    0  0.60648154516E+01  0.37206539479E+02 -0.21545979982E+03  0.21873279110E+03  0.00000000000E+00 0. -1.
         22    1    4    4    0    0 -0.43470444660E+01 -0.17627988899E+02 -0.23498866520E+02  0.29695782797E+02  0.00000000000E+00 0. -1.
         22    1    4    4    0    0 -0.17177709856E+01 -0.19578550580E+02 -0.29701696875E+02  0.35615462614E+02  0.00000000000E+00 0. -1.
<mgrwt>
<rscale>  0 0.92209674E+02</rscale>
<asrwt>0</asrwt>
<pdfrwt beam="2">  1        1 0.42515716E-01 0.92209674E+02</pdfrwt>
<pdfrwt beam="1">  1       -1 0.11833597E-02 0.92209674E+02</pdfrwt>
<totfact> 0.12237423E+05</totfact>
</mgrwt>
</event>
<event>
 7    1  0.3301067E-009  0.9210902E+02  0.7818608E-02  0.1297823E+00
         -1   -1    0    0    0  501 -0.00000000000E+00  0.00000000000E+00  0.88231137400E+01  0.88231151795E+01  0.50400000000E-02 0.  1.
          1   -1    0    0  501    0  0.00000000000E+00 -0.00000000000E+00 -0.24039332731E+03  0.24039332736E+03  0.50400000000E-02 0. -1.
         23    2    1    2    0    0 -0.16653345369E-15  0.00000000000E+00 -0.23157021357E+03  0.24921644254E+03  0.92109019214E+02 0.  0.
    9000005    2    3    3    0    0  0.30405510122E+00  0.43358031725E+02 -0.85917603492E+02  0.97247056852E+02  0.13969399128E+02 0.  0.
         22    1    3    3    0    0 -0.30405510122E+00 -0.43358031725E+02 -0.14565261008E+03  0.15196938569E+03  0.00000000000E+00 0. -1.
         22    1    4    4    0    0 -0.51169733793E+01  0.11461196485E+02 -0.17189985301E+02  0.21284690181E+02  0.00000000000E+00 0.  1.
         22    1    4    4    0    0  0.54210284806E+01  0.31896835240E+02 -0.68727618191E+02  0.75962366671E+02  0.00000000000E+00 0.  1.
<mgrwt>
<rscale>  0 0.92109019E+02</rscale>
<asrwt>0</asrwt>
<pdfrwt beam="2">  1        1 0.36983584E-01 0.92109019E+02</pdfrwt>
<pdfrwt beam="1">  1       -1 0.13574024E-02 0.92109019E+02</pdfrwt>
<totfact> 0.11943279E+05</totfact>
</mgrwt>
</event>
<event>
 7    1  0.3301067E-009  0.9118862E+02  0.7818608E-02  0.1299999E+00
          1   -1    0    0  501    0  0.00000000000E+00  0.00000000000E+00  0.11943363659E+04  0.11943363659E+04  0.50400000000E-02 0. -1.
         -1   -1    0    0    0  501 -0.00000000000E+00 -0.00000000000E+00 -0.17405788546E+01  0.17405861515E+01  0.50400000000E-02 0.  1.
         23    2    1    2    0    0  0.00000000000E+00  0.00000000000E+00  0.11925957871E+04  0.11960769521E+04  0.91188617580E+02 0.  0.
    9000005    2    3    3    0    0 -0.10482526988E+02 -0.32890280379E+02  0.98634178453E+03  0.98695409948E+03  0.40773361531E+01 0.  0.
         22    1    3    3    0    0  0.10482526988E+02  0.32890280379E+02  0.20625400255E+03  0.20912285261E+03  0.00000000000E+00 0.  1.
         22    1    4    4    0    0 -0.18199939083E+00 -0.18494920739E+01  0.82163094693E+02  0.82184109621E+02  0.00000000000E+00 0. -1.
         22    1    4    4    0    0 -0.10300527597E+02 -0.31040788306E+02  0.90417868983E+03  0.90476998986E+03  0.00000000000E+00 0. -1.
<mgrwt>
<rscale>  0 0.91188618E+02</rscale>
<asrwt>0</asrwt>
<pdfrwt beam="1">  1        1 0.18374396E+00 0.91188618E+02</pdfrwt>
<pdfrwt beam="2">  1       -1 0.26778206E-03 0.91188618E+02</pdfrwt>
<totfact> 0.12754001E+05</totfact>
</mgrwt>
</event>
<event>
 7    1  0.3301067E-009  0.8748497E+02  0.7818608E-02  0.1309059E+00
          1   -1    0    0  501    0  0.00000000000E+00  0.00000000000E+00  0.11339363936E+03  0.11339363947E+03  0.50400000000E-02 0. -1.
         -1   -1    0    0    0  501 -0.00000000000E+00 -0.00000000000E+00 -0.16874006617E+02  0.16874007370E+02  0.50400000000E-02 0.  1.
         23    2    1    2    0    0  0.00000000000E+00  0.00000000000E+00  0.96519632745E+02  0.13026764684E+03  0.87484971903E+02 0.  0.
    9000005    2    3    3    0    0  0.40485096209E+02  0.90816091000E+01  0.64769504711E+02  0.78022175565E+02  0.13071055832E+02 0.  0.
         22    1    3    3    0    0 -0.40485096209E+02 -0.90816091000E+01  0.31750128034E+02  0.52245471278E+02  0.00000000000E+00 0.  1.
         22    1    4    4    0    0  0.26340032362E+02  0.21011716039E+01  0.30883977511E+02  0.40645200133E+02  0.00000000000E+00 0.  1.
         22    1    4    4    0    0  0.14145063847E+02  0.69804374961E+01  0.33885527200E+02  0.37376975432E+02  0.00000000000E+00 0.  1.
<mgrwt>
<rscale>  0 0.87484972E+02</rscale>
<asrwt>0</asrwt>
<pdfrwt beam="1">  1        1 0.17445175E-01 0.87484972E+02</pdfrwt>
<pdfrwt beam="2">  1       -1 0.25960012E-02 0.87484972E+02</pdfrwt>
<totfact> 0.11932283E+05</totfact>
</mgrwt>
</event>
<event>
 7    1  0.5516000E-009  0.8913701E+02  0.7818608E-02  0.1304955E+00
         -1   -1    0    0    0  501 -0.00000000000E+00  0.00000000000E+00  0.20480322682E+03  0.20480322688E+03  0.50400000000E-02 0.  1.
          1   -1    0    0  501    0  0.00000000000E+00 -0.00000000000E+00 -0.96988285560E+01  0.96988298655E+01  0.50400000000E-02 0. -1.
         23    2    1    2    0    0  0.00000000000E+00  0.00000000000E+00  0.19510439826E+03  0.21450205675E+03  0.89137007617E+02 0.  0.
    9000005    2    3    3    0    0 -0.14787314910E+02  0.37804954660E+01  0.19790865055E+03  0.19898365931E+03  0.13917826091E+02 0.  0.
         22    1    3    3    0    0  0.14787314910E+02 -0.37804954660E+01 -0.28042522814E+01  0.15518397439E+02  0.00000000000E+00 0. -1.
         22    1    4    4    0    0 -0.24206857632E+01  0.58564119981E+01  0.11033021017E+03  0.11051204711E+03  0.00000000000E+00 0. -1.
         22    1    4    4    0    0 -0.12366629146E+02 -0.20759165322E+01  0.87578440377E+02  0.88471612197E+02  0.00000000000E+00 0. -1.
<mgrwt>
<rscale>  0 0.89137008E+02</rscale>
<asrwt>0</asrwt>
<pdfrwt beam="2">  1        1 0.14921276E-02 0.89137008E+02</pdfrwt>
<pdfrwt beam="1">  1       -1 0.31508189E-01 0.89137008E+02</pdfrwt>
<totfact> 0.73133029E+04</totfact>
</mgrwt>
</event>
<event>
 7    1  0.3301067E-009  0.9068699E+02  0.7818608E-02  0.1301197E+00
          1   -1    0    0  501    0  0.00000000000E+00  0.00000000000E+00  0.31004559605E+01  0.31004600569E+01  0.50400000000E-02 0. -1.
         -1   -1    0    0    0  501 -0.00000000000E+00 -0.00000000000E+00 -0.66313834762E+03  0.66313834763E+03  0.50400000000E-02 0.  1.
         23    2    1    2    0    0  0.00000000000E+00  0.17763568394E-14 -0.66003789165E+03  0.66623880769E+03  0.90686991646E+02 0.  0.
    9000005    2    3    3    0    0  0.38645089980E+02 -0.14934871215E+02 -0.46096388457E+03  0.46289930427E+03  0.84598848203E+01 0.  0.
         22    1    3    3    0    0 -0.38645089980E+02  0.14934871215E+02 -0.19907400708E+03  0.20333950343E+03  0.00000000000E+00 0. -1.
         22    1    4    4    0    0  0.33165171047E+02 -0.11831138820E+02 -0.35300016835E+03  0.35475205887E+03  0.00000000000E+00 0. -1.
         22    1    4    4    0    0  0.54799189336E+01 -0.31037323950E+01 -0.10796371622E+03  0.10814724540E+03  0.00000000000E+00 0. -1.
<mgrwt>
<rscale>  0 0.90686992E+02</rscale>
<asrwt>0</asrwt>
<pdfrwt beam="1">  1        1 0.47699407E-03 0.90686992E+02</pdfrwt>
<pdfrwt beam="2">  1       -1 0.10202117E+00 0.90686992E+02</pdfrwt>
<totfact> 0.39085556E+04</totfact>
</mgrwt>
</event>
<event>
 7    1  0.4275955E-009  0.9209337E+02  0.7818608E-02  0.1297860E+00
          1   -1    0    0  501    0  0.00000000000E+00  0.00000000000E+00  0.48776507859E+02  0.48776508119E+02  0.50400000000E-02 0. -1.
         -1   -1    0    0    0  501 -0.00000000000E+00 -0.00000000000E+00 -0.43469639424E+02  0.43469639716E+02  0.50400000000E-02 0.  1.
         23    2    1    2    0    0  0.00000000000E+00  0.17763568394E-14  0.53068684344E+01  0.92246147836E+02  0.92093370760E+02 0.  0.
    9000005    2    3    3    0    0  0.26147659572E+01 -0.11500166858E+02 -0.40922595803E+02  0.44536041962E+02  0.13027254035E+02 0.  0.
         22    1    3    3    0    0 -0.26147659572E+01  0.11500166858E+02  0.46229464237E+02  0.47710105873E+02  0.00000000000E+00 0. -1.
         22    1    4    4    0    0  0.34647372576E+00 -0.89765724033E+01 -0.40032527311E+02  0.41028065261E+02  0.00000000000E+00 0. -1.
         22    1    4    4    0    0  0.22682922314E+01 -0.25235944550E+01 -0.89006849202E+00  0.35079767019E+01  0.00000000000E+00 0. -1.
<mgrwt>
<rscale>  0 0.92093371E+02</rscale>
<asrwt>0</asrwt>
<pdfrwt beam="1">  1        1 0.75040782E-02 0.92093371E+02</pdfrwt>
<pdfrwt beam="2">  1       -1 0.66876369E-02 0.92093371E+02</pdfrwt>
<totfact> 0.90833013E+04</totfact>
</mgrwt>
</event>
<event>
 7    1  0.3301067E-009  0.8834273E+02  0.7818608E-02  0.1306915E+00
          1   -1    0    0  501    0  0.00000000000E+00  0.00000000000E+00  0.31215468734E+03  0.31215468738E+03  0.50400000000E-02 0. -1.
         -1   -1    0    0    0  501 -0.00000000000E+00 -0.00000000000E+00 -0.62504555175E+01  0.62504575494E+01  0.50400000000E-02 0.  1.
         23    2    1    2    0    0  0.00000000000E+00  0.00000000000E+00  0.30590423182E+03  0.31840514493E+03  0.88342726192E+02 0.  0.
    9000005    2    3    3    0    0 -0.25563229232E+02  0.30979982432E+02  0.21485082683E+03  0.21888650064E+03  0.11712573294E+02 0.  0.
         22    1    3    3    0    0  0.25563229232E+02 -0.30979982432E+02  0.91053404986E+02  0.99518644283E+02  0.00000000000E+00 0.  1.
         22    1    4    4    0    0 -0.65801677275E+01  0.12569888734E+02  0.10180625357E+03  0.10279014532E+03  0.00000000000E+00 0. -1.
         22    1    4    4    0    0 -0.18983061505E+02  0.18410093698E+02  0.11304457327E+03  0.11609635532E+03  0.00000000000E+00 0. -1.
<mgrwt>
<rscale>  0 0.88342726E+02</rscale>
<asrwt>0</asrwt>
<pdfrwt beam="1">  1        1 0.48023790E-01 0.88342726E+02</pdfrwt>
<pdfrwt beam="2">  1       -1 0.96160886E-03 0.88342726E+02</pdfrwt>
<totfact> 0.14038959E+05</totfact>
</mgrwt>
</event>
<event>
 7    1  0.3301067E-009  0.9351582E+02  0.7818608E-02  0.1294554E+00
         -1   -1    0    0    0  501 -0.00000000000E+00  0.00000000000E+00  0.40442225146E+01  0.40442256551E+01  0.50400000000E-02 0.  1.
          1   -1    0    0  501    0  0.00000000000E+00 -0.00000000000E+00 -0.54059860795E+03  0.54059860798E+03  0.50400000000E-02 0. -1.
         23    2    1    2    0    0  0.00000000000E+00 -0.44408920985E-15 -0.53655438544E+03  0.54464283363E+03  0.93515815203E+02 0.  0.
    9000005    2    3    3    0    0 -0.32463059902E+02  0.66112670830E+00 -0.46159660737E+03  0.46295467146E+03  0.14188465050E+02 0.  0.
         22    1    3    3    0    0  0.32463059902E+02 -0.66112670830E+00 -0.74957778068E+02  0.81688162176E+02  0.00000000000E+00 0.  1.
         22    1    4    4    0    0 -0.26551411024E+02  0.44398647340E+01 -0.29986019214E+03  0.30106614665E+03  0.00000000000E+00 0.  1.
         22    1    4    4    0    0 -0.59116488780E+01 -0.37787380257E+01 -0.16173641523E+03  0.16188852481E+03  0.00000000000E+00 0.  1.
<mgrwt>
<rscale>  0 0.93515815E+02</rscale>
<asrwt>0</asrwt>
<pdfrwt beam="2">  1        1 0.83168960E-01 0.93515815E+02</pdfrwt>
<pdfrwt beam="1">  1       -1 0.62218875E-03 0.93515815E+02</pdfrwt>
<totfact> 0.13130962E+05</totfact>
</mgrwt>
</event>
<event>
 7    1  0.3301067E-009  0.9136582E+02  0.7818608E-02  0.1299577E+00
         -1   -1    0    0    0  501 -0.00000000000E+00  0.00000000000E+00  0.37643247815E+01  0.37643281554E+01  0.50400000000E-02 0.  1.
          1   -1    0    0  501    0  0.00000000000E+00 -0.00000000000E+00 -0.55439613286E+03  0.55439613289E+03  0.50400000000E-02 0. -1.
         23    2    1    2    0    0 -0.22204460493E-15  0.00000000000E+00 -0.55063180808E+03  0.55816046104E+03  0.91365815263E+02 0.  0.
    9000005    2    3    3    0    0  0.18675277138E+01 -0.45523897326E+02 -0.29147653774E+03  0.29503051780E+03  0.29191590376E+01 0.  0.
         22    1    3    3    0    0 -0.18675277138E+01  0.45523897326E+02 -0.25915527034E+03  0.26312994325E+03  0.00000000000E+00 0.  1.
         22    1    4    4    0    0  0.74014248244E+00 -0.15864425737E+02 -0.92806999933E+02  0.94156078144E+02  0.00000000000E+00 0. -1.
         22    1    4    4    0    0  0.11273852313E+01 -0.29659471589E+02 -0.19866953781E+03  0.20087443965E+03  0.00000000000E+00 0. -1.
<mgrwt>
<rscale>  0 0.91365815E+02</rscale>
<asrwt>0</asrwt>
<pdfrwt beam="2">  1        1 0.85291648E-01 0.91365815E+02</pdfrwt>
<pdfrwt beam="1">  1       -1 0.57912759E-03 0.91365815E+02</pdfrwt>
<totfact> 0.13999034E+05</totfact>
</mgrwt>
</event>
<event>
 7    1  0.3301067E-009  0.9033258E+02  0.7818608E-02  0.1302048E+00
          1   -1    0    0  501    0  0.00000000000E+00  0.00000000000E+00  0.49346792531E+03  0.49346792533E+03  0.50400000000E-02 0. -1.
         -1   -1    0    0    0  501 -0.00000000000E+00 -0.00000000000E+00 -0.41339932318E+01  0.41339963041E+01  0.50400000000E-02 0.  1.
         23    2    1    2    0    0  0.88817841970E-15  0.00000000000E+00  0.48933393208E+03  0.49760192164E+03  0.90332581810E+02 0.  0.
    9000005    2    3    3    0    0 -0.56115858371E+01  0.33095071700E+02  0.40738773394E+03  0.40904711908E+03  0.15099874155E+02 0.  0.
         22    1    3    3    0    0  0.56115858371E+01 -0.33095071700E+02  0.81946198135E+02  0.88554802553E+02  0.00000000000E+00 0.  1.
         22    1    4    4    0    0 -0.35420856150E+01  0.30401450653E+02  0.39552948758E+03  0.39671194854E+03  0.00000000000E+00 0. -1.
         22    1    4    4    0    0 -0.20695002221E+01  0.26936210465E+01  0.11858246364E+02  0.12335170543E+02  0.00000000000E+00 0. -1.
<mgrwt>
<rscale>  0 0.90332582E+02</rscale>
<asrwt>0</asrwt>
<pdfrwt beam="1">  1        1 0.75918141E-01 0.90332582E+02</pdfrwt>
<pdfrwt beam="2">  1       -1 0.63599921E-03 0.90332582E+02</pdfrwt>
<totfact> 0.14251405E+05</totfact>
</mgrwt>
</event>
<event>
 7    1  0.3301067E-009  0.1001251E+03  0.7818608E-02  0.1280033E+00
         -1   -1    0    0    0  501 -0.00000000000E+00  0.00000000000E+00  0.56486184079E+02  0.56486184304E+02  0.50400000000E-02 0.  1.
          1   -1    0    0  501    0  0.00000000000E+00 -0.00000000000E+00 -0.44369401582E+02  0.44369401868E+02  0.50400000000E-02 0. -1.
         23    2    1    2    0    0  0.00000000000E+00  0.00000000000E+00  0.12116782498E+02  0.10085558617E+03  0.10012508599E+03 0.  0.
    9000005    2    3    3    0    0  0.58474151826E+01  0.43490513123E+02 -0.17975527325E+02  0.47646901670E+02  0.46358020006E+01 0.  0.
         22    1    3    3    0    0 -0.58474151826E+01 -0.43490513123E+02  0.30092309822E+02  0.53208684502E+02  0.00000000000E+00 0.  1.
         22    1    4    4    0    0  0.34062559119E+01  0.19519609007E+02 -0.10466543317E+02  0.22409066115E+02  0.00000000000E+00 0.  1.
         22    1    4    4    0    0  0.24411592707E+01  0.23970904116E+02 -0.75089840078E+01  0.25237835556E+02  0.00000000000E+00 0.  1.
<mgrwt>
<rscale>  0 0.10012509E+03</rscale>
<asrwt>0</asrwt>
<pdfrwt beam="2">  1        1 0.68260618E-02 0.10012509E+03</pdfrwt>
<pdfrwt beam="1">  1       -1 0.86901822E-02 0.10012509E+03</pdfrwt>
<totfact> 0.70629403E+04</totfact>
</mgrwt>
</event>
<event>
 7    1  0.3301067E-009  0.9108529E+02  0.7818608E-02  0.1300245E+00
         -1   -1    0    0    0  501 -0.00000000000E+00  0.00000000000E+00  0.42019857431E+02  0.42019857733E+02  0.50400000000E-02 0.  1.
          1   -1    0    0  501    0  0.00000000000E+00 -0.00000000000E+00 -0.49360768342E+02  0.49360768599E+02  0.50400000000E-02 0. -1.
         23    2    1    2    0    0 -0.71054273576E-14 -0.88817841970E-15 -0.73409109111E+01  0.91380626332E+02  0.91085289130E+02 0.  0.
    9000005    2    3    3    0    0  0.39254341683E+02  0.79725984638E+01  0.17369279920E+02  0.44316210919E+02  0.76005919538E+01 0.  0.
         22    1    3    3    0    0 -0.39254341683E+02 -0.79725984638E+01 -0.24710190831E+02  0.47064415413E+02  0.00000000000E+00 0. -1.
         22    1    4    4    0    0  0.20636359313E+02  0.80473550013E+01  0.96790676507E+01  0.24172372635E+02  0.00000000000E+00 0.  1.
         22    1    4    4    0    0  0.18617982371E+02 -0.74756537497E-01  0.76902122695E+01  0.20143838285E+02  0.00000000000E+00 0.  1.
<mgrwt>
<rscale>  0 0.91085289E+02</rscale>
<asrwt>0</asrwt>
<pdfrwt beam="2">  1        1 0.75939644E-02 0.91085289E+02</pdfrwt>
<pdfrwt beam="1">  1       -1 0.64645935E-02 0.91085289E+02</pdfrwt>
<totfact> 0.93846558E+04</totfact>
</mgrwt>
</event>
<event>
 7    1  0.3301067E-009  0.8978525E+02  0.7818608E-02  0.1303373E+00
          1   -1    0    0  501    0  0.00000000000E+00  0.00000000000E+00  0.32444134838E+03  0.32444134842E+03  0.50400000000E-02 0. -1.
         -1   -1    0    0    0  501 -0.00000000000E+00 -0.00000000000E+00 -0.62117461668E+01  0.62117482114E+01  0.50400000000E-02 0.  1.
         23    2    1    2    0    0  0.55511151231E-16  0.00000000000E+00  0.31822960221E+03  0.33065309663E+03  0.89785247043E+02 0.  0.
    9000005    2    3    3    0    0 -0.38399822741E+00  0.29405755436E+02  0.28314366196E+03  0.28487243357E+03  0.10822392916E+02 0.  0.
         22    1    3    3    0    0  0.38399822741E+00 -0.29405755436E+02  0.35085940250E+02  0.45780663065E+02  0.00000000000E+00 0.  1.
         22    1    4    4    0    0 -0.15039173695E+01  0.89971662322E+01  0.13740810548E+03  0.13771055958E+03  0.00000000000E+00 0. -1.
         22    1    4    4    0    0  0.11199191421E+01  0.20408589204E+02  0.14573555648E+03  0.14716187399E+03  0.00000000000E+00 0. -1.
<mgrwt>
<rscale>  0 0.89785247E+02</rscale>
<asrwt>0</asrwt>
<pdfrwt beam="1">  1        1 0.49914058E-01 0.89785247E+02</pdfrwt>
<pdfrwt beam="2">  1       -1 0.95565333E-03 0.89785247E+02</pdfrwt>
<totfact> 0.13545085E+05</totfact>
</mgrwt>
</event>
<event>
 7    1  0.3301067E-009  0.9733991E+02  0.7818608E-02  0.1285991E+00
         -1   -1    0    0    0  501 -0.00000000000E+00  0.00000000000E+00  0.16307358271E+02  0.16307359050E+02  0.50400000000E-02 0.  1.
          1   -1    0    0  501    0  0.00000000000E+00 -0.00000000000E+00 -0.14525739484E+03  0.14525739493E+03  0.50400000000E-02 0. -1.
         23    2    1    2    0    0  0.00000000000E+00  0.00000000000E+00 -0.12895003657E+03  0.16156475398E+03  0.97339908549E+02 0.  0.
    9000005    2    3    3    0    0 -0.10911834612E+02 -0.36156300319E+02 -0.15535081302E+02  0.42026901120E+02  0.99285184862E+01 0.  0.
         22    1    3    3    0    0  0.10911834612E+02  0.36156300319E+02 -0.11341495527E+03  0.11953785286E+03  0.00000000000E+00 0. -1.
         22    1    4    4    0    0 -0.86588288032E+01 -0.16996022233E+02 -0.11638920288E+02  0.22345123707E+02  0.00000000000E+00 0.  1.
         22    1    4    4    0    0 -0.22530058092E+01 -0.19160278086E+02 -0.38961610140E+01  0.19681777414E+02  0.00000000000E+00 0.  1.
<mgrwt>
<rscale>  0 0.97339909E+02</rscale>
<asrwt>0</asrwt>
<pdfrwt beam="2">  1        1 0.22347291E-01 0.97339909E+02</pdfrwt>
<pdfrwt beam="1">  1       -1 0.25088245E-02 0.97339909E+02</pdfrwt>
<totfact> 0.93354510E+04</totfact>
</mgrwt>
</event>
<event>
 7    1  0.3301067E-009  0.9308290E+02  0.7818608E-02  0.1295553E+00
         -1   -1    0    0    0  501 -0.00000000000E+00  0.00000000000E+00  0.11776050525E+02  0.11776051603E+02  0.50400000000E-02 0.  1.
          1   -1    0    0  501    0  0.00000000000E+00 -0.00000000000E+00 -0.18394166895E+03  0.18394166902E+03  0.50400000000E-02 0. -1.
         23    2    1    2    0    0  0.00000000000E+00  0.00000000000E+00 -0.17216561842E+03  0.19571772062E+03  0.93082898525E+02 0.  0.
    9000005    2    3    3    0    0  0.25498866845E+02  0.14755594115E+02 -0.16163835472E+03  0.16443285129E+03  0.65791411242E+01 0.  0.
         22    1    3    3    0    0 -0.25498866845E+02 -0.14755594115E+02 -0.10527263703E+02  0.31284869333E+02  0.00000000000E+00 0.  1.
         22    1    4    4    0    0  0.16606887439E+02  0.13075707181E+02 -0.11295745608E+03  0.11491801301E+03  0.00000000000E+00 0. -1.
         22    1    4    4    0    0  0.88919794060E+01  0.16798869337E+01 -0.48680898639E+02  0.49514838283E+02  0.00000000000E+00 0. -1.
<mgrwt>
<rscale>  0 0.93082899E+02</rscale>
<asrwt>0</asrwt>
<pdfrwt beam="2">  1        1 0.28298716E-01 0.93082899E+02</pdfrwt>
<pdfrwt beam="1">  1       -1 0.18117003E-02 0.93082899E+02</pdfrwt>
<totfact> 0.11019878E+05</totfact>
</mgrwt>
</event>
<event>
 7    1  0.3301067E-009  0.9258192E+02  0.7818608E-02  0.1296717E+00
         -1   -1    0    0    0  501 -0.00000000000E+00  0.00000000000E+00  0.63323215569E+01  0.63323235626E+01  0.50400000000E-02 0.  1.
          1   -1    0    0  501    0  0.00000000000E+00 -0.00000000000E+00 -0.33839919616E+03  0.33839919620E+03  0.50400000000E-02 0. -1.
         23    2    1    2    0    0  0.00000000000E+00  0.00000000000E+00 -0.33206687461E+03  0.34473151976E+03  0.92581917822E+02 0.  0.
    9000005    2    3    3    0    0 -0.18812281277E+02 -0.39036834273E+02 -0.21523924700E+03  0.22012625932E+03  0.15806968030E+02 0.  0.
         22    1    3    3    0    0  0.18812281277E+02  0.39036834273E+02 -0.11682762761E+03  0.12460526044E+03  0.00000000000E+00 0. -1.
         22    1    4    4    0    0 -0.19359462927E+02 -0.39991622097E+02 -0.20137239352E+03  0.20621580811E+03  0.00000000000E+00 0.  1.
         22    1    4    4    0    0  0.54718164942E+00  0.95478782428E+00 -0.13866853475E+02  0.13910451209E+02  0.00000000000E+00 0.  1.
<mgrwt>
<rscale>  0 0.92581918E+02</rscale>
<asrwt>0</asrwt>
<pdfrwt beam="2">  1        1 0.52061401E-01 0.92581918E+02</pdfrwt>
<pdfrwt beam="1">  1       -1 0.97420374E-03 0.92581918E+02</pdfrwt>
<totfact> 0.12580314E+05</totfact>
</mgrwt>
</event>
<event>
 7    1  0.3301067E-009  0.8945714E+02  0.7818608E-02  0.1304172E+00
         -1   -1    0    0    0  501 -0.00000000000E+00  0.00000000000E+00  0.42066833583E+02  0.42066833885E+02  0.50400000000E-02 0.  1.
          1   -1    0    0  501    0  0.00000000000E+00 -0.00000000000E+00 -0.47558726632E+02  0.47558726899E+02  0.50400000000E-02 0. -1.
         23    2    1    2    0    0  0.00000000000E+00  0.00000000000E+00 -0.54918930491E+01  0.89625560783E+02  0.89457142009E+02 0.  0.
    9000005    2    3    3    0    0 -0.18647942344E+02 -0.34577020684E+01  0.37807959354E+02  0.42354230409E+02  0.21765995737E+01 0.  0.
         22    1    3    3    0    0  0.18647942344E+02  0.34577020684E+01 -0.43299852403E+02  0.47271330375E+02  0.00000000000E+00 0. -1.
         22    1    4    4    0    0 -0.10677522713E+02 -0.17839116361E+01  0.23894375111E+02  0.26232289148E+02  0.00000000000E+00 0.  1.
         22    1    4    4    0    0 -0.79704196310E+01 -0.16737904324E+01  0.13913584243E+02  0.16121941260E+02  0.00000000000E+00 0.  1.
<mgrwt>
<rscale>  0 0.89457142E+02</rscale>
<asrwt>0</asrwt>
<pdfrwt beam="2">  1        1 0.73167272E-02 0.89457142E+02</pdfrwt>
<pdfrwt beam="1">  1       -1 0.64718206E-02 0.89457142E+02</pdfrwt>
<totfact> 0.98148698E+04</totfact>
</mgrwt>
</event>
<event>
 7    1  0.3301067E-009  0.8465176E+02  0.7818608E-02  0.1316346E+00
         -1   -1    0    0    0  501 -0.00000000000E+00  0.00000000000E+00  0.44579094688E+01  0.44579123178E+01  0.50400000000E-02 0.  1.
          1   -1    0    0  501    0  0.00000000000E+00 -0.00000000000E+00 -0.40186540745E+03  0.40186540748E+03  0.50400000000E-02 0. -1.
         23    2    1    2    0    0  0.00000000000E+00  0.35527136788E-14 -0.39740749798E+03  0.40632331980E+03  0.84651761713E+02 0.  0.
    9000005    2    3    3    0    0 -0.17454553727E+02 -0.21843577990E+02 -0.35112957445E+03  0.35225438647E+03  0.30612721636E+01 0.  0.
         22    1    3    3    0    0  0.17454553727E+02  0.21843577990E+02 -0.46277923531E+02  0.54068933331E+02  0.00000000000E+00 0.  1.
         22    1    4    4    0    0 -0.14756226042E+02 -0.20003019992E+02 -0.31234850207E+03  0.31333600777E+03  0.00000000000E+00 0.  1.
         22    1    4    4    0    0 -0.26983276847E+01 -0.18405579980E+01 -0.38781072377E+02  0.38918378701E+02  0.00000000000E+00 0.  1.
<mgrwt>
<rscale>  0 0.84651762E+02</rscale>
<asrwt>0</asrwt>
<pdfrwt beam="2">  1        1 0.61825419E-01 0.84651762E+02</pdfrwt>
<pdfrwt beam="1">  1       -1 0.68583276E-03 0.84651762E+02</pdfrwt>
<totfact> 0.16428323E+05</totfact>
</mgrwt>
</event>
<event>
 7    1  0.3301067E-009  0.8756306E+02  0.7818608E-02  0.1308863E+00
         -1   -1    0    0    0  501 -0.00000000000E+00  0.00000000000E+00  0.11394083862E+04  0.11394083862E+04  0.50400000000E-02 0.  1.
          1   -1    0    0  501    0  0.00000000000E+00 -0.00000000000E+00 -0.16822923400E+01  0.16822998897E+01  0.50400000000E-02 0. -1.
         23    2    1    2    0    0  0.00000000000E+00  0.00000000000E+00  0.11377260939E+04  0.11410906861E+04  0.87563058742E+02 0.  0.
    9000005    2    3    3    0    0  0.22719463946E+02  0.15704226012E+02  0.10087490213E+04  0.10091896550E+04  0.11241665761E+02 0.  0.
         22    1    3    3    0    0 -0.22719463946E+02 -0.15704226012E+02  0.12897707255E+03  0.13190103108E+03  0.00000000000E+00 0. -1.
         22    1    4    4    0    0  0.15659234336E+02  0.13443658554E+02  0.56143264855E+03  0.56181185679E+03  0.00000000000E+00 0.  1.
         22    1    4    4    0    0  0.70602296094E+01  0.22605674580E+01  0.44731637276E+03  0.44737779823E+03  0.00000000000E+00 0.  1.
<mgrwt>
<rscale>  0 0.87563059E+02</rscale>
<asrwt>0</asrwt>
<pdfrwt beam="2">  1        1 0.25881531E-03 0.87563059E+02</pdfrwt>
<pdfrwt beam="1">  1       -1 0.17529325E+00 0.87563059E+02</pdfrwt>
<totfact> 0.24074312E+04</totfact>
</mgrwt>
</event>
<event>
 7    1  0.3301067E-009  0.9480387E+02  0.7818608E-02  0.1291618E+00
          1   -1    0    0  501    0  0.00000000000E+00  0.00000000000E+00  0.23305865952E+03  0.23305865957E+03  0.50400000000E-02 0. -1.
         -1   -1    0    0    0  501 -0.00000000000E+00 -0.00000000000E+00 -0.96411053269E+01  0.96411066443E+01  0.50400000000E-02 0.  1.
         23    2    1    2    0    0  0.00000000000E+00  0.11102230246E-15  0.22341755419E+03  0.24269976622E+03  0.94803865960E+02 0.  0.
    9000005    2    3    3    0    0  0.41622731320E+02  0.56786644250E+00  0.62448179144E+02  0.76435176067E+02  0.14484019715E+02 0.  0.
         22    1    3    3    0    0 -0.41622731320E+02 -0.56786644250E+00  0.16096937505E+03  0.16626459015E+03  0.00000000000E+00 0.  1.
         22    1    4    4    0    0  0.32005833198E+02  0.14174512890E+01  0.56902400609E+02  0.65301345483E+02  0.00000000000E+00 0.  1.
         22    1    4    4    0    0  0.96168981220E+01 -0.84958484653E+00  0.55457785350E+01  0.11133830583E+02  0.00000000000E+00 0.  1.
<mgrwt>
<rscale>  0 0.94803866E+02</rscale>
<asrwt>0</asrwt>
<pdfrwt beam="1">  1        1 0.35855180E-01 0.94803866E+02</pdfrwt>
<pdfrwt beam="2">  1       -1 0.14832470E-02 0.94803866E+02</pdfrwt>
<totfact> 0.10987087E+05</totfact>
</mgrwt>
</event>
<event>
 7    1  0.3301067E-009  0.9027735E+02  0.7818608E-02  0.1302181E+00
         -1   -1    0    0    0  501 -0.00000000000E+00  0.00000000000E+00  0.19093737854E+02  0.19093738519E+02  0.50400000000E-02 0.  1.
          1   -1    0    0  501    0  0.00000000000E+00 -0.00000000000E+00 -0.10671036755E+03  0.10671036767E+03  0.50400000000E-02 0. -1.
         23    2    1    2    0    0  0.00000000000E+00  0.00000000000E+00 -0.87616629694E+02  0.12580410619E+03  0.90277346740E+02 0.  0.
    9000005    2    3    3    0    0  0.30267853904E+02  0.56237820590E+01  0.19880615914E+01  0.31058285144E+02  0.35909306028E+01 0.  0.
         22    1    3    3    0    0 -0.30267853904E+02 -0.56237820590E+01 -0.89604691285E+02  0.94745821042E+02  0.00000000000E+00 0. -1.
         22    1    4    4    0    0  0.54081690830E+01 -0.12483680171E+00  0.11404560911E+01  0.55285185315E+01  0.00000000000E+00 0.  1.
         22    1    4    4    0    0  0.24859684821E+02  0.57486188607E+01  0.84760550032E+00  0.25529766613E+02  0.00000000000E+00 0.  1.
<mgrwt>
<rscale>  0 0.90277347E+02</rscale>
<asrwt>0</asrwt>
<pdfrwt beam="2">  1        1 0.16416979E-01 0.90277347E+02</pdfrwt>
<pdfrwt beam="1">  1       -1 0.29374983E-02 0.90277347E+02</pdfrwt>
<totfact> 0.10847855E+05</totfact>
</mgrwt>
</event>
<event>
 7    1  0.5978887E-009  0.9111720E+02  0.7818608E-02  0.1300169E+00
          1   -1    0    0  501    0  0.00000000000E+00  0.00000000000E+00  0.35942872014E+02  0.35942872367E+02  0.50400000000E-02 0. -1.
         -1   -1    0    0    0  501 -0.00000000000E+00 -0.00000000000E+00 -0.57746802839E+02  0.57746803059E+02  0.50400000000E-02 0.  1.
         23    2    1    2    0    0  0.35527136788E-14  0.88817841970E-15 -0.21803930826E+02  0.93689675426E+02  0.91117198607E+02 0.  0.
    9000005    2    3    3    0    0 -0.16335227519E+02 -0.59581584721E+01  0.30513091258E+02  0.38558830065E+02  0.15918395879E+02 0.  0.
         22    1    3    3    0    0  0.16335227519E+02  0.59581584721E+01 -0.52317022084E+02  0.55130845361E+02  0.00000000000E+00 0.  1.
         22    1    4    4    0    0 -0.40546112317E-01 -0.70751661096E+01  0.11406667476E+02  0.13422804564E+02  0.00000000000E+00 0.  1.
         22    1    4    4    0    0 -0.16294681407E+02  0.11170076375E+01  0.19106423782E+02  0.25136025501E+02  0.00000000000E+00 0.  1.
<mgrwt>
<rscale>  0 0.91117199E+02</rscale>
<asrwt>0</asrwt>
<pdfrwt beam="1">  1        1 0.55296727E-02 0.91117199E+02</pdfrwt>
<pdfrwt beam="2">  1       -1 0.88841236E-02 0.91117199E+02</pdfrwt>
<totfact> 0.89356875E+04</totfact>
</mgrwt>
</event>
<event>
 7    1  0.3301067E-009  0.9908061E+02  0.7818608E-02  0.1282241E+00
         -1   -1    0    0    0  501 -0.00000000000E+00  0.00000000000E+00  0.52411989065E+01  0.52412013297E+01  0.50400000000E-02 0.  1.
          1   -1    0    0  501    0  0.00000000000E+00 -0.00000000000E+00 -0.46825950375E+03  0.46825950378E+03  0.50400000000E-02 0. -1.
         23    2    1    2    0    0  0.17763568394E-14  0.00000000000E+00 -0.46301830485E+03  0.47350070511E+03  0.99080609185E+02 0.  0.
    9000005    2    3    3    0    0 -0.98492223100E+01 -0.46852916004E+02 -0.18850910055E+03  0.19484768402E+03  0.11736100726E+02 0.  0.
         22    1    3    3    0    0  0.98492223100E+01  0.46852916004E+02 -0.27450920429E+03  0.27865302109E+03  0.00000000000E+00 0.  1.
         22    1    4    4    0    0  0.12375952499E+01 -0.16880832885E+02 -0.77716430052E+02  0.79538277961E+02  0.00000000000E+00 0. -1.
         22    1    4    4    0    0 -0.11086817560E+02 -0.29972083119E+02 -0.11079267050E+03  0.11530940606E+03  0.00000000000E+00 0. -1.
<mgrwt>
<rscale>  0 0.99080609E+02</rscale>
<asrwt>0</asrwt>
<pdfrwt beam="2">  1        1 0.72039891E-01 0.99080609E+02</pdfrwt>
<pdfrwt beam="1">  1       -1 0.80633885E-03 0.99080609E+02</pdfrwt>
<totfact> 0.11068678E+05</totfact>
</mgrwt>
</event>
<event>
 7    1  0.3301067E-009  0.9353091E+02  0.7818608E-02  0.1294520E+00
         -1   -1    0    0    0  501 -0.00000000000E+00  0.00000000000E+00  0.26979647977E+02  0.26979648448E+02  0.50400000000E-02 0.  1.
          1   -1    0    0  501    0  0.00000000000E+00 -0.00000000000E+00 -0.81061385483E+02  0.81061385640E+02  0.50400000000E-02 0. -1.
         23    2    1    2    0    0  0.00000000000E+00  0.00000000000E+00 -0.54081737506E+02  0.10804103409E+03  0.93530907806E+02 0.  0.
    9000005    2    3    3    0    0 -0.37997468388E+02  0.91668922351E+01 -0.37924410095E+00  0.41619672199E+02  0.14290338368E+02 0.  0.
         22    1    3    3    0    0  0.37997468388E+02 -0.91668922351E+01 -0.53702493406E+02  0.66421361889E+02  0.00000000000E+00 0. -1.
         22    1    4    4    0    0 -0.14005826495E+01 -0.27819711140E+01 -0.20084685456E+00  0.31211110996E+01  0.00000000000E+00 0. -1.
         22    1    4    4    0    0 -0.36596885739E+02  0.11948863349E+02 -0.17839724639E+00  0.38498561099E+02  0.00000000000E+00 0. -1.
<mgrwt>
<rscale>  0 0.93530908E+02</rscale>
<asrwt>0</asrwt>
<pdfrwt beam="2">  1        1 0.12470982E-01 0.93530908E+02</pdfrwt>
<pdfrwt beam="1">  1       -1 0.41507152E-02 0.93530908E+02</pdfrwt>
<totfact> 0.94117502E+04</totfact>
</mgrwt>
</event>
<event>
 7    1  0.3301067E-009  0.9200342E+02  0.7818608E-02  0.1298071E+00
          1   -1    0    0  501    0  0.00000000000E+00  0.00000000000E+00  0.20264143372E+03  0.20264143378E+03  0.50400000000E-02 0. -1.
         -1   -1    0    0    0  501 -0.00000000000E+00 -0.00000000000E+00 -0.10442865754E+02  0.10442866970E+02  0.50400000000E-02 0.  1.
         23    2    1    2    0    0 -0.88817841970E-15 -0.71054273576E-14  0.19219856796E+03  0.21308430075E+03  0.92003422214E+02 0.  0.
    9000005    2    3    3    0    0  0.68469841551E+01  0.34070460147E+02  0.33800223663E+02  0.50918604859E+02  0.15574715231E+02 0.  0.
         22    1    3    3    0    0 -0.68469841551E+01 -0.34070460147E+02  0.15839834430E+03  0.16216569589E+03  0.00000000000E+00 0. -1.
         22    1    4    4    0    0  0.72035041615E-02  0.19729741700E+02  0.95313080999E+01  0.21911380457E+02  0.00000000000E+00 0.  1.
         22    1    4    4    0    0  0.68397806509E+01  0.14340718447E+02  0.24268915563E+02  0.29007224402E+02  0.00000000000E+00 0.  1.
<mgrwt>
<rscale>  0 0.92003422E+02</rscale>
<asrwt>0</asrwt>
<pdfrwt beam="1">  1        1 0.31175605E-01 0.92003422E+02</pdfrwt>
<pdfrwt beam="2">  1       -1 0.16065948E-02 0.92003422E+02</pdfrwt>
<totfact> 0.11586635E+05</totfact>
</mgrwt>
</event>
<event>
 7    1  0.3301067E-009  0.8963906E+02  0.7818608E-02  0.1303728E+00
         -1   -1    0    0    0  501 -0.00000000000E+00  0.00000000000E+00  0.17466286798E+02  0.17466287525E+02  0.50400000000E-02 0.  1.
          1   -1    0    0  501    0  0.00000000000E+00 -0.00000000000E+00 -0.11500958120E+03  0.11500958131E+03  0.50400000000E-02 0. -1.
         23    2    1    2    0    0  0.00000000000E+00 -0.35527136788E-14 -0.97543294405E+02  0.13247586884E+03  0.89639062586E+02 0.  0.
    9000005    2    3    3    0    0  0.38827875875E+02 -0.19768859170E+02 -0.35976351049E+02  0.57051070185E+02  0.78813093184E+01 0.  0.
         22    1    3    3    0    0 -0.38827875875E+02  0.19768859170E+02 -0.61566943356E+02  0.75424798654E+02  0.00000000000E+00 0. -1.
         22    1    4    4    0    0  0.35028622280E+02 -0.16070062521E+02 -0.33997501942E+02  0.51391452855E+02  0.00000000000E+00 0.  1.
         22    1    4    4    0    0  0.37992535955E+01 -0.36987966487E+01 -0.19788491069E+01  0.56596173298E+01  0.00000000000E+00 0.  1.
<mgrwt>
<rscale>  0 0.89639063E+02</rscale>
<asrwt>0</asrwt>
<pdfrwt beam="2">  1        1 0.17693781E-01 0.89639063E+02</pdfrwt>
<pdfrwt beam="1">  1       -1 0.26871212E-02 0.89639063E+02</pdfrwt>
<totfact> 0.11199664E+05</totfact>
</mgrwt>
</event>
<event>
 7    1  0.3301067E-009  0.9189386E+02  0.7818608E-02  0.1298329E+00
         -1   -1    0    0    0  501 -0.00000000000E+00  0.00000000000E+00  0.25277858621E+01  0.25277908866E+01  0.50400000000E-02 0.  1.
          1   -1    0    0  501    0  0.00000000000E+00 -0.00000000000E+00 -0.83516500237E+03  0.83516500239E+03  0.50400000000E-02 0. -1.
         23    2    1    2    0    0  0.00000000000E+00  0.17763568394E-14 -0.83263721651E+03  0.83769279327E+03  0.91893860435E+02 0.  0.
    9000005    2    3    3    0    0  0.33506678374E+02  0.91464306254E+01 -0.68433133504E+03  0.68537408409E+03  0.14896453811E+02 0.  0.
         22    1    3    3    0    0 -0.33506678374E+02 -0.91464306254E+01 -0.14830588147E+03  0.15231870919E+03  0.00000000000E+00 0. -1.
         22    1    4    4    0    0  0.14428458172E+02 -0.95244334517E+00 -0.38174236013E+03  0.38201612148E+03  0.00000000000E+00 0.  1.
         22    1    4    4    0    0  0.19078220202E+02  0.10098873971E+02 -0.30258897490E+03  0.30335796260E+03  0.00000000000E+00 0.  1.
<mgrwt>
<rscale>  0 0.91893860E+02</rscale>
<asrwt>0</asrwt>
<pdfrwt beam="2">  1        1 0.12848670E+00 0.91893860E+02</pdfrwt>
<pdfrwt beam="1">  1       -1 0.38889119E-03 0.91893860E+02</pdfrwt>
<totfact> 0.13779764E+05</totfact>
</mgrwt>
</event>
<event>
 7    1  0.3301067E-009  0.9160674E+02  0.7818608E-02  0.1299007E+00
         -1   -1    0    0    0  501 -0.00000000000E+00  0.00000000000E+00  0.35520617589E+01  0.35520653345E+01  0.50400000000E-02 0.  1.
          1   -1    0    0  501    0  0.00000000000E+00 -0.00000000000E+00 -0.59062811576E+03  0.59062811578E+03  0.50400000000E-02 0. -1.
         23    2    1    2    0    0  0.00000000000E+00  0.00000000000E+00 -0.58707605400E+03  0.59418018111E+03  0.91606738014E+02 0.  0.
    9000005    2    3    3    0    0  0.83387366628E+01 -0.35183826447E+02 -0.47227509644E+03  0.47381948974E+03  0.12397820899E+02 0.  0.
         22    1    3    3    0    0 -0.83387366628E+01  0.35183826447E+02 -0.11480095756E+03  0.12036069137E+03  0.00000000000E+00 0.  1.
         22    1    4    4    0    0  0.49931040832E+01 -0.13832011193E+02 -0.26827641702E+03  0.26867916100E+03  0.00000000000E+00 0. -1.
         22    1    4    4    0    0  0.33456325795E+01 -0.21351815254E+02 -0.20399867942E+03  0.20514032874E+03  0.00000000000E+00 0. -1.
<mgrwt>
<rscale>  0 0.91606738E+02</rscale>
<asrwt>0</asrwt>
<pdfrwt beam="2">  1        1 0.90865787E-01 0.91606738E+02</pdfrwt>
<pdfrwt beam="1">  1       -1 0.54647178E-03 0.91606738E+02</pdfrwt>
<totfact> 0.13969637E+05</totfact>
</mgrwt>
</event>
<event>
 7    1  0.3301067E-009  0.8929477E+02  0.7818608E-02  0.1304569E+00
         -1   -1    0    0    0  501 -0.00000000000E+00  0.00000000000E+00  0.11611336328E+02  0.11611337422E+02  0.50400000000E-02 0.  1.
          1   -1    0    0  501    0  0.00000000000E+00 -0.00000000000E+00 -0.17167609065E+03  0.17167609072E+03  0.50400000000E-02 0. -1.
         23    2    1    2    0    0  0.22204460493E-15  0.00000000000E+00 -0.16006475432E+03  0.18328742814E+03  0.89294768829E+02 0.  0.
    9000005    2    3    3    0    0 -0.16362393725E+01  0.35242213256E+02 -0.26226718415E+02  0.44877490895E+02  0.90253839668E+01 0.  0.
         22    1    3    3    0    0  0.16362393725E+01 -0.35242213256E+02 -0.13383803590E+03  0.13840993725E+03  0.00000000000E+00 0. -1.
         22    1    4    4    0    0  0.22278328376E+01  0.27448483461E+02 -0.21763339707E+02  0.35100219923E+02  0.00000000000E+00 0. -1.
         22    1    4    4    0    0 -0.38640722101E+01  0.77937297953E+01 -0.44633787075E+01  0.97772709717E+01  0.00000000000E+00 0. -1.
<mgrwt>
<rscale>  0 0.89294769E+02</rscale>
<asrwt>0</asrwt>
<pdfrwt beam="2">  1        1 0.26411705E-01 0.89294769E+02</pdfrwt>
<pdfrwt beam="1">  1       -1 0.17863596E-02 0.89294769E+02</pdfrwt>
<totfact> 0.12161058E+05</totfact>
</mgrwt>
</event>
<event>
 7    1  0.3301067E-009  0.9080991E+02  0.7818608E-02  0.1300902E+00
         -1   -1    0    0    0  501 -0.00000000000E+00  0.00000000000E+00  0.15235238507E+02  0.15235239341E+02  0.50400000000E-02 0.  1.
          1   -1    0    0  501    0  0.00000000000E+00 -0.00000000000E+00 -0.13531851436E+03  0.13531851445E+03  0.50400000000E-02 0. -1.
         23    2    1    2    0    0  0.00000000000E+00 -0.17763568394E-14 -0.12008327585E+03  0.15055375379E+03  0.90809909381E+02 0.  0.
    9000005    2    3    3    0    0 -0.16531339800E+02 -0.13172403687E+02 -0.12655078787E+03  0.12844886460E+03  0.61001221763E+01 0.  0.
         22    1    3    3    0    0  0.16531339800E+02  0.13172403687E+02  0.64675120242E+01  0.22104889194E+02  0.00000000000E+00 0.  1.
         22    1    4    4    0    0 -0.98145620935E+01 -0.46652402553E+01 -0.52887305505E+02  0.53992195541E+02  0.00000000000E+00 0.  1.
         22    1    4    4    0    0 -0.67167777063E+01 -0.85071634319E+01 -0.73663482367E+02  0.74456669056E+02  0.00000000000E+00 0.  1.
<mgrwt>
<rscale>  0 0.90809909E+02</rscale>
<asrwt>0</asrwt>
<pdfrwt beam="2">  1        1 0.20818232E-01 0.90809909E+02</pdfrwt>
<pdfrwt beam="1">  1       -1 0.23438830E-02 0.90809909E+02</pdfrwt>
<totfact> 0.11125913E+05</totfact>
</mgrwt>
</event>
<event>
 7    1  0.3301067E-009  0.9174300E+02  0.7818608E-02  0.1298685E+00
         -1   -1    0    0    0  501 -0.00000000000E+00  0.00000000000E+00  0.32651333032E+02  0.32651333421E+02  0.50400000000E-02 0.  1.
          1   -1    0    0  501    0  0.00000000000E+00 -0.00000000000E+00 -0.64444361220E+02  0.64444361417E+02  0.50400000000E-02 0. -1.
         23    2    1    2    0    0  0.00000000000E+00  0.00000000000E+00 -0.31793028188E+02  0.97095694837E+02  0.91742995997E+02 0.  0.
    9000005    2    3    3    0    0 -0.13351566734E+02 -0.42495068401E+02 -0.27123926705E+02  0.52308468072E+02  0.40463884471E+01 0.  0.
         22    1    3    3    0    0  0.13351566734E+02  0.42495068401E+02 -0.46691014832E+01  0.44787226765E+02  0.00000000000E+00 0. -1.
         22    1    4    4    0    0 -0.10856889224E+02 -0.29596382445E+02 -0.20404375258E+02  0.37552049573E+02  0.00000000000E+00 0. -1.
         22    1    4    4    0    0 -0.24946775108E+01 -0.12898685956E+02 -0.67195514470E+01  0.14756418499E+02  0.00000000000E+00 0. -1.
<mgrwt>
<rscale>  0 0.91742996E+02</rscale>
<asrwt>0</asrwt>
<pdfrwt beam="2">  1        1 0.99145171E-02 0.91742996E+02</pdfrwt>
<pdfrwt beam="1">  1       -1 0.50232821E-02 0.91742996E+02</pdfrwt>
<totfact> 0.95766748E+04</totfact>
</mgrwt>
</event>
<event>
 7    1  0.3301067E-009  0.8859732E+02  0.7818608E-02  0.1306284E+00
         -1   -1    0    0    0  501 -0.00000000000E+00  0.00000000000E+00  0.78520378766E+02  0.78520378928E+02  0.50400000000E-02 0.  1.
          1   -1    0    0  501    0  0.00000000000E+00 -0.00000000000E+00 -0.24991872770E+02  0.24991873278E+02  0.50400000000E-02 0. -1.
         23    2    1    2    0    0  0.00000000000E+00  0.00000000000E+00  0.53528505996E+02  0.10351225221E+03  0.88597321645E+02 0.  0.
    9000005    2    3    3    0    0  0.33712263603E+02  0.11586917315E+02 -0.21068143134E+01  0.37436067116E+02  0.11235972786E+02 0.  0.
         22    1    3    3    0    0 -0.33712263603E+02 -0.11586917315E+02  0.55635320310E+02  0.66076185090E+02  0.00000000000E+00 0.  1.
         22    1    4    4    0    0  0.31703030811E+02  0.75039765222E+01 -0.32599230868E+01  0.32741700090E+02  0.00000000000E+00 0.  1.
         22    1    4    4    0    0  0.20092327925E+01  0.40829407932E+01  0.11531087734E+01  0.46943670264E+01  0.00000000000E+00 0.  1.
<mgrwt>
<rscale>  0 0.88597322E+02</rscale>
<asrwt>0</asrwt>
<pdfrwt beam="2">  1        1 0.38449036E-02 0.88597322E+02</pdfrwt>
<pdfrwt beam="1">  1       -1 0.12080058E-01 0.88597322E+02</pdfrwt>
<totfact> 0.91378803E+04</totfact>
</mgrwt>
</event>
<event>
 7    1  0.3301067E-009  0.9012409E+02  0.7818608E-02  0.1302551E+00
          1   -1    0    0  501    0  0.00000000000E+00  0.00000000000E+00  0.31436047093E+02  0.31436047497E+02  0.50400000000E-02 0. -1.
         -1   -1    0    0    0  501 -0.00000000000E+00 -0.00000000000E+00 -0.64594253082E+02  0.64594253278E+02  0.50400000000E-02 0.  1.
         23    2    1    2    0    0  0.35527136788E-14 -0.71054273576E-14 -0.33158205988E+02  0.96030300775E+02  0.90124092465E+02 0.  0.
    9000005    2    3    3    0    0  0.16103480061E+02 -0.35211054319E+02  0.78315313276E+01  0.39645028039E+02  0.33548396365E+01 0.  0.
         22    1    3    3    0    0 -0.16103480061E+02  0.35211054319E+02 -0.40989737316E+02  0.56385272736E+02  0.00000000000E+00 0.  1.
         22    1    4    4    0    0  0.14833363685E+02 -0.30850340060E+02  0.60266171768E+01  0.34757621821E+02  0.00000000000E+00 0. -1.
         22    1    4    4    0    0  0.12701163765E+01 -0.43607142583E+01  0.18049141509E+01  0.48874062185E+01  0.00000000000E+00 0. -1.
<mgrwt>
<rscale>  0 0.90124092E+02</rscale>
<asrwt>0</asrwt>
<pdfrwt beam="1">  1        1 0.48363150E-02 0.90124092E+02</pdfrwt>
<pdfrwt beam="2">  1       -1 0.99375775E-02 0.90124092E+02</pdfrwt>
<totfact> 0.90283609E+04</totfact>
</mgrwt>
</event>
<event>
 7    1  0.3301067E-009  0.8995821E+02  0.7818608E-02  0.1302953E+00
          1   -1    0    0  501    0  0.00000000000E+00  0.00000000000E+00  0.71079109156E+03  0.71079109157E+03  0.50400000000E-02 0. -1.
         -1   -1    0    0    0  501 -0.00000000000E+00 -0.00000000000E+00 -0.28462913023E+01  0.28462957645E+01  0.50400000000E-02 0.  1.
         23    2    1    2    0    0  0.35527136788E-14  0.00000000000E+00  0.70794480025E+03  0.71363738734E+03  0.89958214750E+02 0.  0.
    9000005    2    3    3    0    0 -0.31437439342E+02 -0.15601101124E+02  0.57477177764E+03  0.57591752349E+03  0.93107750969E+01 0.  0.
         22    1    3    3    0    0  0.31437439342E+02  0.15601101124E+02  0.13317302261E+03  0.13771986385E+03  0.00000000000E+00 0.  1.
         22    1    4    4    0    0 -0.22882898788E+02 -0.12417823226E+02  0.48052415470E+03  0.48122893995E+03  0.00000000000E+00 0. -1.
         22    1    4    4    0    0 -0.85545405540E+01 -0.31832778982E+01  0.94247622942E+02  0.94688583538E+02  0.00000000000E+00 0. -1.
<mgrwt>
<rscale>  0 0.89958215E+02</rscale>
<asrwt>0</asrwt>
<pdfrwt beam="1">  1        1 0.10935244E+00 0.89958215E+02</pdfrwt>
<pdfrwt beam="2">  1       -1 0.43789145E-03 0.89958215E+02</pdfrwt>
<totfact> 0.14729222E+05</totfact>
</mgrwt>
</event>
<event>
 7    1  0.3301067E-009  0.9035360E+02  0.7818608E-02  0.1301998E+00
         -1   -1    0    0    0  501 -0.00000000000E+00  0.00000000000E+00  0.19888429935E+02  0.19888430574E+02  0.50400000000E-02 0.  1.
          1   -1    0    0  501    0  0.00000000000E+00 -0.00000000000E+00 -0.10261962169E+03  0.10261962181E+03  0.50400000000E-02 0. -1.
         23    2    1    2    0    0  0.35527136788E-14 -0.35527136788E-14 -0.82731191755E+02  0.12250805239E+03  0.90353598769E+02 0.  0.
    9000005    2    3    3    0    0 -0.23998885133E+02  0.17431348242E+02 -0.87262119937E+02  0.92502591229E+02  0.78900835903E+01 0.  0.
         22    1    3    3    0    0  0.23998885133E+02 -0.17431348242E+02  0.45309281818E+01  0.30005461159E+02  0.00000000000E+00 0.  1.
         22    1    4    4    0    0 -0.97582581055E+01  0.11855162684E+02 -0.41223726664E+02  0.43990500378E+02  0.00000000000E+00 0. -1.
         22    1    4    4    0    0 -0.14240627027E+02  0.55761855582E+01 -0.46038393273E+02  0.48512090851E+02  0.00000000000E+00 0. -1.
<mgrwt>
<rscale>  0 0.90353599E+02</rscale>
<asrwt>0</asrwt>
<pdfrwt beam="2">  1        1 0.15787634E-01 0.90353599E+02</pdfrwt>
<pdfrwt beam="1">  1       -1 0.30597586E-02 0.90353599E+02</pdfrwt>
<totfact> 0.10752414E+05</totfact>
</mgrwt>
</event>
<event>
 7    1  0.3301067E-009  0.6763284E+02  0.7818608E-02  0.1368333E+00
          1   -1    0    0  501    0  0.00000000000E+00  0.00000000000E+00  0.45242936431E+02  0.45242936712E+02  0.50400000000E-02 0. -1.
         -1   -1    0    0    0  501 -0.00000000000E+00 -0.00000000000E+00 -0.25275776675E+02  0.25275777178E+02  0.50400000000E-02 0.  1.
         23    2    1    2    0    0 -0.35527136788E-14  0.00000000000E+00  0.19967159756E+02  0.70518713889E+02  0.67632843648E+02 0.  0.
    9000005    2    3    3    0    0  0.26127635481E+02 -0.43879042914E+01 -0.88886227826E+01  0.31345212312E+02  0.14198861927E+02 0.  0.
         22    1    3    3    0    0 -0.26127635481E+02  0.43879042914E+01  0.28855782538E+02  0.39173501577E+02  0.00000000000E+00 0.  1.
         22    1    4    4    0    0  0.11757158368E+02 -0.74080682746E+01  0.51836758349E+00  0.13906076132E+02  0.00000000000E+00 0.  1.
         22    1    4    4    0    0  0.14370477114E+02  0.30201639831E+01 -0.94069903661E+01  0.17439136180E+02  0.00000000000E+00 0.  1.
<mgrwt>
<rscale>  0 0.67632844E+02</rscale>
<asrwt>0</asrwt>
<pdfrwt beam="1">  1        1 0.69604517E-02 0.67632844E+02</pdfrwt>
<pdfrwt beam="2">  1       -1 0.38885812E-02 0.67632844E+02</pdfrwt>
<totfact> 0.20940936E+05</totfact>
</mgrwt>
</event>
<event>
 7    1  0.3301067E-009  0.9152490E+02  0.7818608E-02  0.1299200E+00
          1   -1    0    0  501    0  0.00000000000E+00  0.00000000000E+00  0.68382672326E+01  0.68382690900E+01  0.50400000000E-02 0. -1.
         -1   -1    0    0    0  501 -0.00000000000E+00 -0.00000000000E+00 -0.30624738892E+03  0.30624738896E+03  0.50400000000E-02 0.  1.
         23    2    1    2    0    0  0.00000000000E+00  0.44408920985E-15 -0.29940912169E+03  0.31308565805E+03  0.91524898951E+02 0.  0.
    9000005    2    3    3    0    0 -0.45083777773E+02 -0.24888596181E+01 -0.12576952589E+03  0.13367147057E+03  0.33685251418E+01 0.  0.
         22    1    3    3    0    0  0.45083777773E+02  0.24888596181E+01 -0.17363959580E+03  0.17941418748E+03  0.00000000000E+00 0. -1.
         22    1    4    4    0    0 -0.25297775764E+02  0.20887229344E+00 -0.68876617575E+02  0.73375810284E+02  0.00000000000E+00 0.  1.
         22    1    4    4    0    0 -0.19786002009E+02 -0.26977319116E+01 -0.56892908314E+02  0.60295660287E+02  0.00000000000E+00 0.  1.
<mgrwt>
<rscale>  0 0.91524899E+02</rscale>
<asrwt>0</asrwt>
<pdfrwt beam="1">  1        1 0.10520415E-02 0.91524899E+02</pdfrwt>
<pdfrwt beam="2">  1       -1 0.47114972E-01 0.91524899E+02</pdfrwt>
<totfact> 0.59496177E+04</totfact>
</mgrwt>
</event>
<event>
 7    1  0.3301067E-009  0.8890096E+02  0.7818608E-02  0.1305535E+00
          1   -1    0    0  501    0  0.00000000000E+00  0.00000000000E+00  0.67592568306E+02  0.67592568494E+02  0.50400000000E-02 0. -1.
         -1   -1    0    0    0  501 -0.00000000000E+00 -0.00000000000E+00 -0.29231692692E+02  0.29231693126E+02  0.50400000000E-02 0.  1.
         23    2    1    2    0    0  0.00000000000E+00  0.00000000000E+00  0.38360875614E+02  0.96824261620E+02  0.88900960964E+02 0.  0.
    9000005    2    3    3    0    0  0.42330777177E+02  0.91465634509E+01  0.20079052178E+02  0.49815970994E+02  0.14244588810E+02 0.  0.
         22    1    3    3    0    0 -0.42330777177E+02 -0.91465634509E+01  0.18281823436E+02  0.47008290626E+02  0.00000000000E+00 0. -1.
         22    1    4    4    0    0  0.25765123339E+02  0.78001697254E+01  0.19399705115E+02  0.33181814100E+02  0.00000000000E+00 0.  1.
         22    1    4    4    0    0  0.16565653838E+02  0.13463937255E+01  0.67934706255E+00  0.16634156894E+02  0.00000000000E+00 0.  1.
<mgrwt>
<rscale>  0 0.88900961E+02</rscale>
<asrwt>0</asrwt>
<pdfrwt beam="1">  1        1 0.10398857E-01 0.88900961E+02</pdfrwt>
<pdfrwt beam="2">  1       -1 0.44971835E-02 0.88900961E+02</pdfrwt>
<totfact> 0.10521215E+05</totfact>
</mgrwt>
</event>
<event>
 7    1  0.3301067E-009  0.9501209E+02  0.7818608E-02  0.1291149E+00
         -1   -1    0    0    0  501 -0.00000000000E+00  0.00000000000E+00  0.15470252334E+02  0.15470253155E+02  0.50400000000E-02 0.  1.
          1   -1    0    0  501    0  0.00000000000E+00 -0.00000000000E+00 -0.14588154951E+03  0.14588154960E+03  0.50400000000E-02 0. -1.
         23    2    1    2    0    0  0.00000000000E+00  0.00000000000E+00 -0.13041129717E+03  0.16135180275E+03  0.95012093022E+02 0.  0.
    9000005    2    3    3    0    0  0.90877401516E+01  0.33630025399E+02 -0.15448264076E+02  0.41226598865E+02  0.15729525156E+02 0.  0.
         22    1    3    3    0    0 -0.90877401516E+01 -0.33630025399E+02 -0.11496303310E+03  0.12012520389E+03  0.00000000000E+00 0. -1.
         22    1    4    4    0    0  0.39592546585E-01 -0.17185212765E+01 -0.94568712522E+00  0.19619396235E+01  0.00000000000E+00 0.  1.
         22    1    4    4    0    0  0.90481476050E+01  0.35348546676E+02 -0.14502576951E+02  0.39264659242E+02  0.00000000000E+00 0.  1.
<mgrwt>
<rscale>  0 0.95012093E+02</rscale>
<asrwt>0</asrwt>
<pdfrwt beam="2">  1        1 0.22443314E-01 0.95012093E+02</pdfrwt>
<pdfrwt beam="1">  1       -1 0.23800390E-02 0.95012093E+02</pdfrwt>
<totfact> 0.99782894E+04</totfact>
</mgrwt>
</event>
<event>
 7    1  0.3301067E-009  0.9135927E+02  0.7818608E-02  0.1299593E+00
         -1   -1    0    0    0  501 -0.00000000000E+00  0.00000000000E+00  0.20847768994E+02  0.20847769603E+02  0.50400000000E-02 0.  1.
          1   -1    0    0  501    0  0.00000000000E+00 -0.00000000000E+00 -0.10008884063E+03  0.10008884075E+03  0.50400000000E-02 0. -1.
         23    2    1    2    0    0 -0.35527136788E-14  0.00000000000E+00 -0.79241071633E+02  0.12093661036E+03  0.91359270416E+02 0.  0.
    9000005    2    3    3    0    0  0.13128832150E+02  0.34216654613E+02 -0.74029798914E+02  0.83919005762E+02  0.14793333439E+02 0.  0.
         22    1    3    3    0    0 -0.13128832150E+02 -0.34216654613E+02 -0.52112727188E+01  0.37017604594E+02  0.00000000000E+00 0.  1.
         22    1    4    4    0    0  0.90314241765E+01  0.27978402730E+02 -0.43593035532E+02  0.52580513395E+02  0.00000000000E+00 0.  1.
         22    1    4    4    0    0  0.40974079736E+01  0.62382518837E+01 -0.30436763383E+02  0.31338492368E+02  0.00000000000E+00 0.  1.
<mgrwt>
<rscale>  0 0.91359270E+02</rscale>
<asrwt>0</asrwt>
<pdfrwt beam="2">  1        1 0.15398283E-01 0.91359270E+02</pdfrwt>
<pdfrwt beam="1">  1       -1 0.32073492E-02 0.91359270E+02</pdfrwt>
<totfact> 0.10389886E+05</totfact>
</mgrwt>
</event>
<event>
 7    1  0.3301067E-009  0.9107599E+02  0.7818608E-02  0.1300267E+00
          1   -1    0    0  501    0  0.00000000000E+00  0.00000000000E+00  0.18423323407E+03  0.18423323414E+03  0.50400000000E-02 0. -1.
         -1   -1    0    0    0  501 -0.00000000000E+00 -0.00000000000E+00 -0.11255888989E+02  0.11255890118E+02  0.50400000000E-02 0.  1.
         23    2    1    2    0    0  0.00000000000E+00 -0.71054273576E-14  0.17297734508E+03  0.19548912425E+03  0.91075989104E+02 0.  0.
    9000005    2    3    3    0    0  0.11677614951E+02 -0.43753802561E+02  0.86266741387E+02  0.97665350446E+02  0.67681665831E+01 0.  0.
         22    1    3    3    0    0 -0.11677614951E+02  0.43753802561E+02  0.86710603691E+02  0.97823773807E+02  0.00000000000E+00 0.  1.
         22    1    4    4    0    0  0.57061121227E+01 -0.10073227370E+02  0.22468375027E+02  0.25275630586E+02  0.00000000000E+00 0. -1.
         22    1    4    4    0    0  0.59715028279E+01 -0.33680575191E+02  0.63798366360E+02  0.72389719860E+02  0.00000000000E+00 0. -1.
<mgrwt>
<rscale>  0 0.91075989E+02</rscale>
<asrwt>0</asrwt>
<pdfrwt beam="1">  1        1 0.28343570E-01 0.91075989E+02</pdfrwt>
<pdfrwt beam="2">  1       -1 0.17316756E-02 0.91075989E+02</pdfrwt>
<totfact> 0.11689135E+05</totfact>
</mgrwt>
</event>
<event>
 7    1  0.3301067E-009  0.9036784E+02  0.7818608E-02  0.1301963E+00
         -1   -1    0    0    0  501 -0.00000000000E+00  0.00000000000E+00  0.40327728840E+01  0.40327760333E+01  0.50400000000E-02 0.  1.
          1   -1    0    0  501    0  0.00000000000E+00 -0.00000000000E+00 -0.50624860429E+03  0.50624860432E+03  0.50400000000E-02 0. -1.
         23    2    1    2    0    0  0.00000000000E+00  0.17763568394E-14 -0.50221583141E+03  0.51028138035E+03  0.90367836178E+02 0.  0.
    9000005    2    3    3    0    0 -0.43521238465E+02 -0.80581247481E+01 -0.28415322207E+03  0.28777220490E+03  0.10524102034E+02 0.  0.
         22    1    3    3    0    0  0.43521238465E+02  0.80581247481E+01 -0.21806260934E+03  0.22250917546E+03  0.00000000000E+00 0.  1.
         22    1    4    4    0    0 -0.29921876164E+02 -0.33101606515E+01 -0.21800913813E+03  0.22007785019E+03  0.00000000000E+00 0. -1.
         22    1    4    4    0    0 -0.13599362301E+02 -0.47479640966E+01 -0.66144083943E+02  0.67694354703E+02  0.00000000000E+00 0. -1.
<mgrwt>
<rscale>  0 0.90367836E+02</rscale>
<asrwt>0</asrwt>
<pdfrwt beam="2">  1        1 0.77884350E-01 0.90367836E+02</pdfrwt>
<pdfrwt beam="1">  1       -1 0.62042724E-03 0.90367836E+02</pdfrwt>
<totfact> 0.14279689E+05</totfact>
</mgrwt>
</event>
<event>
 7    1  0.3301067E-009  0.9210779E+02  0.7818608E-02  0.1297826E+00
          1   -1    0    0  501    0  0.00000000000E+00  0.00000000000E+00  0.92063006355E+03  0.92063006356E+03  0.50400000000E-02 0. -1.
         -1   -1    0    0    0  501 -0.00000000000E+00 -0.00000000000E+00 -0.23038119128E+01  0.23038174258E+01  0.50400000000E-02 0.  1.
         23    2    1    2    0    0  0.00000000000E+00  0.00000000000E+00  0.91832625164E+03  0.92293388099E+03  0.92107785950E+02 0.  0.
    9000005    2    3    3    0    0  0.59710551515E+01  0.15336681194E+02  0.88951748251E+03  0.88975538692E+03  0.12346237705E+02 0.  0.
         22    1    3    3    0    0 -0.59710551515E+01 -0.15336681194E+02  0.28808769131E+02  0.33178494066E+02  0.00000000000E+00 0.  1.
         22    1    4    4    0    0  0.72811063288E+01  0.16916144493E+02  0.76942465723E+03  0.76964503092E+03  0.00000000000E+00 0. -1.
         22    1    4    4    0    0 -0.13100511773E+01 -0.15794632993E+01  0.12009282527E+03  0.12011035601E+03  0.00000000000E+00 0. -1.
<mgrwt>
<rscale>  0 0.92107786E+02</rscale>
<asrwt>0</asrwt>
<pdfrwt beam="1">  1        1 0.14163546E+00 0.92107786E+02</pdfrwt>
<pdfrwt beam="2">  1       -1 0.35443285E-03 0.92107786E+02</pdfrwt>
<totfact> 0.13492819E+05</totfact>
</mgrwt>
</event>
<event>
 7    1  0.3301067E-009  0.8946209E+02  0.7818608E-02  0.1304160E+00
         -1   -1    0    0    0  501 -0.00000000000E+00  0.00000000000E+00  0.78114514817E+02  0.78114514980E+02  0.50400000000E-02 0.  1.
          1   -1    0    0  501    0  0.00000000000E+00 -0.00000000000E+00 -0.25614525432E+02  0.25614525928E+02  0.50400000000E-02 0. -1.
         23    2    1    2    0    0  0.00000000000E+00  0.00000000000E+00  0.52499989385E+02  0.10372904091E+03  0.89462087178E+02 0.  0.
    9000005    2    3    3    0    0  0.35537177830E+02  0.80383411687E+01 -0.36566625444E+01  0.36788205144E+02  0.35348153981E+01 0.  0.
         22    1    3    3    0    0 -0.35537177830E+02 -0.80383411687E+01  0.56156651929E+02  0.66940835764E+02  0.00000000000E+00 0.  1.
         22    1    4    4    0    0  0.28992826597E+02  0.64736267106E+01 -0.43508368690E+01  0.30023684290E+02  0.00000000000E+00 0. -1.
         22    1    4    4    0    0  0.65443512331E+01  0.15647144581E+01  0.69417432457E+00  0.67645208544E+01  0.00000000000E+00 0. -1.
<mgrwt>
<rscale>  0 0.89462087E+02</rscale>
<asrwt>0</asrwt>
<pdfrwt beam="2">  1        1 0.39406964E-02 0.89462087E+02</pdfrwt>
<pdfrwt beam="1">  1       -1 0.12017617E-01 0.89462087E+02</pdfrwt>
<totfact> 0.89216117E+04</totfact>
</mgrwt>
</event>
<event>
 7    1  0.3301067E-009  0.9156155E+02  0.7818608E-02  0.1299114E+00
          1   -1    0    0  501    0  0.00000000000E+00  0.00000000000E+00  0.93284805531E+02  0.93284805667E+02  0.50400000000E-02 0. -1.
         -1   -1    0    0    0  501 -0.00000000000E+00 -0.00000000000E+00 -0.22467531514E+02  0.22467532079E+02  0.50400000000E-02 0.  1.
         23    2    1    2    0    0 -0.17763568394E-14  0.00000000000E+00  0.70817274016E+02  0.11575233775E+03  0.91561549761E+02 0.  0.
    9000005    2    3    3    0    0  0.15112321020E+02 -0.37853842998E+02  0.60653128735E+02  0.73745129727E+02  0.99119350636E+01 0.  0.
         22    1    3    3    0    0 -0.15112321020E+02  0.37853842998E+02  0.10164145281E+02  0.42007208020E+02  0.00000000000E+00 0. -1.
         22    1    4    4    0    0  0.14009914920E+02 -0.31889022285E+02  0.56569985841E+02  0.66433054697E+02  0.00000000000E+00 0.  1.
         22    1    4    4    0    0  0.11024061002E+01 -0.59648207123E+01  0.40831428949E+01  0.73120750297E+01  0.00000000000E+00 0.  1.
<mgrwt>
<rscale>  0 0.91561550E+02</rscale>
<asrwt>0</asrwt>
<pdfrwt beam="1">  1        1 0.14351509E-01 0.91561550E+02</pdfrwt>
<pdfrwt beam="2">  1       -1 0.34565434E-02 0.91561550E+02</pdfrwt>
<totfact> 0.10207910E+05</totfact>
</mgrwt>
</event>
<event>
 7    1  0.3301067E-009  0.9173138E+02  0.7818608E-02  0.1298712E+00
         -1   -1    0    0    0  501 -0.00000000000E+00  0.00000000000E+00  0.72019430679E+01  0.72019448314E+01  0.50400000000E-02 0.  1.
          1   -1    0    0  501    0  0.00000000000E+00 -0.00000000000E+00 -0.29209636175E+03  0.29209636179E+03  0.50400000000E-02 0. -1.
         23    2    1    2    0    0  0.00000000000E+00  0.00000000000E+00 -0.28489441868E+03  0.29929830663E+03  0.91731382592E+02 0.  0.
    9000005    2    3    3    0    0 -0.64804528023E+01  0.33150577099E+02 -0.24349338247E+03  0.24586608012E+03  0.44883195870E+01 0.  0.
         22    1    3    3    0    0  0.64804528023E+01 -0.33150577099E+02 -0.41401036209E+02  0.53432226509E+02  0.00000000000E+00 0.  1.
         22    1    4    4    0    0 -0.63458515639E+01  0.22413684977E+02 -0.16084891279E+03  0.16252696961E+03  0.00000000000E+00 0.  1.
         22    1    4    4    0    0 -0.13460123838E+00  0.10736892122E+02 -0.82644469685E+02  0.83339110503E+02  0.00000000000E+00 0.  1.
<mgrwt>
<rscale>  0 0.91731383E+02</rscale>
<asrwt>0</asrwt>
<pdfrwt beam="2">  1        1 0.44937893E-01 0.91731383E+02</pdfrwt>
<pdfrwt beam="1">  1       -1 0.11079916E-02 0.91731383E+02</pdfrwt>
<totfact> 0.12542344E+05</totfact>
</mgrwt>
</event>
<event>
 7    1  0.3301067E-009  0.9899162E+02  0.7818608E-02  0.1282431E+00
         -1   -1    0    0    0  501 -0.00000000000E+00  0.00000000000E+00  0.25037156535E+01  0.25037207263E+01  0.50400000000E-02 0.  1.
          1   -1    0    0  501    0  0.00000000000E+00 -0.00000000000E+00 -0.97847883353E+03  0.97847883354E+03  0.50400000000E-02 0. -1.
         23    2    1    2    0    0  0.00000000000E+00  0.00000000000E+00 -0.97597511787E+03  0.98098255427E+03  0.98991621194E+02 0.  0.
    9000005    2    3    3    0    0  0.36284210905E+02  0.20121631151E+02 -0.74463269656E+03  0.74594906750E+03  0.15515621816E+02 0.  0.
         22    1    3    3    0    0 -0.36284210905E+02 -0.20121631151E+02 -0.23134242131E+03  0.23503348676E+03  0.00000000000E+00 0.  1.
         22    1    4    4    0    0  0.22285537320E+02  0.41275764019E+01 -0.43258091977E+03  0.43317425386E+03  0.00000000000E+00 0. -1.
         22    1    4    4    0    0  0.13998673585E+02  0.15994054749E+02 -0.31205177679E+03  0.31277481364E+03  0.00000000000E+00 0. -1.
<mgrwt>
<rscale>  0 0.98991621E+02</rscale>
<asrwt>0</asrwt>
<pdfrwt beam="2">  1        1 0.15053490E+00 0.98991621E+02</pdfrwt>
<pdfrwt beam="1">  1       -1 0.38518819E-03 0.98991621E+02</pdfrwt>
<totfact> 0.10995767E+05</totfact>
</mgrwt>
</event>
<event>
 7    1  0.3301067E-009  0.8988756E+02  0.7818608E-02  0.1303124E+00
         -1   -1    0    0    0  501 -0.00000000000E+00  0.00000000000E+00  0.36638435197E+02  0.36638435544E+02  0.50400000000E-02 0.  1.
          1   -1    0    0  501    0  0.00000000000E+00 -0.00000000000E+00 -0.55131809201E+02  0.55131809431E+02  0.50400000000E-02 0. -1.
         23    2    1    2    0    0 -0.35527136788E-14  0.00000000000E+00 -0.18493374003E+02  0.91770244975E+02  0.89887557430E+02 0.  0.
    9000005    2    3    3    0    0 -0.30106496988E+02  0.20956949841E+02  0.15040674747E+02  0.42069869392E+02  0.14073276314E+02 0.  0.
         22    1    3    3    0    0  0.30106496988E+02 -0.20956949841E+02 -0.33534048750E+02  0.49700375584E+02  0.00000000000E+00 0. -1.
         22    1    4    4    0    0 -0.73516662913E+01  0.95460152314E+01  0.10962538527E+02  0.16289587319E+02  0.00000000000E+00 0.  1.
         22    1    4    4    0    0 -0.22754830697E+02  0.11410934610E+02  0.40781362198E+01  0.25780282073E+02  0.00000000000E+00 0.  1.
<mgrwt>
<rscale>  0 0.89887557E+02</rscale>
<asrwt>0</asrwt>
<pdfrwt beam="2">  1        1 0.84818168E-02 0.89887557E+02</pdfrwt>
<pdfrwt beam="1">  1       -1 0.56366824E-02 0.89887557E+02</pdfrwt>
<totfact> 0.98989221E+04</totfact>
</mgrwt>
</event>
<event>
 7    1  0.3301067E-009  0.9243172E+02  0.7818608E-02  0.1297068E+00
          1   -1    0    0  501    0  0.00000000000E+00  0.00000000000E+00  0.13936272084E+03  0.13936272093E+03  0.50400000000E-02 0. -1.
         -1   -1    0    0    0  501 -0.00000000000E+00 -0.00000000000E+00 -0.15326234251E+02  0.15326235080E+02  0.50400000000E-02 0.  1.
         23    2    1    2    0    0  0.35527136788E-14  0.00000000000E+00  0.12403648659E+03  0.15468895601E+03  0.92431721322E+02 0.  0.
    9000005    2    3    3    0    0 -0.24950101129E+02 -0.13051650737E+02  0.76178639565E+00  0.28239342168E+02  0.20067372118E+01 0.  0.
         22    1    3    3    0    0  0.24950101129E+02  0.13051650737E+02  0.12327470019E+03  0.12644961384E+03  0.00000000000E+00 0. -1.
         22    1    4    4    0    0 -0.32225596822E+01 -0.24102945472E+01 -0.17132782896E+00  0.40278733762E+01  0.00000000000E+00 0.  1.
         22    1    4    4    0    0 -0.21727541447E+02 -0.10641356190E+02  0.93311422461E+00  0.24211468792E+02  0.00000000000E+00 0.  1.
<mgrwt>
<rscale>  0 0.92431721E+02</rscale>
<asrwt>0</asrwt>
<pdfrwt beam="1">  1        1 0.21440419E-01 0.92431721E+02</pdfrwt>
<pdfrwt beam="2">  1       -1 0.23578822E-02 0.92431721E+02</pdfrwt>
<totfact> 0.10661980E+05</totfact>
</mgrwt>
</event>
<event>
 7    1  0.3301067E-009  0.9094762E+02  0.7818608E-02  0.1300573E+00
          1   -1    0    0  501    0  0.00000000000E+00  0.00000000000E+00  0.16200467931E+03  0.16200467939E+03  0.50400000000E-02 0. -1.
         -1   -1    0    0    0  501 -0.00000000000E+00 -0.00000000000E+00 -0.12764243933E+02  0.12764244928E+02  0.50400000000E-02 0.  1.
         23    2    1    2    0    0 -0.17763568394E-14  0.00000000000E+00  0.14924043537E+03  0.17476892431E+03  0.90947618743E+02 0.  0.
    9000005    2    3    3    0    0  0.12049165140E+02  0.40791863326E+02  0.10046928619E+03  0.11005583841E+03  0.14458617033E+02 0.  0.
         22    1    3    3    0    0 -0.12049165140E+02 -0.40791863326E+02  0.48771149180E+02  0.64713085899E+02  0.00000000000E+00 0.  1.
         22    1    4    4    0    0  0.14419291107E+02  0.37204519975E+02  0.95403352859E+02  0.10341127598E+03  0.00000000000E+00 0.  1.
         22    1    4    4    0    0 -0.23701259667E+01  0.35873433516E+01  0.50659333356E+01  0.66445624371E+01  0.00000000000E+00 0.  1.
<mgrwt>
<rscale>  0 0.90947619E+02</rscale>
<asrwt>0</asrwt>
<pdfrwt beam="1">  1        1 0.24923798E-01 0.90947619E+02</pdfrwt>
<pdfrwt beam="2">  1       -1 0.19637298E-02 0.90947619E+02</pdfrwt>
<totfact> 0.11451746E+05</totfact>
</mgrwt>
</event>
<event>
 7    1  0.3301067E-009  0.8945383E+02  0.7818608E-02  0.1304180E+00
         -1   -1    0    0    0  501 -0.00000000000E+00  0.00000000000E+00  0.88633559936E+01  0.88633574266E+01  0.50400000000E-02 0.  1.
          1   -1    0    0  501    0  0.00000000000E+00 -0.00000000000E+00 -0.22570420735E+03  0.22570420741E+03  0.50400000000E-02 0. -1.
         23    2    1    2    0    0  0.22204460493E-15  0.00000000000E+00 -0.21684085136E+03  0.23456756483E+03  0.89453829737E+02 0.  0.
    9000005    2    3    3    0    0  0.71691260765E+00 -0.33295233188E+02 -0.18583434362E+03  0.18906492712E+03  0.10102320594E+02 0.  0.
         22    1    3    3    0    0 -0.71691260765E+00  0.33295233188E+02 -0.31006507732E+02  0.45502637708E+02  0.00000000000E+00 0.  1.
         22    1    4    4    0    0 -0.41589974821E+01 -0.20604230420E+02 -0.12217578640E+03  0.12397078024E+03  0.00000000000E+00 0. -1.
         22    1    4    4    0    0  0.48759100897E+01 -0.12691002768E+02 -0.63658557227E+02  0.65094146885E+02  0.00000000000E+00 0. -1.
<mgrwt>
<rscale>  0 0.89453830E+02</rscale>
<asrwt>0</asrwt>
<pdfrwt beam="2">  1        1 0.34723720E-01 0.89453830E+02</pdfrwt>
<pdfrwt beam="1">  1       -1 0.13635935E-02 0.89453830E+02</pdfrwt>
<totfact> 0.12756701E+05</totfact>
</mgrwt>
</event>
<event>
 7    1  0.3301067E-009  0.9061785E+02  0.7818608E-02  0.1301362E+00
          1   -1    0    0  501    0  0.00000000000E+00  0.00000000000E+00  0.10419149072E+02  0.10419150291E+02  0.50400000000E-02 0. -1.
         -1   -1    0    0    0  501 -0.00000000000E+00 -0.00000000000E+00 -0.19703128610E+03  0.19703128617E+03  0.50400000000E-02 0.  1.
         23    2    1    2    0    0  0.00000000000E+00 -0.35527136788E-14 -0.18661213703E+03  0.20745043646E+03  0.90617845372E+02 0.  0.
    9000005    2    3    3    0    0 -0.40113845763E+01 -0.27600993875E+02 -0.17873312943E+02  0.36422085524E+02  0.15139581541E+02 0.  0.
         22    1    3    3    0    0  0.40113845763E+01  0.27600993875E+02 -0.16873882409E+03  0.17102835093E+03  0.00000000000E+00 0.  1.
         22    1    4    4    0    0  0.52842828422E+01 -0.61210919095E+01 -0.26840321810E+01  0.85202957736E+01  0.00000000000E+00 0. -1.
         22    1    4    4    0    0 -0.92956674186E+01 -0.21479901965E+02 -0.15189280762E+02  0.27901789750E+02  0.00000000000E+00 0. -1.
<mgrwt>
<rscale>  0 0.90617845E+02</rscale>
<asrwt>0</asrwt>
<pdfrwt beam="1">  1        1 0.16029462E-02 0.90617845E+02</pdfrwt>
<pdfrwt beam="2">  1       -1 0.30312503E-01 0.90617845E+02</pdfrwt>
<totfact> 0.70845849E+04</totfact>
</mgrwt>
</event>
<event>
 7    1  0.3301067E-009  0.9090576E+02  0.7818608E-02  0.1300673E+00
         -1   -1    0    0    0  501 -0.00000000000E+00  0.00000000000E+00  0.77600081403E+02  0.77600081566E+02  0.50400000000E-02 0.  1.
          1   -1    0    0  501    0  0.00000000000E+00 -0.00000000000E+00 -0.26623221178E+02  0.26623221655E+02  0.50400000000E-02 0. -1.
         23    2    1    2    0    0  0.71054273576E-14  0.00000000000E+00  0.50976860225E+02  0.10422330322E+03  0.90905757001E+02 0.  0.
    9000005    2    3    3    0    0  0.39849677689E+02 -0.13655931888E+02  0.41112418325E+02  0.60959132113E+02  0.15852556884E+02 0.  0.
         22    1    3    3    0    0 -0.39849677689E+02  0.13655931888E+02  0.98644418996E+01  0.43264171108E+02  0.00000000000E+00 0. -1.
         22    1    4    4    0    0 -0.29214192518E+00  0.18893667392E+01  0.12063015123E+01  0.22605788901E+01  0.00000000000E+00 0.  1.
         22    1    4    4    0    0  0.40141819614E+02 -0.15545298628E+02  0.39906116813E+02  0.58698553223E+02  0.00000000000E+00 0.  1.
<mgrwt>
<rscale>  0 0.90905757E+02</rscale>
<asrwt>0</asrwt>
<pdfrwt beam="2">  1        1 0.40958802E-02 0.90905757E+02</pdfrwt>
<pdfrwt beam="1">  1       -1 0.11938474E-01 0.90905757E+02</pdfrwt>
<totfact> 0.85735761E+04</totfact>
</mgrwt>
</event>
<event>
 7    1  0.3301067E-009  0.9131285E+02  0.7818608E-02  0.1299703E+00
          1   -1    0    0  501    0  0.00000000000E+00  0.00000000000E+00  0.20262710361E+03  0.20262710367E+03  0.50400000000E-02 0. -1.
         -1   -1    0    0    0  501 -0.00000000000E+00 -0.00000000000E+00 -0.10287415078E+02  0.10287416313E+02  0.50400000000E-02 0.  1.
         23    2    1    2    0    0  0.00000000000E+00  0.00000000000E+00  0.19233968853E+03  0.21291451999E+03  0.91312852526E+02 0.  0.
    9000005    2    3    3    0    0  0.19620547732E+02 -0.36177852071E+02  0.59923304119E+02  0.74249810219E+02  0.15113870029E+02 0.  0.
         22    1    3    3    0    0 -0.19620547732E+02  0.36177852071E+02  0.13241638441E+03  0.13866470977E+03  0.00000000000E+00 0.  1.
         22    1    4    4    0    0  0.14640985016E+02 -0.34218969664E+02  0.57206387828E+02  0.68248568743E+02  0.00000000000E+00 0.  1.
         22    1    4    4    0    0  0.49795627159E+01 -0.19588824067E+01  0.27169162912E+01  0.60012414764E+01  0.00000000000E+00 0.  1.
<mgrwt>
<rscale>  0 0.91312853E+02</rscale>
<asrwt>0</asrwt>
<pdfrwt beam="1">  1        1 0.31173400E-01 0.91312853E+02</pdfrwt>
<pdfrwt beam="2">  1       -1 0.15826794E-02 0.91312853E+02</pdfrwt>
<totfact> 0.11823235E+05</totfact>
</mgrwt>
</event>
<event>
 7    1  0.3301067E-009  0.9370818E+02  0.7818608E-02  0.1294112E+00
         -1   -1    0    0    0  501 -0.00000000000E+00  0.00000000000E+00  0.55224773088E+02  0.55224773318E+02  0.50400000000E-02 0.  1.
          1   -1    0    0  501    0  0.00000000000E+00 -0.00000000000E+00 -0.39752190506E+02  0.39752190826E+02  0.50400000000E-02 0. -1.
         23    2    1    2    0    0  0.00000000000E+00 -0.71054273576E-14  0.15472582582E+02  0.94976964144E+02  0.93708179505E+02 0.  0.
    9000005    2    3    3    0    0 -0.12734133633E+02  0.44384454136E+02  0.95490312679E+01  0.48423485342E+02  0.11023248441E+02 0.  0.
         22    1    3    3    0    0  0.12734133633E+02 -0.44384454136E+02  0.59235513136E+01  0.46553478801E+02  0.00000000000E+00 0. -1.
         22    1    4    4    0    0 -0.10260521176E+02  0.17483698991E+02  0.62201393142E+01  0.21204908826E+02  0.00000000000E+00 0.  1.
         22    1    4    4    0    0 -0.24736124570E+01  0.26900755145E+02  0.33288919537E+01  0.27218576516E+02  0.00000000000E+00 0.  1.
<mgrwt>
<rscale>  0 0.93708180E+02</rscale>
<asrwt>0</asrwt>
<pdfrwt beam="2">  1        1 0.61157217E-02 0.93708180E+02</pdfrwt>
<pdfrwt beam="1">  1       -1 0.84961190E-02 0.93708180E+02</pdfrwt>
<totfact> 0.83812160E+04</totfact>
</mgrwt>
</event>
<event>
 7    1  0.3301067E-009  0.9239851E+02  0.7818608E-02  0.1297145E+00
         -1   -1    0    0    0  501 -0.00000000000E+00  0.00000000000E+00  0.80149102874E+01  0.80149118720E+01  0.50400000000E-02 0.  1.
          1   -1    0    0  501    0  0.00000000000E+00 -0.00000000000E+00 -0.26630006626E+03  0.26630006631E+03  0.50400000000E-02 0. -1.
         23    2    1    2    0    0 -0.35527136788E-14  0.17763568394E-14 -0.25828515597E+03  0.27431497818E+03  0.92398514371E+02 0.  0.
    9000005    2    3    3    0    0  0.28455376298E+02 -0.12770182169E+02 -0.22901770969E+03  0.23154385001E+03  0.13807864945E+02 0.  0.
         22    1    3    3    0    0 -0.28455376298E+02  0.12770182169E+02 -0.29267446288E+02  0.42771128172E+02  0.00000000000E+00 0.  1.
         22    1    4    4    0    0  0.28499615970E+02 -0.14765110964E+02 -0.21381874557E+03  0.21621445967E+03  0.00000000000E+00 0. -1.
         22    1    4    4    0    0 -0.44239671725E-01  0.19949287951E+01 -0.15198964118E+02  0.15329390344E+02  0.00000000000E+00 0. -1.
<mgrwt>
<rscale>  0 0.92398514E+02</rscale>
<asrwt>0</asrwt>
<pdfrwt beam="2">  1        1 0.40969234E-01 0.92398514E+02</pdfrwt>
<pdfrwt beam="1">  1       -1 0.12330635E-02 0.92398514E+02</pdfrwt>
<totfact> 0.12082917E+05</totfact>
</mgrwt>
</event>
<event>
 7    1  0.4825530E-009  0.9204202E+02  0.7818608E-02  0.1297981E+00
          1   -1    0    0  501    0  0.00000000000E+00  0.00000000000E+00  0.21531230712E+02  0.21531231302E+02  0.50400000000E-02 0. -1.
         -1   -1    0    0    0  501 -0.00000000000E+00 -0.00000000000E+00 -0.98365631223E+02  0.98365631352E+02  0.50400000000E-02 0.  1.
         23    2    1    2    0    0  0.00000000000E+00  0.00000000000E+00 -0.76834400511E+02  0.11989686265E+03  0.92042015256E+02 0.  0.
    9000005    2    3    3    0    0 -0.97425813905E+01 -0.83382127015E+01 -0.95546728535E+02  0.97212178322E+02  0.12513456643E+02 0.  0.
         22    1    3    3    0    0  0.97425813905E+01  0.83382127015E+01  0.18712328024E+02  0.22684684332E+02  0.00000000000E+00 0. -1.
         22    1    4    4    0    0 -0.94413850783E+01  0.12736994531E+00 -0.49319966737E+02  0.50215685739E+02  0.00000000000E+00 0. -1.
         22    1    4    4    0    0 -0.30119631225E+00 -0.84655826468E+01 -0.46226761797E+02  0.46996492582E+02  0.00000000000E+00 0. -1.
<mgrwt>
<rscale>  0 0.92042015E+02</rscale>
<asrwt>0</asrwt>
<pdfrwt beam="1">  1        1 0.33124971E-02 0.92042015E+02</pdfrwt>
<pdfrwt beam="2">  1       -1 0.15133174E-01 0.92042015E+02</pdfrwt>
<totfact> 0.79656793E+04</totfact>
</mgrwt>
</event>
<event>
 7    1  0.3301067E-009  0.9252795E+02  0.7818608E-02  0.1296843E+00
          1   -1    0    0  501    0  0.00000000000E+00  0.00000000000E+00  0.14654408922E+03  0.14654408931E+03  0.50400000000E-02 0. -1.
         -1   -1    0    0    0  501 -0.00000000000E+00 -0.00000000000E+00 -0.14605538276E+02  0.14605539146E+02  0.50400000000E-02 0.  1.
         23    2    1    2    0    0  0.00000000000E+00  0.00000000000E+00  0.13193855094E+03  0.16114962845E+03  0.92527949968E+02 0.  0.
    9000005    2    3    3    0    0 -0.26492663658E+02  0.34320402379E+02  0.90403827559E+02  0.10110893814E+03  0.13054274642E+02 0.  0.
         22    1    3    3    0    0  0.26492663658E+02 -0.34320402379E+02  0.41534723385E+02  0.60040690317E+02  0.00000000000E+00 0.  1.
         22    1    4    4    0    0 -0.25129649338E+02  0.35472190837E+02  0.86172501996E+02  0.96516712018E+02  0.00000000000E+00 0. -1.
         22    1    4    4    0    0 -0.13630143199E+01 -0.11517884583E+01  0.42313255629E+01  0.45922261169E+01  0.00000000000E+00 0. -1.
<mgrwt>
<rscale>  0 0.92527950E+02</rscale>
<asrwt>0</asrwt>
<pdfrwt beam="1">  1        1 0.22545245E-01 0.92527950E+02</pdfrwt>
<pdfrwt beam="2">  1       -1 0.22470059E-02 0.92527950E+02</pdfrwt>
<totfact> 0.10730078E+05</totfact>
</mgrwt>
</event>
<event>
 7    1  0.3301067E-009  0.9468405E+02  0.7818608E-02  0.1291889E+00
         -1   -1    0    0    0  501 -0.00000000000E+00  0.00000000000E+00  0.32107234768E+02  0.32107235164E+02  0.50400000000E-02 0.  1.
          1   -1    0    0  501    0  0.00000000000E+00 -0.00000000000E+00 -0.69805682506E+02  0.69805682688E+02  0.50400000000E-02 0. -1.
         23    2    1    2    0    0  0.00000000000E+00  0.00000000000E+00 -0.37698447738E+02  0.10191291785E+03  0.94684052845E+02 0.  0.
    9000005    2    3    3    0    0  0.25684190608E+02  0.19866949183E+02  0.17636939159E+02  0.37753909442E+02  0.77409778642E+01 0.  0.
         22    1    3    3    0    0 -0.25684190608E+02 -0.19866949183E+02 -0.55335386897E+02  0.64159008409E+02  0.00000000000E+00 0. -1.
         22    1    4    4    0    0  0.20593010807E+02  0.19289564145E+02  0.15586531139E+02  0.32235063704E+02  0.00000000000E+00 0. -1.
         22    1    4    4    0    0  0.50911798004E+01  0.57738503744E+00  0.20504080195E+01  0.55188457388E+01  0.00000000000E+00 0. -1.
<mgrwt>
<rscale>  0 0.94684053E+02</rscale>
<asrwt>0</asrwt>
<pdfrwt beam="2">  1        1 0.10739336E-01 0.94684053E+02</pdfrwt>
<pdfrwt beam="1">  1       -1 0.49395746E-02 0.94684053E+02</pdfrwt>
<totfact> 0.88840340E+04</totfact>
</mgrwt>
</event>
<event>
 7    1  0.3301067E-009  0.9090648E+02  0.7818608E-02  0.1300671E+00
         -1   -1    0    0    0  501 -0.00000000000E+00  0.00000000000E+00  0.13242652645E+02  0.13242653604E+02  0.50400000000E-02 0.  1.
          1   -1    0    0  501    0  0.00000000000E+00 -0.00000000000E+00 -0.15601081116E+03  0.15601081124E+03  0.50400000000E-02 0. -1.
         23    2    1    2    0    0  0.00000000000E+00 -0.71054273576E-14 -0.14276815852E+03  0.16925346485E+03  0.90906480938E+02 0.  0.
    9000005    2    3    3    0    0 -0.58124557418E+01 -0.44326295292E+02 -0.77220967124E+02  0.89912180540E+02  0.11068755564E+02 0.  0.
         22    1    3    3    0    0  0.58124557418E+01  0.44326295292E+02 -0.65547191395E+02  0.79341284309E+02  0.00000000000E+00 0.  1.
         22    1    4    4    0    0 -0.82567520965E+01 -0.33124789039E+02 -0.51961648324E+02  0.62172650744E+02  0.00000000000E+00 0.  1.
         22    1    4    4    0    0  0.24442963546E+01 -0.11201506254E+02 -0.25259318800E+02  0.27739529795E+02  0.00000000000E+00 0.  1.
<mgrwt>
<rscale>  0 0.90906481E+02</rscale>
<asrwt>0</asrwt>
<pdfrwt beam="2">  1        1 0.24001662E-01 0.90906481E+02</pdfrwt>
<pdfrwt beam="1">  1       -1 0.20373314E-02 0.90906481E+02</pdfrwt>
<totfact> 0.11385663E+05</totfact>
</mgrwt>
</event>
<event>
 7    1  0.3301067E-009  0.9188281E+02  0.7818608E-02  0.1298355E+00
          1   -1    0    0  501    0  0.00000000000E+00  0.00000000000E+00  0.71536195825E+02  0.71536196003E+02  0.50400000000E-02 0. -1.
         -1   -1    0    0    0  501 -0.00000000000E+00 -0.00000000000E+00 -0.29504125368E+02  0.29504125799E+02  0.50400000000E-02 0.  1.
         23    2    1    2    0    0  0.88817841970E-15  0.00000000000E+00  0.42032070457E+02  0.10104032180E+03  0.91882814949E+02 0.  0.
    9000005    2    3    3    0    0  0.41321834446E+01  0.39941190900E+02  0.44223911286E+02  0.60826172094E+02  0.11475853415E+02 0.  0.
         22    1    3    3    0    0 -0.41321834446E+01 -0.39941190900E+02 -0.21918408295E+01  0.40214149708E+02  0.00000000000E+00 0.  1.
         22    1    4    4    0    0  0.34107348888E+01  0.42953636367E+01  0.99994858563E+01  0.11404954127E+02  0.00000000000E+00 0. -1.
         22    1    4    4    0    0  0.72144855589E+00  0.35645827263E+02  0.34224425430E+02  0.49421217967E+02  0.00000000000E+00 0. -1.
<mgrwt>
<rscale>  0 0.91882815E+02</rscale>
<asrwt>0</asrwt>
<pdfrwt beam="1">  1        1 0.11005569E-01 0.91882815E+02</pdfrwt>
<pdfrwt beam="2">  1       -1 0.45390962E-02 0.91882815E+02</pdfrwt>
<totfact> 0.96913478E+04</totfact>
</mgrwt>
</event>
<event>
 7    1  0.3301067E-009  0.9157491E+02  0.7818608E-02  0.1299082E+00
          1   -1    0    0  501    0  0.00000000000E+00  0.00000000000E+00  0.78433619871E+01  0.78433636064E+01  0.50400000000E-02 0. -1.
         -1   -1    0    0    0  501 -0.00000000000E+00 -0.00000000000E+00 -0.26729492579E+03  0.26729492584E+03  0.50400000000E-02 0.  1.
         23    2    1    2    0    0  0.71054273576E-14  0.00000000000E+00 -0.25945156381E+03  0.27513828945E+03  0.91574911185E+02 0.  0.
    9000005    2    3    3    0    0  0.37605064579E+02  0.23378133437E+02 -0.10472605629E+03  0.11420146743E+03  0.10665378197E+02 0.  0.
         22    1    3    3    0    0 -0.37605064579E+02 -0.23378133437E+02 -0.15472550751E+03  0.16093682202E+03  0.00000000000E+00 0. -1.
         22    1    4    4    0    0  0.55523726491E+01  0.58696413635E+01 -0.11310352061E+02  0.13899841564E+02  0.00000000000E+00 0.  1.
         22    1    4    4    0    0  0.32052691930E+02  0.17508492073E+02 -0.93415704232E+02  0.10030162587E+03  0.00000000000E+00 0.  1.
<mgrwt>
<rscale>  0 0.91574911E+02</rscale>
<asrwt>0</asrwt>
<pdfrwt beam="1">  1        1 0.12066714E-02 0.91574911E+02</pdfrwt>
<pdfrwt beam="2">  1       -1 0.41122289E-01 0.91574911E+02</pdfrwt>
<totfact> 0.62555198E+04</totfact>
</mgrwt>
</event>
<event>
 7    1  0.3301067E-009  0.9129287E+02  0.7818608E-02  0.1299751E+00
          1   -1    0    0  501    0  0.00000000000E+00  0.00000000000E+00  0.38553969739E+02  0.38553970069E+02  0.50400000000E-02 0. -1.
         -1   -1    0    0    0  501 -0.00000000000E+00 -0.00000000000E+00 -0.54043641637E+02  0.54043641872E+02  0.50400000000E-02 0.  1.
         23    2    1    2    0    0  0.00000000000E+00  0.00000000000E+00 -0.15489671898E+02  0.92597611941E+02  0.91292868295E+02 0.  0.
    9000005    2    3    3    0    0  0.40341416144E+02  0.12707025792E+02  0.73951710647E+01  0.44507962344E+02  0.11720571487E+02 0.  0.
         22    1    3    3    0    0 -0.40341416144E+02 -0.12707025792E+02 -0.22884842962E+02  0.48089649597E+02  0.00000000000E+00 0. -1.
         22    1    4    4    0    0  0.18063566768E+02  0.11516657917E+02  0.17422077492E+01  0.21493281318E+02  0.00000000000E+00 0.  1.
         22    1    4    4    0    0  0.22277849375E+02  0.11903678741E+01  0.56529633155E+01  0.23014681026E+02  0.00000000000E+00 0.  1.
<mgrwt>
<rscale>  0 0.91292868E+02</rscale>
<asrwt>0</asrwt>
<pdfrwt beam="1">  1        1 0.59313800E-02 0.91292868E+02</pdfrwt>
<pdfrwt beam="2">  1       -1 0.83144064E-02 0.91292868E+02</pdfrwt>
<totfact> 0.89832237E+04</totfact>
</mgrwt>
</event>
<event>
 7    1  0.3301067E-009  0.9110399E+02  0.7818608E-02  0.1300200E+00
         -1   -1    0    0    0  501 -0.00000000000E+00  0.00000000000E+00  0.85296660931E+02  0.85296661080E+02  0.50400000000E-02 0.  1.
          1   -1    0    0  501    0  0.00000000000E+00 -0.00000000000E+00 -0.24326677126E+02  0.24326677649E+02  0.50400000000E-02 0. -1.
         23    2    1    2    0    0  0.00000000000E+00 -0.35527136788E-14  0.60969983804E+02  0.10962333873E+03  0.91103992606E+02 0.  0.
    9000005    2    3    3    0    0  0.31637925778E+02  0.31473342411E+02  0.25448670316E+02  0.52585690267E+02  0.11228996835E+02 0.  0.
         22    1    3    3    0    0 -0.31637925778E+02 -0.31473342411E+02  0.35521313489E+02  0.57037648462E+02  0.00000000000E+00 0.  1.
         22    1    4    4    0    0  0.32015653193E+02  0.29950046912E+02  0.25941333503E+02  0.50940751303E+02  0.00000000000E+00 0.  1.
         22    1    4    4    0    0 -0.37772741501E+00  0.15232954987E+01 -0.49266318757E+00  0.16449389633E+01  0.00000000000E+00 0.  1.
<mgrwt>
<rscale>  0 0.91103993E+02</rscale>
<asrwt>0</asrwt>
<pdfrwt beam="2">  1        1 0.37425657E-02 0.91103993E+02</pdfrwt>
<pdfrwt beam="1">  1       -1 0.13122563E-01 0.91103993E+02</pdfrwt>
<totfact> 0.83898655E+04</totfact>
</mgrwt>
</event>
<event>
 7    1  0.3301067E-009  0.6501237E+02  0.7818608E-02  0.1377925E+00
         -1   -1    0    0    0  501 -0.00000000000E+00  0.00000000000E+00  0.29696199570E+01  0.29696242339E+01  0.50400000000E-02 0.  1.
          1   -1    0    0  501    0  0.00000000000E+00 -0.00000000000E+00 -0.35582039104E+03  0.35582039108E+03  0.50400000000E-02 0. -1.
         23    2    1    2    0    0  0.17763568394E-14  0.00000000000E+00 -0.35285077109E+03  0.35879001531E+03  0.65012371377E+02 0.  0.
    9000005    2    3    3    0    0 -0.15446793853E+02 -0.26848159639E+02 -0.20383271060E+03  0.20658683050E+03  0.13073542321E+02 0.  0.
         22    1    3    3    0    0  0.15446793853E+02  0.26848159639E+02 -0.14901806049E+03  0.15220318482E+03  0.00000000000E+00 0.  1.
         22    1    4    4    0    0 -0.14706628779E+01  0.12205832008E+01 -0.20809809344E+02  0.20897388296E+02  0.00000000000E+00 0. -1.
         22    1    4    4    0    0 -0.13976130975E+02 -0.28068742840E+02 -0.18302290125E+03  0.18568944220E+03  0.00000000000E+00 0. -1.
<mgrwt>
<rscale>  0 0.65012371E+02</rscale>
<asrwt>0</asrwt>
<pdfrwt beam="2">  1        1 0.54741565E-01 0.65012371E+02</pdfrwt>
<pdfrwt beam="1">  1       -1 0.45686522E-03 0.65012371E+02</pdfrwt>
<totfact> 0.31988638E+05</totfact>
</mgrwt>
</event>
<event>
 7    1  0.3301067E-009  0.9005904E+02  0.7818608E-02  0.1302709E+00
          1   -1    0    0  501    0  0.00000000000E+00  0.00000000000E+00  0.39077619173E+02  0.39077619498E+02  0.50400000000E-02 0. -1.
         -1   -1    0    0    0  501 -0.00000000000E+00 -0.00000000000E+00 -0.51887949240E+02  0.51887949484E+02  0.50400000000E-02 0.  1.
         23    2    1    2    0    0  0.00000000000E+00 -0.71054273576E-14 -0.12810330067E+02  0.90965568982E+02  0.90059037214E+02 0.  0.
    9000005    2    3    3    0    0  0.13868579343E+02  0.37694339139E+02 -0.24341584615E+02  0.49178363673E+02  0.14587598018E+02 0.  0.
         22    1    3    3    0    0 -0.13868579343E+02 -0.37694339139E+02  0.11531254548E+02  0.41787205309E+02  0.00000000000E+00 0. -1.
         22    1    4    4    0    0  0.66422142750E+01  0.24255101256E+02 -0.22616803780E+02  0.33822311580E+02  0.00000000000E+00 0. -1.
         22    1    4    4    0    0  0.72263650678E+01  0.13439237883E+02 -0.17247808351E+01  0.15356052094E+02  0.00000000000E+00 0. -1.
<mgrwt>
<rscale>  0 0.90059037E+02</rscale>
<asrwt>0</asrwt>
<pdfrwt beam="1">  1        1 0.60119414E-02 0.90059037E+02</pdfrwt>
<pdfrwt beam="2">  1       -1 0.79827615E-02 0.90059037E+02</pdfrwt>
<totfact> 0.93543713E+04</totfact>
</mgrwt>
</event>
<event>
 7    1  0.3301067E-009  0.9064845E+02  0.7818608E-02  0.1301289E+00
          1   -1    0    0  501    0  0.00000000000E+00  0.00000000000E+00  0.42086874888E+03  0.42086874891E+03  0.50400000000E-02 0. -1.
         -1   -1    0    0    0  501 -0.00000000000E+00 -0.00000000000E+00 -0.48810577450E+01  0.48810603470E+01  0.50400000000E-02 0.  1.
         23    2    1    2    0    0  0.35527136788E-14 -0.71054273576E-14  0.41598769113E+03  0.42574980926E+03  0.90648446797E+02 0.  0.
    9000005    2    3    3    0    0 -0.23119711267E+02  0.38845064086E+02  0.20132813502E+03  0.20638211545E+03  0.41351633364E+01 0.  0.
         22    1    3    3    0    0  0.23119711267E+02 -0.38845064086E+02  0.21465955612E+03  0.21936769380E+03  0.00000000000E+00 0. -1.
         22    1    4    4    0    0 -0.18702951647E+02  0.33721867285E+02  0.16704259101E+03  0.17143567874E+03  0.00000000000E+00 0.  1.
         22    1    4    4    0    0 -0.44167596201E+01  0.51231968003E+01  0.34285544007E+02  0.34946436712E+02  0.00000000000E+00 0.  1.
<mgrwt>
<rscale>  0 0.90648447E+02</rscale>
<asrwt>0</asrwt>
<pdfrwt beam="1">  1        1 0.64749063E-01 0.90648447E+02</pdfrwt>
<pdfrwt beam="2">  1       -1 0.75093187E-03 0.90648447E+02</pdfrwt>
<totfact> 0.13810455E+05</totfact>
</mgrwt>
</event>
<event>
 7    1  0.3301067E-009  0.8949495E+02  0.7818608E-02  0.1304079E+00
         -1   -1    0    0    0  501 -0.00000000000E+00  0.00000000000E+00  0.22549960568E+03  0.22549960574E+03  0.50400000000E-02 0.  1.
          1   -1    0    0  501    0  0.00000000000E+00 -0.00000000000E+00 -0.88795552124E+01  0.88795566427E+01  0.50400000000E-02 0. -1.
         23    2    1    2    0    0  0.00000000000E+00 -0.71054273576E-14  0.21662005047E+03  0.23437916238E+03  0.89494946745E+02 0.  0.
    9000005    2    3    3    0    0  0.25540719956E+01  0.44431097383E+02  0.96720002219E+02  0.10648597543E+03  0.19642900192E+01 0.  0.
         22    1    3    3    0    0 -0.25540719956E+01 -0.44431097383E+02  0.11990004825E+03  0.12789318695E+03  0.00000000000E+00 0.  1.
         22    1    4    4    0    0  0.28106402369E+01  0.36606733664E+02  0.80305156703E+02  0.88299891513E+02  0.00000000000E+00 0.  1.
         22    1    4    4    0    0 -0.25656824132E+00  0.78243637183E+01  0.16414845516E+02  0.18186083915E+02  0.00000000000E+00 0.  1.
<mgrwt>
<rscale>  0 0.89494947E+02</rscale>
<asrwt>0</asrwt>
<pdfrwt beam="2">  1        1 0.13660856E-02 0.89494947E+02</pdfrwt>
<pdfrwt beam="1">  1       -1 0.34692245E-01 0.89494947E+02</pdfrwt>
<totfact> 0.70306139E+04</totfact>
</mgrwt>
</event>
<event>
 7    1  0.3301067E-009  0.9215151E+02  0.7818608E-02  0.1297724E+00
          1   -1    0    0  501    0  0.00000000000E+00  0.00000000000E+00  0.21438347762E+02  0.21438348354E+02  0.50400000000E-02 0. -1.
         -1   -1    0    0    0  501 -0.00000000000E+00 -0.00000000000E+00 -0.99026989654E+02  0.99026989783E+02  0.50400000000E-02 0.  1.
         23    2    1    2    0    0  0.00000000000E+00  0.00000000000E+00 -0.77588641892E+02  0.12046533814E+03  0.92151507539E+02 0.  0.
    9000005    2    3    3    0    0  0.44752847296E+02  0.91371419857E+01 -0.41922012280E+02  0.62513520455E+02  0.80112683912E+01 0.  0.
         22    1    3    3    0    0 -0.44752847296E+02 -0.91371419857E+01 -0.35666629612E+02  0.57951817682E+02  0.00000000000E+00 0.  1.
         22    1    4    4    0    0  0.31165491186E+02  0.77258072305E+01 -0.33804655636E+02  0.46623284751E+02  0.00000000000E+00 0.  1.
         22    1    4    4    0    0  0.13587356110E+02  0.14113347553E+01 -0.81173566439E+01  0.15890235704E+02  0.00000000000E+00 0.  1.
<mgrwt>
<rscale>  0 0.92151508E+02</rscale>
<asrwt>0</asrwt>
<pdfrwt beam="1">  1        1 0.32982075E-02 0.92151508E+02</pdfrwt>
<pdfrwt beam="2">  1       -1 0.15234921E-01 0.92151508E+02</pdfrwt>
<totfact> 0.79314427E+04</totfact>
</mgrwt>
</event>
<event>
 7    1  0.3301067E-009  0.8969221E+02  0.7818608E-02  0.1303599E+00
          1   -1    0    0  501    0  0.00000000000E+00  0.00000000000E+00  0.30345808152E+02  0.30345808571E+02  0.50400000000E-02 0. -1.
         -1   -1    0    0    0  501 -0.00000000000E+00 -0.00000000000E+00 -0.66275157356E+02  0.66275157548E+02  0.50400000000E-02 0.  1.
         23    2    1    2    0    0  0.00000000000E+00  0.35527136788E-14 -0.35929349204E+02  0.96620966119E+02  0.89692212368E+02 0.  0.
    9000005    2    3    3    0    0  0.22837819608E+02 -0.27491627879E+02 -0.46966049739E+02  0.59215560539E+02  0.48287859640E+01 0.  0.
         22    1    3    3    0    0 -0.22837819608E+02  0.27491627879E+02  0.11036700536E+02  0.37405405580E+02  0.00000000000E+00 0. -1.
         22    1    4    4    0    0  0.26372667615E+01 -0.48508121655E+01 -0.96755150301E+01  0.11140069377E+02  0.00000000000E+00 0.  1.
         22    1    4    4    0    0  0.20200552847E+02 -0.22640815713E+02 -0.37290534709E+02  0.48075491161E+02  0.00000000000E+00 0.  1.
<mgrwt>
<rscale>  0 0.89692212E+02</rscale>
<asrwt>0</asrwt>
<pdfrwt beam="1">  1        1 0.46685859E-02 0.89692212E+02</pdfrwt>
<pdfrwt beam="2">  1       -1 0.10196178E-01 0.89692212E+02</pdfrwt>
<totfact> 0.91022821E+04</totfact>
</mgrwt>
</event>
<event>
 7    1  0.3301067E-009  0.1003962E+03  0.7818608E-02  0.1279465E+00
          1   -1    0    0  501    0  0.00000000000E+00  0.00000000000E+00  0.18550154295E+03  0.18550154302E+03  0.50400000000E-02 0. -1.
         -1   -1    0    0    0  501 -0.00000000000E+00 -0.00000000000E+00 -0.13583968247E+02  0.13583969182E+02  0.50400000000E-02 0.  1.
         23    2    1    2    0    0  0.00000000000E+00  0.00000000000E+00  0.17191757471E+03  0.19908551220E+03  0.10039615867E+03 0.  0.
    9000005    2    3    3    0    0 -0.13384660631E+02  0.46035882413E+02  0.66364322091E+02  0.83154753785E+02  0.14561532227E+02 0.  0.
         22    1    3    3    0    0  0.13384660631E+02 -0.46035882413E+02  0.10555325262E+03  0.11593075842E+03  0.00000000000E+00 0.  1.
         22    1    4    4    0    0 -0.54562311301E+01  0.14746645266E+02  0.11429213905E+02  0.19438645406E+02  0.00000000000E+00 0.  1.
         22    1    4    4    0    0 -0.79284295006E+01  0.31289237147E+02  0.54935108186E+02  0.63716108379E+02  0.00000000000E+00 0.  1.
<mgrwt>
<rscale>  0 0.10039616E+03</rscale>
<asrwt>0</asrwt>
<pdfrwt beam="1">  1        1 0.28538699E-01 0.10039616E+03</pdfrwt>
<pdfrwt beam="2">  1       -1 0.20898414E-02 0.10039616E+03</pdfrwt>
<totfact> 0.89958243E+04</totfact>
</mgrwt>
</event>
<event>
 7    1  0.3301067E-009  0.8712682E+02  0.7818608E-02  0.1309963E+00
         -1   -1    0    0    0  501 -0.00000000000E+00  0.00000000000E+00  0.45447764615E+02  0.45447764895E+02  0.50400000000E-02 0.  1.
          1   -1    0    0  501    0  0.00000000000E+00 -0.00000000000E+00 -0.41757179336E+02  0.41757179641E+02  0.50400000000E-02 0. -1.
         23    2    1    2    0    0  0.88817841970E-15  0.00000000000E+00  0.36905852787E+01  0.87204944535E+02  0.87126815227E+02 0.  0.
    9000005    2    3    3    0    0 -0.48903549730E+01  0.42027134892E+02 -0.80278113127E+01  0.43301454268E+02  0.45138174834E+01 0.  0.
         22    1    3    3    0    0  0.48903549730E+01 -0.42027134892E+02  0.11718396591E+02  0.43903490267E+02  0.00000000000E+00 0.  1.
         22    1    4    4    0    0 -0.49655166108E+01  0.38713789941E+02 -0.62112522180E+01  0.39522063976E+02  0.00000000000E+00 0.  1.
         22    1    4    4    0    0  0.75161637818E-01  0.33133449511E+01 -0.18165590947E+01  0.37793902923E+01  0.00000000000E+00 0.  1.
<mgrwt>
<rscale>  0 0.87126815E+02</rscale>
<asrwt>0</asrwt>
<pdfrwt beam="2">  1        1 0.64241815E-02 0.87126815E+02</pdfrwt>
<pdfrwt beam="1">  1       -1 0.69919638E-02 0.87126815E+02</pdfrwt>
<totfact> 0.10366367E+05</totfact>
</mgrwt>
</event>
<event>
 7    1  0.3301067E-009  0.9214694E+02  0.7818608E-02  0.1297734E+00
          1   -1    0    0  501    0  0.00000000000E+00  0.00000000000E+00  0.32110170921E+03  0.32110170925E+03  0.50400000000E-02 0. -1.
         -1   -1    0    0    0  501 -0.00000000000E+00 -0.00000000000E+00 -0.66108776037E+01  0.66108795249E+01  0.50400000000E-02 0.  1.
         23    2    1    2    0    0  0.00000000000E+00  0.00000000000E+00  0.31449083160E+03  0.32771258877E+03  0.92146935254E+02 0.  0.
    9000005    2    3    3    0    0 -0.15171311069E+02  0.38950807939E+02  0.22595939330E+03  0.22980881108E+03  0.26661038089E+01 0.  0.
         22    1    3    3    0    0  0.15171311069E+02 -0.38950807939E+02  0.88531438300E+02  0.97903777691E+02  0.00000000000E+00 0.  1.
         22    1    4    4    0    0 -0.15247341236E+01  0.23394477651E+01  0.13328613964E+02  0.13617994720E+02  0.00000000000E+00 0.  1.
         22    1    4    4    0    0 -0.13646576946E+02  0.36611360174E+02  0.21263077934E+03  0.21619081636E+03  0.00000000000E+00 0.  1.
<mgrwt>
<rscale>  0 0.92146935E+02</rscale>
<asrwt>0</asrwt>
<pdfrwt beam="1">  1        1 0.49400251E-01 0.92146935E+02</pdfrwt>
<pdfrwt beam="2">  1       -1 0.10170585E-02 0.92146935E+02</pdfrwt>
<totfact> 0.12616501E+05</totfact>
</mgrwt>
</event>
<event>
 7    1  0.3301067E-009  0.8677292E+02  0.7818608E-02  0.1310860E+00
          1   -1    0    0  501    0  0.00000000000E+00  0.00000000000E+00  0.11615060105E+04  0.11615060105E+04  0.50400000000E-02 0.  1.
         -1   -1    0    0    0  501 -0.00000000000E+00 -0.00000000000E+00 -0.16206375896E+01  0.16206454265E+01  0.50400000000E-02 0. -1.
         23    2    1    2    0    0  0.35527136788E-14  0.00000000000E+00  0.11598853729E+04  0.11631266559E+04  0.86772918935E+02 0.  0.
    9000005    2    3    3    0    0  0.28595185902E+02  0.14204725290E+02  0.96987349538E+03  0.97045083369E+03  0.10038161421E+02 0.  0.
         22    1    3    3    0    0 -0.28595185902E+02 -0.14204725290E+02  0.19001187751E+03  0.19267582223E+03  0.00000000000E+00 0. -1.
         22    1    4    4    0    0  0.96722743416E+01  0.25365420539E+01  0.43604077739E+03  0.43615541552E+03  0.00000000000E+00 0. -1.
         22    1    4    4    0    0  0.18922911561E+02  0.11668183236E+02  0.53383271799E+03  0.53429541817E+03  0.00000000000E+00 0. -1.
<mgrwt>
<rscale>  0 0.86772919E+02</rscale>
<asrwt>0</asrwt>
<pdfrwt beam="1">  1        1 0.17869282E+00 0.86772919E+02</pdfrwt>
<pdfrwt beam="2">  1       -1 0.24933004E-03 0.86772919E+02</pdfrwt>
<totfact> 0.14720873E+05</totfact>
</mgrwt>
</event>
<event>
 7    1  0.3301067E-009  0.9383112E+02  0.7818608E-02  0.1293831E+00
         -1   -1    0    0    0  501 -0.00000000000E+00  0.00000000000E+00  0.44831185238E+02  0.44831185522E+02  0.50400000000E-02 0.  1.
          1   -1    0    0  501    0  0.00000000000E+00 -0.00000000000E+00 -0.49096844457E+02  0.49096844716E+02  0.50400000000E-02 0. -1.
         23    2    1    2    0    0  0.00000000000E+00  0.00000000000E+00 -0.42656592188E+01  0.93928030237E+02  0.93831119655E+02 0.  0.
    9000005    2    3    3    0    0 -0.14076971214E+02 -0.43528021429E+02 -0.39615013009E+01  0.48179344134E+02  0.14584441730E+02 0.  0.
         22    1    3    3    0    0  0.14076971214E+02  0.43528021429E+02 -0.30415791795E+00  0.45748686103E+02  0.00000000000E+00 0. -1.
         22    1    4    4    0    0 -0.12408397349E+02 -0.41646173992E+02  0.37244939446E-01  0.43455419917E+02  0.00000000000E+00 0. -1.
         22    1    4    4    0    0 -0.16685738648E+01 -0.18818474369E+01 -0.39987462403E+01  0.47239242175E+01  0.00000000000E+00 0. -1.
<mgrwt>
<rscale>  0 0.93831120E+02</rscale>
<asrwt>0</asrwt>
<pdfrwt beam="2">  1        1 0.75533608E-02 0.93831120E+02</pdfrwt>
<pdfrwt beam="1">  1       -1 0.68971054E-02 0.93831120E+02</pdfrwt>
<totfact> 0.86272352E+04</totfact>
</mgrwt>
</event>
<event>
 7    1  0.3301067E-009  0.7920525E+02  0.7818608E-02  0.1331322E+00
          1   -1    0    0  501    0  0.00000000000E+00  0.00000000000E+00  0.13762872058E+02  0.13762872981E+02  0.50400000000E-02 0. -1.
         -1   -1    0    0    0  501 -0.00000000000E+00 -0.00000000000E+00 -0.11395644443E+03  0.11395644454E+03  0.50400000000E-02 0.  1.
         23    2    1    2    0    0  0.00000000000E+00  0.00000000000E+00 -0.10019357237E+03  0.12771931752E+03  0.79205253130E+02 0.  0.
    9000005    2    3    3    0    0  0.22944471087E+02  0.31276378525E+02 -0.48024723169E+02  0.62709707199E+02  0.11021466982E+02 0.  0.
         22    1    3    3    0    0 -0.22944471087E+02 -0.31276378525E+02 -0.52168849198E+02  0.65009610318E+02  0.00000000000E+00 0.  1.
         22    1    4    4    0    0  0.64737428410E+01  0.10442308536E+02 -0.23699944979E+02  0.26695290707E+02  0.00000000000E+00 0.  1.
         22    1    4    4    0    0  0.16470728246E+02  0.20834069989E+02 -0.24324778191E+02  0.36014416492E+02  0.00000000000E+00 0.  1.
<mgrwt>
<rscale>  0 0.79205253E+02</rscale>
<asrwt>0</asrwt>
<pdfrwt beam="1">  1        1 0.21173651E-02 0.79205253E+02</pdfrwt>
<pdfrwt beam="2">  1       -1 0.17531760E-01 0.79205253E+02</pdfrwt>
<totfact> 0.11399122E+05</totfact>
</mgrwt>
</event>
<event>
 7    1  0.3301067E-009  0.9085606E+02  0.7818608E-02  0.1300792E+00
          1   -1    0    0  501    0  0.00000000000E+00  0.00000000000E+00  0.25445683038E+02  0.25445683537E+02  0.50400000000E-02 0. -1.
         -1   -1    0    0    0  501 -0.00000000000E+00 -0.00000000000E+00 -0.81102399615E+02  0.81102399771E+02  0.50400000000E-02 0.  1.
         23    2    1    2    0    0  0.00000000000E+00 -0.35527136788E-14 -0.55656716577E+02  0.10654808331E+03  0.90856061750E+02 0.  0.
    9000005    2    3    3    0    0  0.41029183393E+01  0.31143395214E+02  0.82633143518E+01  0.35326489966E+02  0.13890051291E+02 0.  0.
         22    1    3    3    0    0 -0.41029183393E+01 -0.31143395214E+02 -0.63920030928E+02  0.71221593343E+02  0.00000000000E+00 0. -1.
         22    1    4    4    0    0  0.52774001542E+01  0.53494905274E+01  0.55943553484E+01  0.93682876265E+01  0.00000000000E+00 0.  1.
         22    1    4    4    0    0 -0.11744818149E+01  0.25793904687E+02  0.26689590034E+01  0.25958202340E+02  0.00000000000E+00 0.  1.
<mgrwt>
<rscale>  0 0.90856062E+02</rscale>
<asrwt>0</asrwt>
<pdfrwt beam="1">  1        1 0.39147206E-02 0.90856062E+02</pdfrwt>
<pdfrwt beam="2">  1       -1 0.12477292E-01 0.90856062E+02</pdfrwt>
<totfact> 0.85220046E+04</totfact>
</mgrwt>
</event>
<event>
 7    1  0.3301067E-009  0.9080143E+02  0.7818608E-02  0.1300922E+00
          1   -1    0    0  501    0  0.00000000000E+00  0.00000000000E+00  0.20582161036E+02  0.20582161653E+02  0.50400000000E-02 0. -1.
         -1   -1    0    0    0  501 -0.00000000000E+00 -0.00000000000E+00 -0.10014617786E+03  0.10014617799E+03  0.50400000000E-02 0.  1.
         23    2    1    2    0    0 -0.35527136788E-14  0.00000000000E+00 -0.79564016827E+02  0.12072833964E+03  0.90801427407E+02 0.  0.
    9000005    2    3    3    0    0  0.27036396805E+02  0.18374817377E+02 -0.37848104234E+00  0.35060669291E+02  0.12669120625E+02 0.  0.
         22    1    3    3    0    0 -0.27036396805E+02 -0.18374817377E+02 -0.79185535785E+02  0.85667670351E+02  0.00000000000E+00 0.  1.
         22    1    4    4    0    0  0.18513940247E+02  0.64656346219E+01  0.34789669346E+01  0.19916667027E+02  0.00000000000E+00 0.  1.
         22    1    4    4    0    0  0.85224565577E+01  0.11909182756E+02 -0.38574479769E+01  0.15144002264E+02  0.00000000000E+00 0.  1.
<mgrwt>
<rscale>  0 0.90801427E+02</rscale>
<asrwt>0</asrwt>
<pdfrwt beam="1">  1        1 0.31664864E-02 0.90801427E+02</pdfrwt>
<pdfrwt beam="2">  1       -1 0.15407104E-01 0.90801427E+02</pdfrwt>
<totfact> 0.82217162E+04</totfact>
</mgrwt>
</event>
<event>
 7    1  0.3301067E-009  0.8994307E+02  0.7818608E-02  0.1302990E+00
         -1   -1    0    0    0  501 -0.00000000000E+00  0.00000000000E+00  0.54292677069E+02  0.54292677303E+02  0.50400000000E-02 0.  1.
          1   -1    0    0  501    0  0.00000000000E+00 -0.00000000000E+00 -0.37250674287E+02  0.37250674628E+02  0.50400000000E-02 0. -1.
         23    2    1    2    0    0  0.00000000000E+00  0.00000000000E+00  0.17042002782E+02  0.91543351930E+02  0.89943067681E+02 0.  0.
    9000005    2    3    3    0    0  0.41867645982E+02  0.66978960437E+01  0.22941159551E+02  0.48734922363E+02  0.71438270357E+01 0.  0.
         22    1    3    3    0    0 -0.41867645982E+02 -0.66978960437E+01 -0.58991567690E+01  0.42808429567E+02  0.00000000000E+00 0. -1.
         22    1    4    4    0    0  0.23017860029E+02  0.72480519168E+01  0.12417998273E+02  0.27139690824E+02  0.00000000000E+00 0.  1.
         22    1    4    4    0    0  0.18849785953E+02 -0.55015587303E+00  0.10523161278E+02  0.21595231539E+02  0.00000000000E+00 0.  1.
<mgrwt>
<rscale>  0 0.89943068E+02</rscale>
<asrwt>0</asrwt>
<pdfrwt beam="2">  1        1 0.57308731E-02 0.89943068E+02</pdfrwt>
<pdfrwt beam="1">  1       -1 0.83527195E-02 0.89943068E+02</pdfrwt>
<totfact> 0.93207861E+04</totfact>
</mgrwt>
</event>
<event>
 7    1  0.3363737E-009  0.9086231E+02  0.7818608E-02  0.1300777E+00
          1   -1    0    0  501    0  0.00000000000E+00  0.00000000000E+00  0.13659883476E+04  0.13659883477E+04  0.50400000000E-02 0. -1.
         -1   -1    0    0    0  501 -0.00000000000E+00 -0.00000000000E+00 -0.15109821833E+01  0.15109905889E+01  0.50400000000E-02 0.  1.
         23    2    1    2    0    0  0.00000000000E+00 -0.17763568394E-14  0.13644773655E+04  0.13674993382E+04  0.90862309229E+02 0.  0.
    9000005    2    3    3    0    0  0.24690654239E+02 -0.14982033928E+02  0.12047227170E+04  0.12051551438E+04  0.14422418330E+02 0.  0.
         22    1    3    3    0    0 -0.24690654239E+02  0.14982033928E+02  0.15975464847E+03  0.16234419440E+03  0.00000000000E+00 0.  1.
         22    1    4    4    0    0  0.53348292916E+01 -0.10246946632E+02  0.32104190523E+03  0.32124969297E+03  0.00000000000E+00 0. -1.
         22    1    4    4    0    0  0.19355824948E+02 -0.47350872958E+01  0.88368081176E+03  0.88390545088E+03  0.00000000000E+00 0. -1.
<mgrwt>
<rscale>  0 0.90862309E+02</rscale>
<asrwt>0</asrwt>
<pdfrwt beam="1">  1        1 0.21015186E+00 0.90862309E+02</pdfrwt>
<pdfrwt beam="2">  1       -1 0.23245966E-03 0.90862309E+02</pdfrwt>
<totfact> 0.11947408E+05</totfact>
</mgrwt>
</event>
<event>
 7    1  0.3301067E-009  0.8955392E+02  0.7818608E-02  0.1303936E+00
         -1   -1    0    0    0  501 -0.00000000000E+00  0.00000000000E+00  0.35109380145E+03  0.35109380149E+03  0.50400000000E-02 0.  1.
          1   -1    0    0  501    0  0.00000000000E+00 -0.00000000000E+00 -0.57106551838E+01  0.57106574079E+01  0.50400000000E-02 0. -1.
         23    2    1    2    0    0  0.00000000000E+00  0.44408920985E-15  0.34538314627E+03  0.35680445890E+03  0.89553917625E+02 0.  0.
    9000005    2    3    3    0    0 -0.44041858750E+02  0.23774125615E+01  0.18921692019E+03  0.19452929882E+03  0.96575254411E+01 0.  0.
         22    1    3    3    0    0  0.44041858750E+02 -0.23774125615E+01  0.15616622607E+03  0.16227516008E+03  0.00000000000E+00 0. -1.
         22    1    4    4    0    0 -0.52185740670E+01 -0.22554177176E+01  0.33487972252E+02  0.33967112182E+02  0.00000000000E+00 0.  1.
         22    1    4    4    0    0 -0.38823284683E+02  0.46328302791E+01  0.15572894794E+03  0.16056218663E+03  0.00000000000E+00 0.  1.
<mgrwt>
<rscale>  0 0.89553918E+02</rscale>
<asrwt>0</asrwt>
<pdfrwt beam="2">  1        1 0.87856273E-03 0.89553918E+02</pdfrwt>
<pdfrwt beam="1">  1       -1 0.54014418E-01 0.89553918E+02</pdfrwt>
<totfact> 0.59434344E+04</totfact>
</mgrwt>
</event>
<event>
 7    1  0.3301067E-009  0.9269055E+02  0.7818608E-02  0.1296464E+00
          1   -1    0    0  501    0  0.00000000000E+00  0.00000000000E+00  0.32958415732E+02  0.32958416117E+02  0.50400000000E-02 0. -1.
         -1   -1    0    0    0  501 -0.00000000000E+00 -0.00000000000E+00 -0.65169531046E+02  0.65169531241E+02  0.50400000000E-02 0.  1.
         23    2    1    2    0    0  0.00000000000E+00  0.00000000000E+00 -0.32211115315E+02  0.98127947358E+02  0.92690550235E+02 0.  0.
    9000005    2    3    3    0    0  0.18929250158E+02 -0.28058833106E+02 -0.48824871517E+02  0.60423418161E+02  0.11023010331E+02 0.  0.
         22    1    3    3    0    0 -0.18929250158E+02  0.28058833106E+02  0.16613756202E+02  0.37704529197E+02  0.00000000000E+00 0. -1.
         22    1    4    4    0    0  0.59014727438E+01 -0.11096412430E+02 -0.98591878237E+01  0.15973770184E+02  0.00000000000E+00 0. -1.
         22    1    4    4    0    0  0.13027777414E+02 -0.16962420677E+02 -0.38965683693E+02  0.44449647977E+02  0.00000000000E+00 0. -1.
<mgrwt>
<rscale>  0 0.92690550E+02</rscale>
<asrwt>0</asrwt>
<pdfrwt beam="1">  1        1 0.50705256E-02 0.92690550E+02</pdfrwt>
<pdfrwt beam="2">  1       -1 0.10026082E-01 0.92690550E+02</pdfrwt>
<totfact> 0.83942451E+04</totfact>
</mgrwt>
</event>
<event>
 7    1  0.3301067E-009  0.1038166E+03  0.7818608E-02  0.1272469E+00
         -1   -1    0    0    0  501 -0.00000000000E+00  0.00000000000E+00  0.35372906092E+03  0.35372906095E+03  0.50400000000E-02 0.  1.
          1   -1    0    0  501    0  0.00000000000E+00 -0.00000000000E+00 -0.76173373671E+01  0.76173390345E+01  0.50400000000E-02 0. -1.
         23    2    1    2    0    0  0.88817841970E-15  0.00000000000E+00  0.34611172355E+03  0.36134639999E+03  0.10381664416E+03 0.  0.
    9000005    2    3    3    0    0 -0.41464032895E+01 -0.49549976278E+02  0.12356010535E+03  0.13330777262E+03  0.56097947103E+01 0.  0.
         22    1    3    3    0    0  0.41464032895E+01  0.49549976278E+02  0.22255161819E+03  0.22803862736E+03  0.00000000000E+00 0.  1.
         22    1    4    4    0    0 -0.76451110152E+00 -0.21591847355E+01  0.89852564918E+01  0.92726150664E+01  0.00000000000E+00 0. -1.
         22    1    4    4    0    0 -0.33818921880E+01 -0.47390791543E+02  0.11457484886E+03  0.12403515756E+03  0.00000000000E+00 0. -1.
<mgrwt>
<rscale>  0 0.10381664E+03</rscale>
<asrwt>0</asrwt>
<pdfrwt beam="2">  1        1 0.11718984E-02 0.10381664E+03</pdfrwt>
<pdfrwt beam="1">  1       -1 0.54419844E-01 0.10381664E+03</pdfrwt>
<totfact> 0.40165431E+04</totfact>
</mgrwt>
</event>
<event>
 7    1  0.3301067E-009  0.9110844E+02  0.7818608E-02  0.1300189E+00
         -1   -1    0    0    0  501 -0.00000000000E+00  0.00000000000E+00  0.29938848979E+03  0.29938848983E+03  0.50400000000E-02 0.  1.
          1   -1    0    0  501    0  0.00000000000E+00 -0.00000000000E+00 -0.69314170086E+01  0.69314188409E+01  0.50400000000E-02 0. -1.
         23    2    1    2    0    0 -0.71054273576E-14  0.00000000000E+00  0.29245707278E+03  0.30631990867E+03  0.91108435558E+02 0.  0.
    9000005    2    3    3    0    0  0.34182267316E+02  0.29496597350E+02  0.15952283608E+03  0.16592764414E+03  0.67802067757E+01 0.  0.
         22    1    3    3    0    0 -0.34182267316E+02 -0.29496597350E+02  0.13293423670E+03  0.14039226454E+03  0.00000000000E+00 0. -1.
         22    1    4    4    0    0  0.10774460924E+02  0.13575434934E+02  0.58520456527E+02  0.61032985130E+02  0.00000000000E+00 0. -1.
         22    1    4    4    0    0  0.23407806392E+02  0.15921162416E+02  0.10100237955E+03  0.10489465901E+03  0.00000000000E+00 0. -1.
<mgrwt>
<rscale>  0 0.91108436E+02</rscale>
<asrwt>0</asrwt>
<pdfrwt beam="2">  1        1 0.10663721E-02 0.91108436E+02</pdfrwt>
<pdfrwt beam="1">  1       -1 0.46059764E-01 0.91108436E+02</pdfrwt>
<totfact> 0.60754222E+04</totfact>
</mgrwt>
</event>
<event>
 7    1  0.3301067E-009  0.9048547E+02  0.7818608E-02  0.1301680E+00
          1   -1    0    0  501    0  0.00000000000E+00  0.00000000000E+00  0.21955416034E+03  0.21955416040E+03  0.50400000000E-02 0. -1.
         -1   -1    0    0    0  501 -0.00000000000E+00 -0.00000000000E+00 -0.93230068621E+01  0.93230082244E+01  0.50400000000E-02 0.  1.
         23    2    1    2    0    0  0.22204460493E-15  0.00000000000E+00  0.21023115348E+03  0.22887716863E+03  0.90485470790E+02 0.  0.
    9000005    2    3    3    0    0  0.93990432369E+00 -0.21442433867E+02  0.20528111849E+03  0.20685072459E+03  0.13646364585E+02 0.  0.
         22    1    3    3    0    0 -0.93990432369E+00  0.21442433867E+02  0.49500349918E+01  0.22026444032E+02  0.00000000000E+00 0.  1.
         22    1    4    4    0    0  0.66330023409E+01 -0.14323634150E+02  0.14933058456E+03  0.15016253427E+03  0.00000000000E+00 0. -1.
         22    1    4    4    0    0 -0.56930980172E+01 -0.71187997174E+01  0.55950533933E+02  0.56688190320E+02  0.00000000000E+00 0. -1.
<mgrwt>
<rscale>  0 0.90485471E+02</rscale>
<asrwt>0</asrwt>
<pdfrwt beam="1">  1        1 0.33777566E-01 0.90485471E+02</pdfrwt>
<pdfrwt beam="2">  1       -1 0.14343087E-02 0.90485471E+02</pdfrwt>
<totfact> 0.12305590E+05</totfact>
</mgrwt>
</event>
<event>
 7    1  0.3301067E-009  0.9775209E+02  0.7818608E-02  0.1285095E+00
         -1   -1    0    0    0  501 -0.00000000000E+00  0.00000000000E+00  0.27616879044E+01  0.27616925033E+01  0.50400000000E-02 0.  1.
          1   -1    0    0  501    0  0.00000000000E+00 -0.00000000000E+00 -0.86500204714E+03  0.86500204715E+03  0.50400000000E-02 0. -1.
         23    2    1    2    0    0  0.00000000000E+00  0.17763568394E-14 -0.86224035924E+03  0.86776373966E+03  0.97752088317E+02 0.  0.
    9000005    2    3    3    0    0  0.17296064432E+02 -0.10976796760E+02 -0.82447389273E+03  0.82479922053E+03  0.10812514726E+02 0.  0.
         22    1    3    3    0    0 -0.17296064432E+02  0.10976796760E+02 -0.37766466506E+02  0.42964519132E+02  0.00000000000E+00 0.  1.
         22    1    4    4    0    0  0.83621013164E+01 -0.10799937275E+02 -0.40528241209E+03  0.40551251143E+03  0.00000000000E+00 0.  1.
         22    1    4    4    0    0  0.89339631151E+01 -0.17685948507E+00 -0.41919148064E+03  0.41928670909E+03  0.00000000000E+00 0.  1.
<mgrwt>
<rscale>  0 0.97752088E+02</rscale>
<asrwt>0</asrwt>
<pdfrwt beam="2">  1        1 0.13307702E+00 0.97752088E+02</pdfrwt>
<pdfrwt beam="1">  1       -1 0.42487611E-03 0.97752088E+02</pdfrwt>
<totfact> 0.11642901E+05</totfact>
</mgrwt>
</event>
<event>
 7    1  0.3301067E-009  0.9036662E+02  0.7818608E-02  0.1301966E+00
          1   -1    0    0  501    0  0.00000000000E+00  0.00000000000E+00  0.10899106547E+03  0.10899106558E+03  0.50400000000E-02 0. -1.
         -1   -1    0    0    0  501 -0.00000000000E+00 -0.00000000000E+00 -0.18731183327E+02  0.18731184006E+02  0.50400000000E-02 0.  1.
         23    2    1    2    0    0 -0.35527136788E-14  0.00000000000E+00  0.90259882138E+02  0.12772224959E+03  0.90366623906E+02 0.  0.
    9000005    2    3    3    0    0  0.28897361770E+02  0.20586865632E+02  0.82959610496E+02  0.91498355265E+02  0.15191296484E+02 0.  0.
         22    1    3    3    0    0 -0.28897361770E+02 -0.20586865632E+02  0.73002716428E+01  0.36223894323E+02  0.00000000000E+00 0.  1.
         22    1    4    4    0    0  0.55186731671E+01  0.57960561647E+01  0.36994066140E+02  0.37849847426E+02  0.00000000000E+00 0.  1.
         22    1    4    4    0    0  0.23378688603E+02  0.14790809467E+02  0.45965544356E+02  0.53648507840E+02  0.00000000000E+00 0.  1.
<mgrwt>
<rscale>  0 0.90366624E+02</rscale>
<asrwt>0</asrwt>
<pdfrwt beam="1">  1        1 0.16767856E-01 0.90366624E+02</pdfrwt>
<pdfrwt beam="2">  1       -1 0.28817205E-02 0.90366624E+02</pdfrwt>
<totfact> 0.10857419E+05</totfact>
</mgrwt>
</event>
<event>
 7    1  0.3301067E-009  0.8916554E+02  0.7818608E-02  0.1304885E+00
          1   -1    0    0  501    0  0.00000000000E+00  0.00000000000E+00  0.16564236041E+02  0.16564236808E+02  0.50400000000E-02 0. -1.
         -1   -1    0    0    0  501 -0.00000000000E+00 -0.00000000000E+00 -0.11999486560E+03  0.11999486570E+03  0.50400000000E-02 0.  1.
         23    2    1    2    0    0  0.00000000000E+00  0.00000000000E+00 -0.10343062956E+03  0.13655910251E+03  0.89165539018E+02 0.  0.
    9000005    2    3    3    0    0  0.24705303127E+02  0.26926359631E+02 -0.89377287426E+02  0.97407125925E+02  0.12824501073E+02 0.  0.
         22    1    3    3    0    0 -0.24705303127E+02 -0.26926359631E+02 -0.14053342130E+02  0.39151976586E+02  0.00000000000E+00 0. -1.
         22    1    4    4    0    0  0.76008313082E+01  0.64285161757E+01 -0.12219045378E+02  0.15760822527E+02  0.00000000000E+00 0. -1.
         22    1    4    4    0    0  0.17104471819E+02  0.20497843455E+02 -0.77158242049E+02  0.81646303398E+02  0.00000000000E+00 0. -1.
<mgrwt>
<rscale>  0 0.89165539E+02</rscale>
<asrwt>0</asrwt>
<pdfrwt beam="1">  1        1 0.25483442E-02 0.89165539E+02</pdfrwt>
<pdfrwt beam="2">  1       -1 0.18460748E-01 0.89165539E+02</pdfrwt>
<totfact> 0.83186859E+04</totfact>
</mgrwt>
</event>
<event>
 7    1  0.3301067E-009  0.9148763E+02  0.7818608E-02  0.1299289E+00
          1   -1    0    0  501    0  0.00000000000E+00  0.00000000000E+00  0.68085348670E+02  0.68085348857E+02  0.50400000000E-02 0. -1.
         -1   -1    0    0    0  501 -0.00000000000E+00 -0.00000000000E+00 -0.30733431954E+02  0.30733432367E+02  0.50400000000E-02 0.  1.
         23    2    1    2    0    0  0.00000000000E+00  0.00000000000E+00  0.37351916716E+02  0.98818781224E+02  0.91487626706E+02 0.  0.
    9000005    2    3    3    0    0  0.17858198184E+02 -0.99922933058E+01 -0.24348730378E+02  0.33813158239E+02  0.11476403232E+02 0.  0.
         22    1    3    3    0    0 -0.17858198184E+02  0.99922933058E+01  0.61700647094E+02  0.65005622985E+02  0.00000000000E+00 0. -1.
         22    1    4    4    0    0  0.17376104257E+02 -0.74752582871E+01 -0.24821000027E+02  0.31207219164E+02  0.00000000000E+00 0.  1.
         22    1    4    4    0    0  0.48209392760E+00 -0.25170350187E+01  0.47226964899E+00  0.26059390748E+01  0.00000000000E+00 0.  1.
<mgrwt>
<rscale>  0 0.91487627E+02</rscale>
<asrwt>0</asrwt>
<pdfrwt beam="1">  1        1 0.10474669E-01 0.91487627E+02</pdfrwt>
<pdfrwt beam="2">  1       -1 0.47282204E-02 0.91487627E+02</pdfrwt>
<totfact> 0.97326677E+04</totfact>
</mgrwt>
</event>
<event>
 7    1  0.3301067E-009  0.9107527E+02  0.7818608E-02  0.1300268E+00
         -1   -1    0    0    0  501 -0.00000000000E+00  0.00000000000E+00  0.59069604355E+01  0.59069625856E+01  0.50400000000E-02 0.  1.
          1   -1    0    0  501    0  0.00000000000E+00 -0.00000000000E+00 -0.35105632625E+03  0.35105632629E+03  0.50400000000E-02 0. -1.
         23    2    1    2    0    0  0.00000000000E+00  0.00000000000E+00 -0.34514936582E+03  0.35696328888E+03  0.91075270409E+02 0.  0.
    9000005    2    3    3    0    0  0.38322626887E+02  0.64153567753E+01 -0.26138352869E+03  0.26462426135E+03  0.13959587809E+02 0.  0.
         22    1    3    3    0    0 -0.38322626887E+02 -0.64153567753E+01 -0.83765837126E+02  0.92339027521E+02  0.00000000000E+00 0.  1.
         22    1    4    4    0    0  0.26802264848E+02 -0.62143852590E+00 -0.19893115606E+03  0.20072955049E+03  0.00000000000E+00 0. -1.
         22    1    4    4    0    0  0.11520362039E+02  0.70367953012E+01 -0.62452372629E+02  0.63894710866E+02  0.00000000000E+00 0. -1.
<mgrwt>
<rscale>  0 0.91075270E+02</rscale>
<asrwt>0</asrwt>
<pdfrwt beam="2">  1        1 0.54008650E-01 0.91075270E+02</pdfrwt>
<pdfrwt beam="1">  1       -1 0.90876358E-03 0.91075270E+02</pdfrwt>
<totfact> 0.13229512E+05</totfact>
</mgrwt>
</event>
<event>
 7    1  0.3301067E-009  0.9106413E+02  0.7818608E-02  0.1300295E+00
          1   -1    0    0  501    0  0.00000000000E+00  0.00000000000E+00  0.14008745102E+03  0.14008745111E+03  0.50400000000E-02 0. -1.
         -1   -1    0    0    0  501 -0.00000000000E+00 -0.00000000000E+00 -0.14799105569E+02  0.14799106427E+02  0.50400000000E-02 0.  1.
         23    2    1    2    0    0  0.00000000000E+00  0.00000000000E+00  0.12528834545E+03  0.15488655754E+03  0.91064132347E+02 0.  0.
    9000005    2    3    3    0    0 -0.23056121596E+01 -0.35219569732E+02  0.11032136161E+03  0.11654931005E+03  0.12930773646E+02 0.  0.
         22    1    3    3    0    0  0.23056121596E+01  0.35219569732E+02  0.14966983847E+02  0.38337247489E+02  0.00000000000E+00 0.  1.
         22    1    4    4    0    0 -0.30105460265E+00 -0.23785977636E+02  0.90547550172E+02  0.93620095109E+02  0.00000000000E+00 0.  1.
         22    1    4    4    0    0 -0.20045575569E+01 -0.11433592096E+02  0.19773811434E+02  0.22929214942E+02  0.00000000000E+00 0.  1.
<mgrwt>
<rscale>  0 0.91064132E+02</rscale>
<asrwt>0</asrwt>
<pdfrwt beam="1">  1        1 0.21551916E-01 0.91064132E+02</pdfrwt>
<pdfrwt beam="2">  1       -1 0.22767855E-02 0.91064132E+02</pdfrwt>
<totfact> 0.11111358E+05</totfact>
</mgrwt>
</event>
<event>
 7    1  0.3301067E-009  0.9134492E+02  0.7818608E-02  0.1299627E+00
          1   -1    0    0  501    0  0.00000000000E+00  0.00000000000E+00  0.27163163099E+03  0.27163163104E+03  0.50400000000E-02 0. -1.
         -1   -1    0    0    0  501 -0.00000000000E+00 -0.00000000000E+00 -0.76794197605E+01  0.76794214144E+01  0.50400000000E-02 0.  1.
         23    2    1    2    0    0  0.00000000000E+00 -0.35527136788E-14  0.26395221123E+03  0.27931105245E+03  0.91344918897E+02 0.  0.
    9000005    2    3    3    0    0 -0.19175419683E+02 -0.28231878402E+02  0.22412199465E+03  0.22685934294E+03  0.83520843870E+01 0.  0.
         22    1    3    3    0    0  0.19175419683E+02  0.28231878402E+02  0.39830216575E+02  0.52451709511E+02  0.00000000000E+00 0.  1.
         22    1    4    4    0    0 -0.12480374428E+02 -0.23678280725E+02  0.18308687453E+03  0.18503303583E+03  0.00000000000E+00 0.  1.
         22    1    4    4    0    0 -0.66950452548E+01 -0.45535976768E+01  0.41035120125E+02  0.41826307110E+02  0.00000000000E+00 0.  1.
<mgrwt>
<rscale>  0 0.91344919E+02</rscale>
<asrwt>0</asrwt>
<pdfrwt beam="1">  1        1 0.41789478E-01 0.91344919E+02</pdfrwt>
<pdfrwt beam="2">  1       -1 0.11814494E-02 0.91344919E+02</pdfrwt>
<totfact> 0.12507319E+05</totfact>
</mgrwt>
</event>
<event>
 7    1  0.3301067E-009  0.9193921E+02  0.7818608E-02  0.1298222E+00
         -1   -1    0    0    0  501 -0.00000000000E+00  0.00000000000E+00  0.30869489308E+03  0.30869489313E+03  0.50400000000E-02 0. -1.
          1   -1    0    0  501    0  0.00000000000E+00 -0.00000000000E+00 -0.68456079253E+01  0.68456097806E+01  0.50400000000E-02 0.  1.
         23    2    1    2    0    0  0.00000000000E+00  0.00000000000E+00  0.30184928516E+03  0.31554050291E+03  0.91939208302E+02 0.  0.
    9000005    2    3    3    0    0  0.25502294812E+02 -0.37851658060E+02  0.15835501831E+03  0.16496255074E+03  0.72949479535E+01 0.  0.
         22    1    3    3    0    0 -0.25502294812E+02  0.37851658060E+02  0.14349426685E+03  0.15057795216E+03  0.00000000000E+00 0.  1.
         22    1    4    4    0    0  0.17094515918E+02 -0.30290799479E+02  0.12463166480E+03  0.12939399862E+03  0.00000000000E+00 0. -1.
         22    1    4    4    0    0  0.84077788947E+01 -0.75608585812E+01  0.33723353505E+02  0.35568552122E+02  0.00000000000E+00 0. -1.
<mgrwt>
<rscale>  0 0.91939208E+02</rscale>
<asrwt>0</asrwt>
<pdfrwt beam="2">  1        1 0.10531703E-02 0.91939208E+02</pdfrwt>
<pdfrwt beam="1">  1       -1 0.47491535E-01 0.91939208E+02</pdfrwt>
<totfact> 0.58608876E+04</totfact>
</mgrwt>
</event>
<event>
 7    1  0.3301067E-009  0.8616531E+02  0.7818608E-02  0.1312413E+00
          1   -1    0    0  501    0  0.00000000000E+00  0.00000000000E+00  0.10982493468E+03  0.10982493480E+03  0.50400000000E-02 0. -1.
         -1   -1    0    0    0  501 -0.00000000000E+00 -0.00000000000E+00 -0.16900671101E+02  0.16900671853E+02  0.50400000000E-02 0.  1.
         23    2    1    2    0    0  0.00000000000E+00  0.00000000000E+00  0.92924263583E+02  0.12672560665E+03  0.86165309836E+02 0.  0.
    9000005    2    3    3    0    0 -0.11299058032E+02 -0.39706982307E+02  0.40264193582E+02  0.59812258741E+02  0.15874125316E+02 0.  0.
         22    1    3    3    0    0  0.11299058032E+02  0.39706982307E+02  0.52660070001E+02  0.66913347912E+02  0.00000000000E+00 0. -1.
         22    1    4    4    0    0  0.18980608432E+01 -0.54101036358E+01  0.63767584511E+00  0.57687508871E+01  0.00000000000E+00 0.  1.
         22    1    4    4    0    0 -0.13197118875E+02 -0.34296878671E+02  0.39626517737E+02  0.54043507853E+02  0.00000000000E+00 0.  1.
<mgrwt>
<rscale>  0 0.86165310E+02</rscale>
<asrwt>0</asrwt>
<pdfrwt beam="1">  1        1 0.16896144E-01 0.86165310E+02</pdfrwt>
<pdfrwt beam="2">  1       -1 0.26001033E-02 0.86165310E+02</pdfrwt>
<totfact> 0.12365665E+05</totfact>
</mgrwt>
</event>
<event>
 7    1  0.3301067E-009  0.9600726E+02  0.7818608E-02  0.1288923E+00
          1   -1    0    0  501    0  0.00000000000E+00  0.00000000000E+00  0.22678857760E+01  0.22678913763E+01  0.50400000000E-02 0. -1.
         -1   -1    0    0    0  501 -0.00000000000E+00 -0.00000000000E+00 -0.10160765270E+04  0.10160765270E+04  0.50400000000E-02 0.  1.
         23    2    1    2    0    0  0.00000000000E+00  0.00000000000E+00 -0.10138086412E+04  0.10183444184E+04  0.96007257242E+02 0.  0.
    9000005    2    3    3    0    0  0.92219441069E+01 -0.65251614843E+01 -0.10014133402E+04  0.10015734472E+04  0.13894974854E+02 0.  0.
         22    1    3    3    0    0 -0.92219441069E+01  0.65251614843E+01 -0.12395301040E+02  0.16770971152E+02  0.00000000000E+00 0. -1.
         22    1    4    4    0    0  0.26420123563E+01 -0.36047472556E+01 -0.75525261145E+02  0.75657382344E+02  0.00000000000E+00 0.  1.
         22    1    4    4    0    0  0.65799317506E+01 -0.29204142287E+01 -0.92588807902E+03  0.92591606487E+03  0.00000000000E+00 0.  1.
<mgrwt>
<rscale>  0 0.96007257E+02</rscale>
<asrwt>0</asrwt>
<pdfrwt beam="1">  1        1 0.34890675E-03 0.96007257E+02</pdfrwt>
<pdfrwt beam="2">  1       -1 0.15631910E+00 0.96007257E+02</pdfrwt>
<totfact> 0.21950976E+04</totfact>
</mgrwt>
</event>
<event>
 7    1  0.3301067E-009  0.9378012E+02  0.7818608E-02  0.1293947E+00
          1   -1    0    0  501    0  0.00000000000E+00  0.00000000000E+00  0.45246664463E+01  0.45246692533E+01  0.50400000000E-02 0. -1.
         -1   -1    0    0    0  501 -0.00000000000E+00 -0.00000000000E+00 -0.48593128070E+03  0.48593128073E+03  0.50400000000E-02 0.  1.
         23    2    1    2    0    0 -0.71054273576E-14  0.00000000000E+00 -0.48140661426E+03  0.49045594998E+03  0.93780118485E+02 0.  0.
    9000005    2    3    3    0    0 -0.32561367146E+02  0.24153842226E+02 -0.36123803976E+03  0.36363269888E+03  0.96003956752E+01 0.  0.
         22    1    3    3    0    0  0.32561367146E+02 -0.24153842226E+02 -0.12016857449E+03  0.12682325110E+03  0.00000000000E+00 0. -1.
         22    1    4    4    0    0  0.82987704140E-01  0.64782732892E+00 -0.23258074207E+02  0.23267242704E+02  0.00000000000E+00 0. -1.
         22    1    4    4    0    0 -0.32644354850E+02  0.23506014897E+02 -0.33797996556E+03  0.34036545618E+03  0.00000000000E+00 0. -1.
<mgrwt>
<rscale>  0 0.93780118E+02</rscale>
<asrwt>0</asrwt>
<pdfrwt beam="1">  1        1 0.69610313E-03 0.93780118E+02</pdfrwt>
<pdfrwt beam="2">  1       -1 0.74758618E-01 0.93780118E+02</pdfrwt>
<totfact> 0.44455524E+04</totfact>
</mgrwt>
</event>
<event>
 7    1  0.3855652E-009  0.9131757E+02  0.7818608E-02  0.1299692E+00
         -1   -1    0    0    0  501 -0.00000000000E+00  0.00000000000E+00  0.21038671185E+02  0.21038671789E+02  0.50400000000E-02 0.  1.
          1   -1    0    0  501    0  0.00000000000E+00 -0.00000000000E+00 -0.99090131204E+02  0.99090131333E+02  0.50400000000E-02 0. -1.
         23    2    1    2    0    0  0.00000000000E+00  0.44408920985E-15 -0.78051460019E+02  0.12012880312E+03  0.91317571849E+02 0.  0.
    9000005    2    3    3    0    0 -0.32586568260E+02 -0.35280512598E+01 -0.32132076503E+00  0.35770601830E+02  0.14321352297E+02 0.  0.
         22    1    3    3    0    0  0.32586568260E+02  0.35280512598E+01 -0.77730139254E+02  0.84358201291E+02  0.00000000000E+00 0. -1.
         22    1    4    4    0    0 -0.19000964017E+02 -0.66117045464E+00  0.67673619376E+01  0.20180955565E+02  0.00000000000E+00 0.  1.
         22    1    4    4    0    0 -0.13585604244E+02 -0.28668808051E+01 -0.70886827026E+01  0.15589646265E+02  0.00000000000E+00 0.  1.
<mgrwt>
<rscale>  0 0.91317572E+02</rscale>
<asrwt>0</asrwt>
<pdfrwt beam="2">  1        1 0.15244635E-01 0.91317572E+02</pdfrwt>
<pdfrwt beam="1">  1       -1 0.32367188E-02 0.91317572E+02</pdfrwt>
<totfact> 0.10385514E+05</totfact>
</mgrwt>
</event>
<event>
 7    1  0.3301067E-009  0.9032470E+02  0.7818608E-02  0.1302067E+00
          1   -1    0    0  501    0  0.00000000000E+00  0.00000000000E+00  0.12336087398E+03  0.12336087408E+03  0.50400000000E-02 0. -1.
         -1   -1    0    0    0  501 -0.00000000000E+00 -0.00000000000E+00 -0.16533909926E+02  0.16533910695E+02  0.50400000000E-02 0.  1.
         23    2    1    2    0    0  0.00000000000E+00  0.00000000000E+00  0.10682696405E+03  0.13989478477E+03  0.90324695177E+02 0.  0.
    9000005    2    3    3    0    0  0.37579833446E+02  0.22955892531E+02  0.49555096417E+02  0.67650174553E+02  0.13476707777E+02 0.  0.
         22    1    3    3    0    0 -0.37579833446E+02 -0.22955892531E+02  0.57271867633E+02  0.72244610221E+02  0.00000000000E+00 0. -1.
         22    1    4    4    0    0  0.25803231568E+02  0.91985331942E+01  0.24611428448E+02  0.36825835802E+02  0.00000000000E+00 0.  1.
         22    1    4    4    0    0  0.11776601878E+02  0.13757359337E+02  0.24943667969E+02  0.30824338752E+02  0.00000000000E+00 0.  1.
<mgrwt>
<rscale>  0 0.90324695E+02</rscale>
<asrwt>0</asrwt>
<pdfrwt beam="1">  1        1 0.18978597E-01 0.90324695E+02</pdfrwt>
<pdfrwt beam="2">  1       -1 0.25436784E-02 0.90324695E+02</pdfrwt>
<totfact> 0.11104680E+05</totfact>
</mgrwt>
</event>
<event>
 7    1  0.3301067E-009  0.8926227E+02  0.7818608E-02  0.1304648E+00
         -1   -1    0    0    0  501 -0.00000000000E+00  0.00000000000E+00  0.28912446866E+01  0.28912490795E+01  0.50400000000E-02 0.  1.
          1   -1    0    0  501    0  0.00000000000E+00 -0.00000000000E+00 -0.68895479435E+03  0.68895479437E+03  0.50400000000E-02 0. -1.
         23    2    1    2    0    0  0.00000000000E+00  0.00000000000E+00 -0.68606354966E+03  0.69184604345E+03  0.89262274550E+02 0.  0.
    9000005    2    3    3    0    0  0.41468442838E+02  0.66221013894E+01 -0.45304858698E+03  0.45507726001E+03  0.88772986692E+01 0.  0.
         22    1    3    3    0    0 -0.41468442838E+02 -0.66221013894E+01 -0.23301496268E+03  0.23676878344E+03  0.00000000000E+00 0.  1.
         22    1    4    4    0    0  0.23064713198E+02  0.46014706973E+01 -0.20665206235E+03  0.20798612791E+03  0.00000000000E+00 0.  1.
         22    1    4    4    0    0  0.18403729640E+02  0.20206306920E+01 -0.24639652463E+03  0.24709113210E+03  0.00000000000E+00 0.  1.
<mgrwt>
<rscale>  0 0.89262275E+02</rscale>
<asrwt>0</asrwt>
<pdfrwt beam="2">  1        1 0.10599292E+00 0.89262275E+02</pdfrwt>
<pdfrwt beam="1">  1       -1 0.44480776E-03 0.89262275E+02</pdfrwt>
<totfact> 0.15038639E+05</totfact>
</mgrwt>
</event>
<event>
 7    1  0.3301067E-009  0.9097880E+02  0.7818608E-02  0.1300499E+00
         -1   -1    0    0    0  501 -0.00000000000E+00  0.00000000000E+00  0.15099496111E+02  0.15099496952E+02  0.50400000000E-02 0.  1.
          1   -1    0    0  501    0  0.00000000000E+00 -0.00000000000E+00 -0.13704333501E+03  0.13704333510E+03  0.50400000000E-02 0. -1.
         23    2    1    2    0    0  0.00000000000E+00 -0.71054273576E-14 -0.12194383890E+03  0.15214283205E+03  0.90978796981E+02 0.  0.
    9000005    2    3    3    0    0  0.20402458172E+01 -0.41708739435E+02 -0.33761494122E+02  0.54572818840E+02  0.97248404873E+01 0.  0.
         22    1    3    3    0    0 -0.20402458172E+01  0.41708739435E+02 -0.88182344776E+02  0.97570013213E+02  0.00000000000E+00 0. -1.
         22    1    4    4    0    0 -0.36427673841E+00 -0.14101150459E+01  0.58415629105E+00  0.15691910518E+01  0.00000000000E+00 0.  1.
         22    1    4    4    0    0  0.24045225556E+01 -0.40298624389E+02 -0.34345650413E+02  0.53003627788E+02  0.00000000000E+00 0.  1.
<mgrwt>
<rscale>  0 0.90978797E+02</rscale>
<asrwt>0</asrwt>
<pdfrwt beam="2">  1        1 0.21083589E-01 0.90978797E+02</pdfrwt>
<pdfrwt beam="1">  1       -1 0.23229996E-02 0.90978797E+02</pdfrwt>
<totfact> 0.11095452E+05</totfact>
</mgrwt>
</event>
<event>
 7    1  0.3301067E-009  0.9004205E+02  0.7818608E-02  0.1302750E+00
         -1   -1    0    0    0  501 -0.00000000000E+00  0.00000000000E+00  0.32469447002E+02  0.32469447393E+02  0.50400000000E-02 0.  1.
          1   -1    0    0  501    0  0.00000000000E+00 -0.00000000000E+00 -0.62424609109E+02  0.62424609312E+02  0.50400000000E-02 0. -1.
         23    2    1    2    0    0  0.00000000000E+00  0.00000000000E+00 -0.29955162107E+02  0.94894056706E+02  0.90042047185E+02 0.  0.
    9000005    2    3    3    0    0 -0.33854870006E+02  0.99865809226E+01  0.13999105008E+02  0.38521531312E+02  0.64845517911E+01 0.  0.
         22    1    3    3    0    0  0.33854870006E+02 -0.99865809226E+01 -0.43954267115E+02  0.56372525394E+02  0.00000000000E+00 0.  1.
         22    1    4    4    0    0 -0.10656815285E+02  0.61252934058E+01  0.60268746372E+01  0.13689782658E+02  0.00000000000E+00 0. -1.
         22    1    4    4    0    0 -0.23198054721E+02  0.38612875167E+01  0.79722303712E+01  0.24831748654E+02  0.00000000000E+00 0. -1.
<mgrwt>
<rscale>  0 0.90042047E+02</rscale>
<asrwt>0</asrwt>
<pdfrwt beam="2">  1        1 0.96037861E-02 0.90042047E+02</pdfrwt>
<pdfrwt beam="1">  1       -1 0.49952996E-02 0.90042047E+02</pdfrwt>
<totfact> 0.10036805E+05</totfact>
</mgrwt>
</event>
<event>
 7    1  0.3301067E-009  0.8948187E+02  0.7818608E-02  0.1304111E+00
          1   -1    0    0  501    0  0.00000000000E+00  0.00000000000E+00  0.18477964570E+02  0.18477965257E+02  0.50400000000E-02 0. -1.
         -1   -1    0    0    0  501 -0.00000000000E+00 -0.00000000000E+00 -0.10833180473E+03  0.10833180485E+03  0.50400000000E-02 0.  1.
         23    2    1    2    0    0 -0.35527136788E-14  0.17763568394E-14 -0.89853840162E+02  0.12680977011E+03  0.89481870803E+02 0.  0.
    9000005    2    3    3    0    0 -0.23336443365E+02 -0.11262699078E+02 -0.96018235340E+02  0.10017449749E+03  0.11999602064E+02 0.  0.
         22    1    3    3    0    0  0.23336443365E+02  0.11262699078E+02  0.61643951789E+01  0.26635272617E+02  0.00000000000E+00 0. -1.
         22    1    4    4    0    0 -0.88128605372E+01 -0.52982030666E+01 -0.19323321694E+02  0.21888997873E+02  0.00000000000E+00 0. -1.
         22    1    4    4    0    0 -0.14523582828E+02 -0.59644960112E+01 -0.76694913647E+02  0.78285499616E+02  0.00000000000E+00 0. -1.
<mgrwt>
<rscale>  0 0.89481871E+02</rscale>
<asrwt>0</asrwt>
<pdfrwt beam="1">  1        1 0.28427639E-02 0.89481871E+02</pdfrwt>
<pdfrwt beam="2">  1       -1 0.16666431E-01 0.89481871E+02</pdfrwt>
<totfact> 0.84115214E+04</totfact>
</mgrwt>
</event>
<event>
 7    1  0.3301067E-009  0.9726784E+02  0.7818608E-02  0.1286149E+00
         -1   -1    0    0    0  501 -0.00000000000E+00  0.00000000000E+00  0.10795662723E+03  0.10795662734E+03  0.50400000000E-02 0.  1.
          1   -1    0    0  501    0  0.00000000000E+00 -0.00000000000E+00 -0.21909335254E+02  0.21909335834E+02  0.50400000000E-02 0. -1.
         23    2    1    2    0    0  0.00000000000E+00  0.00000000000E+00  0.86047291971E+02  0.12986596318E+03  0.97267836083E+02 0.  0.
    9000005    2    3    3    0    0 -0.27541714233E+02  0.32780670627E+02  0.71196238639E+02  0.84548503245E+02  0.15697981241E+02 0.  0.
         22    1    3    3    0    0  0.27541714233E+02 -0.32780670627E+02  0.14851053332E+02  0.45317459932E+02  0.00000000000E+00 0. -1.
         22    1    4    4    0    0  0.13427709026E+01 -0.20415370779E+00  0.69423015587E+00  0.15253419101E+01  0.00000000000E+00 0. -1.
         22    1    4    4    0    0 -0.28884485135E+02  0.32984824335E+02  0.70502008483E+02  0.83023161335E+02  0.00000000000E+00 0. -1.
<mgrwt>
<rscale>  0 0.97267836E+02</rscale>
<asrwt>0</asrwt>
<pdfrwt beam="2">  1        1 0.33706670E-02 0.97267836E+02</pdfrwt>
<pdfrwt beam="1">  1       -1 0.16608712E-01 0.97267836E+02</pdfrwt>
<totfact> 0.67854991E+04</totfact>
</mgrwt>
</event>
<event>
 7    1  0.3301067E-009  0.9266895E+02  0.7818608E-02  0.1296514E+00
          1   -1    0    0  501    0  0.00000000000E+00  0.00000000000E+00  0.10153266623E+02  0.10153267874E+02  0.50400000000E-02 0. -1.
         -1   -1    0    0    0  501 -0.00000000000E+00 -0.00000000000E+00 -0.21144754349E+03  0.21144754355E+03  0.50400000000E-02 0.  1.
         23    2    1    2    0    0  0.00000000000E+00  0.00000000000E+00 -0.20129427687E+03  0.22160081143E+03  0.92668946927E+02 0.  0.
    9000005    2    3    3    0    0 -0.40947598899E+02 -0.19918456019E+02 -0.96628202241E+02  0.10745862850E+03  0.11700283089E+02 0.  0.
         22    1    3    3    0    0  0.40947598899E+02  0.19918456019E+02 -0.10466607463E+03  0.11414218293E+03  0.00000000000E+00 0. -1.
         22    1    4    4    0    0 -0.15680152845E+02 -0.11219049749E+02 -0.51771989850E+02  0.55245571800E+02  0.00000000000E+00 0. -1.
         22    1    4    4    0    0 -0.25267446054E+02 -0.86994062696E+01 -0.44856212391E+02  0.52213056697E+02  0.00000000000E+00 0. -1.
<mgrwt>
<rscale>  0 0.92668947E+02</rscale>
<asrwt>0</asrwt>
<pdfrwt beam="1">  1        1 0.15620413E-02 0.92668947E+02</pdfrwt>
<pdfrwt beam="2">  1       -1 0.32530388E-01 0.92668947E+02</pdfrwt>
<totfact> 0.65471559E+04</totfact>
</mgrwt>
</event>
<event>
 7    1  0.3301067E-009  0.9218890E+02  0.7818608E-02  0.1297636E+00
          1   -1    0    0  501    0  0.00000000000E+00  0.00000000000E+00  0.23736501721E+02  0.23736502256E+02  0.50400000000E-02 0. -1.
         -1   -1    0    0    0  501 -0.00000000000E+00 -0.00000000000E+00 -0.89511847621E+02  0.89511847763E+02  0.50400000000E-02 0.  1.
         23    2    1    2    0    0 -0.17763568394E-14  0.00000000000E+00 -0.65775345901E+02  0.11324835002E+03  0.92188896586E+02 0.  0.
    9000005    2    3    3    0    0  0.11360680273E+02  0.10805372352E+02  0.19225946192E+02  0.26813167453E+02  0.10172896045E+02 0.  0.
         22    1    3    3    0    0 -0.11360680273E+02 -0.10805372352E+02 -0.85001292092E+02  0.86435182566E+02  0.00000000000E+00 0.  1.
         22    1    4    4    0    0  0.97222543846E+00  0.56752367243E+01  0.20849916348E+01  0.61237834953E+01  0.00000000000E+00 0.  1.
         22    1    4    4    0    0  0.10388454835E+02  0.51301356276E+01  0.17140954557E+02  0.20689383957E+02  0.00000000000E+00 0.  1.
<mgrwt>
<rscale>  0 0.92188897E+02</rscale>
<asrwt>0</asrwt>
<pdfrwt beam="1">  1        1 0.36517696E-02 0.92188897E+02</pdfrwt>
<pdfrwt beam="2">  1       -1 0.13771053E-01 0.92188897E+02</pdfrwt>
<totfact> 0.80698985E+04</totfact>
</mgrwt>
</event>
<event>
 7    1  0.3301067E-009  0.9052592E+02  0.7818608E-02  0.1301583E+00
         -1   -1    0    0    0  501 -0.00000000000E+00  0.00000000000E+00  0.33171712600E+01  0.33171750888E+01  0.50400000000E-02 0.  1.
          1   -1    0    0  501    0  0.00000000000E+00 -0.00000000000E+00 -0.61761483340E+03  0.61761483342E+03  0.50400000000E-02 0. -1.
         23    2    1    2    0    0  0.44408920985E-15  0.00000000000E+00 -0.61429766214E+03  0.62093200851E+03  0.90525916073E+02 0.  0.
    9000005    2    3    3    0    0 -0.38370037784E+01  0.28952762828E+02 -0.54131786015E+03  0.54232516039E+03  0.15445672451E+02 0.  0.
         22    1    3    3    0    0  0.38370037784E+01 -0.28952762828E+02 -0.72979801992E+02  0.78606848125E+02  0.00000000000E+00 0.  1.
         22    1    4    4    0    0  0.23033150583E+01 -0.93489515506E+00 -0.48496901253E+02  0.48560567545E+02  0.00000000000E+00 0.  1.
         22    1    4    4    0    0 -0.61403188367E+01  0.29887657983E+02 -0.49282095890E+03  0.49376459284E+03  0.00000000000E+00 0.  1.
<mgrwt>
<rscale>  0 0.90525916E+02</rscale>
<asrwt>0</asrwt>
<pdfrwt beam="2">  1        1 0.95017576E-01 0.90525916E+02</pdfrwt>
<pdfrwt beam="1">  1       -1 0.51033483E-03 0.90525916E+02</pdfrwt>
<totfact> 0.14452214E+05</totfact>
</mgrwt>
</event>
<event>
 7    1  0.3301067E-009  0.9249990E+02  0.7818608E-02  0.1296908E+00
          1   -1    0    0  501    0  0.00000000000E+00  0.00000000000E+00  0.15778987667E+02  0.15778988472E+02  0.50400000000E-02 0. -1.
         -1   -1    0    0    0  501 -0.00000000000E+00 -0.00000000000E+00 -0.13556369564E+03  0.13556369573E+03  0.50400000000E-02 0.  1.
         23    2    1    2    0    0  0.00000000000E+00  0.35527136788E-14 -0.11978470797E+03  0.15134268420E+03  0.92499901611E+02 0.  0.
    9000005    2    3    3    0    0 -0.26845810051E+02  0.27235435930E+02 -0.21542237921E+02  0.45919492214E+02  0.13493156152E+02 0.  0.
         22    1    3    3    0    0  0.26845810051E+02 -0.27235435930E+02 -0.98242470048E+02  0.10542319199E+03  0.00000000000E+00 0.  1.
         22    1    4    4    0    0 -0.78335051439E+01  0.66823442526E+01 -0.13128228884E+02  0.16684361575E+02  0.00000000000E+00 0. -1.
         22    1    4    4    0    0 -0.19012304907E+02  0.20553091678E+02 -0.84140090376E+01  0.29235130639E+02  0.00000000000E+00 0. -1.
<mgrwt>
<rscale>  0 0.92499902E+02</rscale>
<asrwt>0</asrwt>
<pdfrwt beam="1">  1        1 0.24275367E-02 0.92499902E+02</pdfrwt>
<pdfrwt beam="2">  1       -1 0.20855952E-01 0.92499902E+02</pdfrwt>
<totfact> 0.73717822E+04</totfact>
</mgrwt>
</event>
<event>
 7    1  0.3301067E-009  0.8856467E+02  0.7818608E-02  0.1306365E+00
         -1   -1    0    0    0  501 -0.00000000000E+00  0.00000000000E+00  0.35176559006E+01  0.35176595112E+01  0.50400000000E-02 0.  1.
          1   -1    0    0  501    0  0.00000000000E+00 -0.00000000000E+00 -0.55745198397E+03  0.55745198399E+03  0.50400000000E-02 0. -1.
         23    2    1    2    0    0  0.00000000000E+00  0.00000000000E+00 -0.55393432807E+03  0.56096964350E+03  0.88564671959E+02 0.  0.
    9000005    2    3    3    0    0  0.23874601599E+02  0.13686017334E+02 -0.49614269108E+03  0.49696044903E+03  0.74036686908E+01 0.  0.
         22    1    3    3    0    0 -0.23874601599E+02 -0.13686017334E+02 -0.57791636987E+02  0.64009194477E+02  0.00000000000E+00 0.  1.
         22    1    4    4    0    0  0.92565851874E+01  0.15360330045E+01 -0.14440765702E+03  0.14471218046E+03  0.00000000000E+00 0.  1.
         22    1    4    4    0    0  0.14618016412E+02  0.12149984330E+02 -0.35173503406E+03  0.35224826857E+03  0.00000000000E+00 0.  1.
<mgrwt>
<rscale>  0 0.88564672E+02</rscale>
<asrwt>0</asrwt>
<pdfrwt beam="2">  1        1 0.85761774E-01 0.88564672E+02</pdfrwt>
<pdfrwt beam="1">  1       -1 0.54117855E-03 0.88564672E+02</pdfrwt>
<totfact> 0.15207508E+05</totfact>
</mgrwt>
</event>
<event>
 7    1  0.3301067E-009  0.9040031E+02  0.7818608E-02  0.1301885E+00
         -1   -1    0    0    0  501 -0.00000000000E+00  0.00000000000E+00  0.58437905299E+02  0.58437905517E+02  0.50400000000E-02 0.  1.
          1   -1    0    0  501    0  0.00000000000E+00 -0.00000000000E+00 -0.34961106406E+02  0.34961106769E+02  0.50400000000E-02 0. -1.
         23    2    1    2    0    0 -0.35527136788E-14  0.35527136788E-14  0.23476798894E+02  0.93399012286E+02  0.90400306469E+02 0.  0.
    9000005    2    3    3    0    0 -0.28225230499E+02  0.26730110401E+02  0.35441872416E+02  0.52725612831E+02  0.35639148793E+01 0.  0.
         22    1    3    3    0    0  0.28225230499E+02 -0.26730110401E+02 -0.11965073522E+02  0.40673399455E+02  0.00000000000E+00 0. -1.
         22    1    4    4    0    0 -0.28077682990E+02  0.26744383585E+02  0.34918339892E+02  0.52181498601E+02  0.00000000000E+00 0.  1.
         22    1    4    4    0    0 -0.14754750872E+00 -0.14273184062E-01  0.52353252459E+00  0.54411423011E+00  0.00000000000E+00 0.  1.
<mgrwt>
<rscale>  0 0.90400306E+02</rscale>
<asrwt>0</asrwt>
<pdfrwt beam="2">  1        1 0.53786319E-02 0.90400306E+02</pdfrwt>
<pdfrwt beam="1">  1       -1 0.89904469E-02 0.90400306E+02</pdfrwt>
<totfact> 0.90993366E+04</totfact>
</mgrwt>
</event>
<event>
 7    1  0.3366114E-009  0.9174308E+02  0.7818608E-02  0.1298685E+00
         -1   -1    0    0    0  501 -0.00000000000E+00  0.00000000000E+00  0.27398917416E+03  0.27398917421E+03  0.50400000000E-02 0.  1.
          1   -1    0    0  501    0  0.00000000000E+00 -0.00000000000E+00 -0.76798583221E+01  0.76798599758E+01  0.50400000000E-02 0. -1.
         23    2    1    2    0    0  0.00000000000E+00  0.44408920985E-15  0.26630931584E+03  0.28166903419E+03  0.91743082111E+02 0.  0.
    9000005    2    3    3    0    0 -0.37068069162E+02  0.24915069584E+01  0.21353239552E+03  0.21712716656E+03  0.12956587596E+02 0.  0.
         22    1    3    3    0    0  0.37068069162E+02 -0.24915069584E+01  0.52776920319E+02  0.64541867626E+02  0.00000000000E+00 0. -1.
         22    1    4    4    0    0 -0.16943284119E+02  0.26330916345E+01  0.13379376414E+03  0.13488802531E+03  0.00000000000E+00 0.  1.
         22    1    4    4    0    0 -0.20124785043E+02 -0.14158467604E+00  0.79738631382E+02  0.82239141253E+02  0.00000000000E+00 0.  1.
<mgrwt>
<rscale>  0 0.91743082E+02</rscale>
<asrwt>0</asrwt>
<pdfrwt beam="2">  1        1 0.11815168E-02 0.91743082E+02</pdfrwt>
<pdfrwt beam="1">  1       -1 0.42152179E-01 0.91743082E+02</pdfrwt>
<totfact> 0.61700440E+04</totfact>
</mgrwt>
</event>
<event>
 7    1  0.3301067E-009  0.9438560E+02  0.7818608E-02  0.1292566E+00
         -1   -1    0    0    0  501 -0.00000000000E+00  0.00000000000E+00  0.47885593076E+03  0.47885593079E+03  0.50400000000E-02 0.  1.
          1   -1    0    0  501    0  0.00000000000E+00 -0.00000000000E+00 -0.46510020835E+01  0.46510048143E+01  0.50400000000E-02 0. -1.
         23    2    1    2    0    0  0.00000000000E+00  0.00000000000E+00  0.47420492868E+03  0.48350693560E+03  0.94385604798E+02 0.  0.
    9000005    2    3    3    0    0  0.38246666174E+02  0.10768860396E+02  0.36726722478E+03  0.36942605052E+03  0.34083093699E+01 0.  0.
         22    1    3    3    0    0 -0.38246666174E+02 -0.10768860396E+02  0.10693770389E+03  0.11408088508E+03  0.00000000000E+00 0. -1.
         22    1    4    4    0    0  0.11744628865E+02  0.45082111377E+01  0.10624952144E+03  0.10699168697E+03  0.00000000000E+00 0. -1.
         22    1    4    4    0    0  0.26502037308E+02  0.62606492584E+01  0.26101770335E+03  0.26243436355E+03  0.00000000000E+00 0. -1.
<mgrwt>
<rscale>  0 0.94385605E+02</rscale>
<asrwt>0</asrwt>
<pdfrwt beam="2">  1        1 0.71553858E-03 0.94385605E+02</pdfrwt>
<pdfrwt beam="1">  1       -1 0.73670186E-01 0.94385605E+02</pdfrwt>
<totfact> 0.44094124E+04</totfact>
</mgrwt>
</event>
<event>
 7    1  0.3301067E-009  0.9299343E+02  0.7818608E-02  0.1295760E+00
          1   -1    0    0  501    0  0.00000000000E+00  0.00000000000E+00  0.28266542529E+03  0.28266542534E+03  0.50400000000E-02 0. -1.
         -1   -1    0    0    0  501 -0.00000000000E+00 -0.00000000000E+00 -0.76484220843E+01  0.76484237449E+01  0.50400000000E-02 0.  1.
         23    2    1    2    0    0 -0.35527136788E-14  0.00000000000E+00  0.27501700321E+03  0.29031384908E+03  0.92993434797E+02 0.  0.
    9000005    2    3    3    0    0  0.29531889907E+02  0.33059341590E+02  0.17167095728E+03  0.17786182466E+03  0.14101720104E+02 0.  0.
         22    1    3    3    0    0 -0.29531889907E+02 -0.33059341590E+02  0.10334604593E+03  0.11245202442E+03  0.00000000000E+00 0. -1.
         22    1    4    4    0    0  0.18151057263E+02  0.26163356561E+02  0.99399493824E+02  0.10437548313E+03  0.00000000000E+00 0. -1.
         22    1    4    4    0    0  0.11380832644E+02  0.68959850289E+01  0.72271463456E+02  0.73486341528E+02  0.00000000000E+00 0. -1.
<mgrwt>
<rscale>  0 0.92993435E+02</rscale>
<asrwt>0</asrwt>
<pdfrwt beam="1">  1        1 0.43486986E-01 0.92993435E+02</pdfrwt>
<pdfrwt beam="2">  1       -1 0.11766805E-02 0.92993435E+02</pdfrwt>
<totfact> 0.12016336E+05</totfact>
</mgrwt>
</event>
<event>
 7    1  0.3301067E-009  0.9302547E+02  0.7818608E-02  0.1295686E+00
         -1   -1    0    0    0  501 -0.00000000000E+00  0.00000000000E+00  0.65505317803E+01  0.65505337192E+01  0.50400000000E-02 0.  1.
          1   -1    0    0  501    0  0.00000000000E+00 -0.00000000000E+00 -0.33026848464E+03  0.33026848467E+03  0.50400000000E-02 0. -1.
         23    2    1    2    0    0  0.00000000000E+00  0.00000000000E+00 -0.32371795286E+03  0.33681901839E+03  0.93025470440E+02 0.  0.
    9000005    2    3    3    0    0 -0.46059699257E+02 -0.28584118215E+01 -0.17910891831E+03  0.18502494972E+03  0.49559040691E+01 0.  0.
         22    1    3    3    0    0  0.46059699257E+02  0.28584118215E+01 -0.14460903454E+03  0.15179406868E+03  0.00000000000E+00 0. -1.
         22    1    4    4    0    0 -0.15628609750E+01  0.26441405769E+00 -0.10337183950E+02  0.10458002737E+02  0.00000000000E+00 0. -1.
         22    1    4    4    0    0 -0.44496838282E+02 -0.31228258792E+01 -0.16877173436E+03  0.17456694698E+03  0.00000000000E+00 0. -1.
<mgrwt>
<rscale>  0 0.93025470E+02</rscale>
<asrwt>0</asrwt>
<pdfrwt beam="2">  1        1 0.50810523E-01 0.93025470E+02</pdfrwt>
<pdfrwt beam="1">  1       -1 0.10077745E-02 0.93025470E+02</pdfrwt>
<totfact> 0.12365638E+05</totfact>
</mgrwt>
</event>
<event>
 7    1  0.3301067E-009  0.8922123E+02  0.7818608E-02  0.1304749E+00
          1   -1    0    0  501    0  0.00000000000E+00  0.00000000000E+00  0.33384288928E+03  0.33384288932E+03  0.50400000000E-02 0. -1.
         -1   -1    0    0    0  501 -0.00000000000E+00 -0.00000000000E+00 -0.59612070016E+01  0.59612091322E+01  0.50400000000E-02 0.  1.
         23    2    1    2    0    0  0.35527136788E-14 -0.35527136788E-14  0.32788168228E+03  0.33980409845E+03  0.89221229256E+02 0.  0.
    9000005    2    3    3    0    0 -0.22454406566E+02  0.27944542175E+02  0.26502870685E+03  0.26744669156E+03  0.15554936324E+01 0.  0.
         22    1    3    3    0    0  0.22454406566E+02 -0.27944542175E+02  0.62852975426E+02  0.72357406887E+02  0.00000000000E+00 0.  1.
         22    1    4    4    0    0 -0.16856219112E+02  0.21517896385E+02  0.20617935443E+03  0.20798336035E+03  0.00000000000E+00 0. -1.
         22    1    4    4    0    0 -0.55981874542E+01  0.64266457898E+01  0.58849352421E+02  0.59463331215E+02  0.00000000000E+00 0. -1.
<mgrwt>
<rscale>  0 0.89221229E+02</rscale>
<asrwt>0</asrwt>
<pdfrwt beam="1">  1        1 0.51360469E-01 0.89221229E+02</pdfrwt>
<pdfrwt beam="2">  1       -1 0.91710851E-03 0.89221229E+02</pdfrwt>
<totfact> 0.13846008E+05</totfact>
</mgrwt>
</event>
<event>
 7    1  0.3301067E-009  0.9505434E+02  0.7818608E-02  0.1291054E+00
         -1   -1    0    0    0  501 -0.00000000000E+00  0.00000000000E+00  0.75355518295E+02  0.75355518463E+02  0.50400000000E-02 0.  1.
          1   -1    0    0  501    0  0.00000000000E+00 -0.00000000000E+00 -0.29975664085E+02  0.29975664509E+02  0.50400000000E-02 0. -1.
         23    2    1    2    0    0  0.00000000000E+00  0.00000000000E+00  0.45379854210E+02  0.10533118297E+03  0.95054336767E+02 0.  0.
    9000005    2    3    3    0    0  0.72104360787E+01 -0.11496599578E+02 -0.27518762349E+02  0.31180185092E+02  0.55461221444E+01 0.  0.
         22    1    3    3    0    0 -0.72104360787E+01  0.11496599578E+02  0.72898616559E+02  0.74150997880E+02  0.00000000000E+00 0.  1.
         22    1    4    4    0    0 -0.41492048200E+00 -0.17324349059E+01 -0.13777458807E+01  0.22520376154E+01  0.00000000000E+00 0.  1.
         22    1    4    4    0    0  0.76253565607E+01 -0.97641646718E+01 -0.26141016469E+02  0.28928147477E+02  0.00000000000E+00 0.  1.
<mgrwt>
<rscale>  0 0.95054337E+02</rscale>
<asrwt>0</asrwt>
<pdfrwt beam="2">  1        1 0.46116408E-02 0.95054337E+02</pdfrwt>
<pdfrwt beam="1">  1       -1 0.11593156E-01 0.95054337E+02</pdfrwt>
<totfact> 0.76859465E+04</totfact>
</mgrwt>
</event>
<event>
 7    1  0.3301067E-009  0.9354319E+02  0.7818608E-02  0.1294491E+00
         -1   -1    0    0    0  501 -0.00000000000E+00  0.00000000000E+00  0.36249825813E+01  0.36249860850E+01  0.50400000000E-02 0.  1.
          1   -1    0    0  501    0  0.00000000000E+00 -0.00000000000E+00 -0.60347352700E+03  0.60347352702E+03  0.50400000000E-02 0. -1.
         23    2    1    2    0    0  0.00000000000E+00 -0.71054273576E-14 -0.59984854442E+03  0.60709851310E+03  0.93543189888E+02 0.  0.
    9000005    2    3    3    0    0  0.13177827114E+02 -0.39919419635E+02 -0.42860399201E+03  0.43076952535E+03  0.96843593896E+01 0.  0.
         22    1    3    3    0    0 -0.13177827114E+02  0.39919419635E+02 -0.17124455241E+03  0.17632898775E+03  0.00000000000E+00 0.  1.
         22    1    4    4    0    0  0.10114146452E+02 -0.32410578043E+02 -0.37777584530E+03  0.37929847194E+03  0.00000000000E+00 0. -1.
         22    1    4    4    0    0  0.30636806620E+01 -0.75088415914E+01 -0.50828146709E+02  0.51471053410E+02  0.00000000000E+00 0. -1.
<mgrwt>
<rscale>  0 0.93543190E+02</rscale>
<asrwt>0</asrwt>
<pdfrwt beam="2">  1        1 0.92842001E-01 0.93543190E+02</pdfrwt>
<pdfrwt beam="1">  1       -1 0.55769038E-03 0.93543190E+02</pdfrwt>
<totfact> 0.13233537E+05</totfact>
</mgrwt>
</event>
<event>
 7    1  0.3301067E-009  0.9191593E+02  0.7818608E-02  0.1298277E+00
         -1   -1    0    0    0  501 -0.00000000000E+00  0.00000000000E+00  0.72875642813E+01  0.72875660241E+01  0.50400000000E-02 0.  1.
          1   -1    0    0  501    0  0.00000000000E+00 -0.00000000000E+00 -0.28982721152E+03  0.28982721157E+03  0.50400000000E-02 0. -1.
         23    2    1    2    0    0  0.00000000000E+00  0.00000000000E+00 -0.28253964724E+03  0.29711477759E+03  0.91915933327E+02 0.  0.
    9000005    2    3    3    0    0 -0.18673217080E+01 -0.23946270253E+02 -0.26782628653E+03  0.26894753184E+03  0.49944350922E+01 0.  0.
         22    1    3    3    0    0  0.18673217080E+01  0.23946270253E+02 -0.14713360716E+02  0.28167245746E+02  0.00000000000E+00 0.  1.
         22    1    4    4    0    0 -0.13574194993E+01 -0.61956665413E+01 -0.94943726828E+02  0.95155347383E+02  0.00000000000E+00 0. -1.
         22    1    4    4    0    0 -0.50990220874E+00 -0.17750603711E+02 -0.17288255970E+03  0.17379218446E+03  0.00000000000E+00 0. -1.
<mgrwt>
<rscale>  0 0.91915933E+02</rscale>
<asrwt>0</asrwt>
<pdfrwt beam="2">  1        1 0.44588793E-01 0.91915933E+02</pdfrwt>
<pdfrwt beam="1">  1       -1 0.11211641E-02 0.91915933E+02</pdfrwt>
<totfact> 0.12456526E+05</totfact>
</mgrwt>
</event>
<event>
 7    1  0.3301067E-009  0.9270311E+02  0.7818608E-02  0.1296435E+00
          1   -1    0    0  501    0  0.00000000000E+00  0.00000000000E+00  0.77769912451E+02  0.77769912614E+02  0.50400000000E-02 0. -1.
         -1   -1    0    0    0  501 -0.00000000000E+00 -0.00000000000E+00 -0.27625935465E+02  0.27625935924E+02  0.50400000000E-02 0.  1.
         23    2    1    2    0    0  0.35527136788E-14  0.35527136788E-14  0.50143976986E+02  0.10539584854E+03  0.92703109231E+02 0.  0.
    9000005    2    3    3    0    0 -0.27741728724E+02 -0.31388752196E+02  0.45403524824E+02  0.63237466646E+02  0.13514430967E+02 0.  0.
         22    1    3    3    0    0  0.27741728724E+02  0.31388752196E+02  0.47404521621E+01  0.42158381892E+02  0.00000000000E+00 0.  1.
         22    1    4    4    0    0 -0.58520384129E+01 -0.46941665468E+00  0.39226954087E+01  0.70607538444E+01  0.00000000000E+00 0.  1.
         22    1    4    4    0    0 -0.21889690311E+02 -0.30919335542E+02  0.41480829415E+02  0.56176712802E+02  0.00000000000E+00 0.  1.
<mgrwt>
<rscale>  0 0.92703109E+02</rscale>
<asrwt>0</asrwt>
<pdfrwt beam="1">  1        1 0.11964602E-01 0.92703109E+02</pdfrwt>
<pdfrwt beam="2">  1       -1 0.42501440E-02 0.92703109E+02</pdfrwt>
<totfact> 0.95815867E+04</totfact>
</mgrwt>
</event>
<event>
 7    1  0.3301067E-009  0.9082250E+02  0.7818608E-02  0.1300872E+00
         -1   -1    0    0    0  501 -0.00000000000E+00  0.00000000000E+00  0.51515660283E+02  0.51515660529E+02  0.50400000000E-02 0.  1.
          1   -1    0    0  501    0  0.00000000000E+00 -0.00000000000E+00 -0.40030192007E+02  0.40030192325E+02  0.50400000000E-02 0. -1.
         23    2    1    2    0    0  0.00000000000E+00  0.00000000000E+00  0.11485468276E+02  0.91545852854E+02  0.90822503782E+02 0.  0.
    9000005    2    3    3    0    0  0.26577235385E+02  0.47929542401E+01  0.41390697857E+02  0.51251379196E+02  0.13571740838E+02 0.  0.
         22    1    3    3    0    0 -0.26577235385E+02 -0.47929542401E+01 -0.29905229581E+02  0.40294473658E+02  0.00000000000E+00 0. -1.
         22    1    4    4    0    0 -0.11278673596E+01 -0.12924113712E+01  0.13574202349E+01  0.21874646574E+01  0.00000000000E+00 0. -1.
         22    1    4    4    0    0  0.27705102745E+02  0.60853656113E+01  0.40033277622E+02  0.49063914539E+02  0.00000000000E+00 0. -1.
<mgrwt>
<rscale>  0 0.90822504E+02</rscale>
<asrwt>0</asrwt>
<pdfrwt beam="2">  1        1 0.61584911E-02 0.90822504E+02</pdfrwt>
<pdfrwt beam="1">  1       -1 0.79254862E-02 0.90822504E+02</pdfrwt>
<totfact> 0.91676406E+04</totfact>
</mgrwt>
</event>
<event>
 7    1  0.3301067E-009  0.9064509E+02  0.7818608E-02  0.1301297E+00
         -1   -1    0    0    0  501 -0.00000000000E+00  0.00000000000E+00  0.80566664699E+01  0.80566680463E+01  0.50400000000E-02 0.  1.
          1   -1    0    0  501    0  0.00000000000E+00 -0.00000000000E+00 -0.25496062498E+03  0.25496062503E+03  0.50400000000E-02 0. -1.
         23    2    1    2    0    0  0.00000000000E+00  0.00000000000E+00 -0.24690395851E+03  0.26301729308E+03  0.90645086625E+02 0.  0.
    9000005    2    3    3    0    0 -0.96915572527E+01 -0.16267565549E+02 -0.24276179661E+03  0.24363386005E+03  0.80998701332E+01 0.  0.
         22    1    3    3    0    0  0.96915572527E+01  0.16267565549E+02 -0.41421618998E+01  0.19383433031E+02  0.00000000000E+00 0.  1.
         22    1    4    4    0    0  0.55256812830E+00 -0.34574051906E+01 -0.23499609407E+02  0.23759011437E+02  0.00000000000E+00 0.  1.
         22    1    4    4    0    0 -0.10244125381E+02 -0.12810160358E+02 -0.21926218721E+03  0.21987484861E+03  0.00000000000E+00 0.  1.
<mgrwt>
<rscale>  0 0.90645087E+02</rscale>
<asrwt>0</asrwt>
<pdfrwt beam="2">  1        1 0.39224705E-01 0.90645087E+02</pdfrwt>
<pdfrwt beam="1">  1       -1 0.12394875E-02 0.90645087E+02</pdfrwt>
<totfact> 0.12609700E+05</totfact>
</mgrwt>
</event>
<event>
 7    1  0.3301067E-009  0.9007915E+02  0.7818608E-02  0.1302660E+00
          1   -1    0    0  501    0  0.00000000000E+00  0.00000000000E+00  0.36905061633E+02  0.36905061977E+02  0.50400000000E-02 0. -1.
         -1   -1    0    0    0  501 -0.00000000000E+00 -0.00000000000E+00 -0.54967071857E+02  0.54967072088E+02  0.50400000000E-02 0.  1.
         23    2    1    2    0    0 -0.71054273576E-14  0.17763568394E-14 -0.18062010224E+02  0.91872134064E+02  0.90079147444E+02 0.  0.
    9000005    2    3    3    0    0 -0.39453094923E+02  0.15992889188E+02 -0.20012623026E+02  0.49256126580E+02  0.14606222021E+02 0.  0.
         22    1    3    3    0    0  0.39453094923E+02 -0.15992889188E+02  0.19506128022E+01  0.42616007484E+02  0.00000000000E+00 0. -1.
         22    1    4    4    0    0 -0.11773448059E+02  0.27590758043E+01  0.90046321330E+00  0.12125898420E+02  0.00000000000E+00 0. -1.
         22    1    4    4    0    0 -0.27679646864E+02  0.13233813383E+02 -0.20913086239E+02  0.37130228160E+02  0.00000000000E+00 0. -1.
<mgrwt>
<rscale>  0 0.90079147E+02</rscale>
<asrwt>0</asrwt>
<pdfrwt beam="1">  1        1 0.56777018E-02 0.90079147E+02</pdfrwt>
<pdfrwt beam="2">  1       -1 0.84564727E-02 0.90079147E+02</pdfrwt>
<totfact> 0.92679227E+04</totfact>
</mgrwt>
</event>
<event>
 7    1  0.3301067E-009  0.9256203E+02  0.7818608E-02  0.1296763E+00
          1   -1    0    0  501    0  0.00000000000E+00  0.00000000000E+00  0.26879054333E+02  0.26879054806E+02  0.50400000000E-02 0. -1.
         -1   -1    0    0    0  501 -0.00000000000E+00 -0.00000000000E+00 -0.79687777224E+02  0.79687777384E+02  0.50400000000E-02 0.  1.
         23    2    1    2    0    0  0.00000000000E+00  0.00000000000E+00 -0.52808722891E+02  0.10656683219E+03  0.92562025202E+02 0.  0.
    9000005    2    3    3    0    0  0.72675063857E+01  0.33191031795E+02 -0.62193456268E+02  0.71317229905E+02  0.79787240916E+01 0.  0.
         22    1    3    3    0    0 -0.72675063857E+01 -0.33191031795E+02  0.93847333767E+01  0.35249602285E+02  0.00000000000E+00 0. -1.
         22    1    4    4    0    0  0.10857705058E+00  0.37648530298E+01 -0.13132920843E+02  0.13662339375E+02  0.00000000000E+00 0. -1.
         22    1    4    4    0    0  0.71589293351E+01  0.29426178765E+02 -0.49060535424E+02  0.57654890530E+02  0.00000000000E+00 0. -1.
<mgrwt>
<rscale>  0 0.92562025E+02</rscale>
<asrwt>0</asrwt>
<pdfrwt beam="1">  1        1 0.41352392E-02 0.92562025E+02</pdfrwt>
<pdfrwt beam="2">  1       -1 0.12259658E-01 0.92562025E+02</pdfrwt>
<totfact> 0.81496085E+04</totfact>
</mgrwt>
</event>
<event>
 7    1  0.3301067E-009  0.8943607E+02  0.7818608E-02  0.1304223E+00
         -1   -1    0    0    0  501 -0.00000000000E+00  0.00000000000E+00  0.66050276282E+02  0.66050276475E+02  0.50400000000E-02 0.  1.
          1   -1    0    0  501    0  0.00000000000E+00 -0.00000000000E+00 -0.30275463024E+02  0.30275463444E+02  0.50400000000E-02 0. -1.
         23    2    1    2    0    0  0.00000000000E+00  0.00000000000E+00  0.35774813258E+02  0.96325739919E+02  0.89436071622E+02 0.  0.
    9000005    2    3    3    0    0  0.21682248561E+02 -0.40488471570E+01 -0.22906830296E+02  0.33635642166E+02  0.10959949076E+02 0.  0.
         22    1    3    3    0    0 -0.21682248561E+02  0.40488471570E+01  0.58681643554E+02  0.62690097752E+02  0.00000000000E+00 0.  1.
         22    1    4    4    0    0  0.11222262026E+02  0.30333226342E+01 -0.13905208361E+02  0.18124431874E+02  0.00000000000E+00 0. -1.
         22    1    4    4    0    0  0.10459986535E+02 -0.70821697913E+01 -0.90016219349E+01  0.15511210292E+02  0.00000000000E+00 0. -1.
<mgrwt>
<rscale>  0 0.89436072E+02</rscale>
<asrwt>0</asrwt>
<pdfrwt beam="2">  1        1 0.46577636E-02 0.89436072E+02</pdfrwt>
<pdfrwt beam="1">  1       -1 0.10161581E-01 0.89436072E+02</pdfrwt>
<totfact> 0.91735928E+04</totfact>
</mgrwt>
</event>
<event>
 7    1  0.3301067E-009  0.9393131E+02  0.7818608E-02  0.1293601E+00
         -1   -1    0    0    0  501 -0.00000000000E+00  0.00000000000E+00  0.51191619708E+02  0.51191619956E+02  0.50400000000E-02 0.  1.
          1   -1    0    0  501    0  0.00000000000E+00 -0.00000000000E+00 -0.43088548032E+02  0.43088548327E+02  0.50400000000E-02 0. -1.
         23    2    1    2    0    0  0.71054273576E-14 -0.17763568394E-14  0.81030716756E+01  0.94280168283E+02  0.93931306607E+02 0.  0.
    9000005    2    3    3    0    0 -0.38919160511E+02  0.12086649539E+02 -0.18508502844E+02  0.45608163492E+02  0.87608074794E+01 0.  0.
         22    1    3    3    0    0  0.38919160511E+02 -0.12086649539E+02  0.26611574520E+02  0.48672004791E+02  0.00000000000E+00 0.  1.
         22    1    4    4    0    0 -0.34199314743E+02  0.13405449771E+02 -0.17036357254E+02  0.40491192634E+02  0.00000000000E+00 0.  1.
         22    1    4    4    0    0 -0.47198457681E+01 -0.13188002326E+01 -0.14721455905E+01  0.51169708586E+01  0.00000000000E+00 0.  1.
<mgrwt>
<rscale>  0 0.93931307E+02</rscale>
<asrwt>0</asrwt>
<pdfrwt beam="2">  1        1 0.66290075E-02 0.93931307E+02</pdfrwt>
<pdfrwt beam="1">  1       -1 0.78756338E-02 0.93931307E+02</pdfrwt>
<totfact> 0.84298538E+04</totfact>
</mgrwt>
</event>
<event>
 7    1  0.3301067E-009  0.9128642E+02  0.7818608E-02  0.1299766E+00
         -1   -1    0    0    0  501 -0.00000000000E+00  0.00000000000E+00  0.30369924913E+01  0.30369966733E+01  0.50400000000E-02 0.  1.
          1   -1    0    0  501    0  0.00000000000E+00 -0.00000000000E+00 -0.68597515241E+03  0.68597515243E+03  0.50400000000E-02 0. -1.
         23    2    1    2    0    0  0.35527136788E-14  0.00000000000E+00 -0.68293815992E+03  0.68901214910E+03  0.91286424713E+02 0.  0.
    9000005    2    3    3    0    0  0.22655800300E+02  0.33834863130E+02 -0.49096077519E+03  0.49276383828E+03  0.10753338930E+02 0.  0.
         22    1    3    3    0    0 -0.22655800300E+02 -0.33834863130E+02 -0.19197738473E+03  0.19624831081E+03  0.00000000000E+00 0.  1.
         22    1    4    4    0    0  0.17215380246E+02  0.18723037665E+02 -0.25826135228E+03  0.25951078501E+03  0.00000000000E+00 0. -1.
         22    1    4    4    0    0  0.54404200546E+01  0.15111825465E+02 -0.23269942291E+03  0.23325305328E+03  0.00000000000E+00 0. -1.
<mgrwt>
<rscale>  0 0.91286425E+02</rscale>
<asrwt>0</asrwt>
<pdfrwt beam="2">  1        1 0.10553452E+00 0.91286425E+02</pdfrwt>
<pdfrwt beam="1">  1       -1 0.46723048E-03 0.91286425E+02</pdfrwt>
<totfact> 0.14173572E+05</totfact>
</mgrwt>
</event>
<event>
 7    1  0.3301067E-009  0.9122517E+02  0.7818608E-02  0.1299912E+00
         -1   -1    0    0    0  501 -0.00000000000E+00  0.00000000000E+00  0.40568811220E+02  0.40568811533E+02  0.50400000000E-02 0.  1.
          1   -1    0    0  501    0  0.00000000000E+00 -0.00000000000E+00 -0.51283433672E+02  0.51283433920E+02  0.50400000000E-02 0. -1.
         23    2    1    2    0    0  0.00000000000E+00  0.00000000000E+00 -0.10714622452E+02  0.91852245453E+02  0.91225171200E+02 0.  0.
    9000005    2    3    3    0    0 -0.26234007534E+02 -0.98006041559E+01 -0.40313034554E+02  0.51104963432E+02  0.14223274560E+02 0.  0.
         22    1    3    3    0    0  0.26234007534E+02  0.98006041559E+01  0.29598412102E+02  0.40747282021E+02  0.00000000000E+00 0.  1.
         22    1    4    4    0    0 -0.20218701418E+02 -0.79215765231E+01 -0.18914234601E+02  0.28797491769E+02  0.00000000000E+00 0.  1.
         22    1    4    4    0    0 -0.60153061159E+01 -0.18790276328E+01 -0.21398799954E+02  0.22307471662E+02  0.00000000000E+00 0.  1.
<mgrwt>
<rscale>  0 0.91225171E+02</rscale>
<asrwt>0</asrwt>
<pdfrwt beam="2">  1        1 0.78897591E-02 0.91225171E+02</pdfrwt>
<pdfrwt beam="1">  1       -1 0.62413556E-02 0.91225171E+02</pdfrwt>
<totfact> 0.93981972E+04</totfact>
</mgrwt>
</event>
<event>
 7    1  0.3301067E-009  0.8458204E+02  0.7818608E-02  0.1316529E+00
         -1   -1    0    0    0  501 -0.00000000000E+00  0.00000000000E+00  0.88382673586E+02  0.88382673730E+02  0.50400000000E-02 0. -1.
          1   -1    0    0  501    0  0.00000000000E+00 -0.00000000000E+00 -0.20236210203E+02  0.20236210831E+02  0.50400000000E-02 0.  1.
         23    2    1    2    0    0 -0.17763568394E-14  0.22204460493E-15  0.68146463383E+02  0.10861888456E+03  0.84582040715E+02 0.  0.
    9000005    2    3    3    0    0  0.14784724869E+02  0.14145942243E+01 -0.16471209456E+02  0.22707652915E+02  0.48731502832E+01 0.  0.
         22    1    3    3    0    0 -0.14784724869E+02 -0.14145942243E+01  0.84617672839E+02  0.85911231646E+02  0.00000000000E+00 0. -1.
         22    1    4    4    0    0  0.13809630001E+02  0.21387235447E+01 -0.16317337289E+02  0.21483377653E+02  0.00000000000E+00 0.  1.
         22    1    4    4    0    0  0.97509486720E+00 -0.72412932039E+00 -0.15387216726E+00  0.12242752618E+01  0.00000000000E+00 0.  1.
<mgrwt>
<rscale>  0 0.84582041E+02</rscale>
<asrwt>0</asrwt>
<pdfrwt beam="2">  1        1 0.31132632E-02 0.84582041E+02</pdfrwt>
<pdfrwt beam="1">  1       -1 0.13597335E-01 0.84582041E+02</pdfrwt>
<totfact> 0.10085845E+05</totfact>
</mgrwt>
</event>
<event>
 7    1  0.3301067E-009  0.1167222E+03  0.7818608E-02  0.1248604E+00
          1   -1    0    0  501    0  0.00000000000E+00  0.00000000000E+00  0.91482867375E+03  0.91482867376E+03  0.50400000000E-02 0. -1.
         -1   -1    0    0    0  501 -0.00000000000E+00 -0.00000000000E+00 -0.37231198153E+01  0.37231232266E+01  0.50400000000E-02 0.  1.
         23    2    1    2    0    0  0.00000000000E+00  0.35527136788E-14  0.91110555394E+03  0.91855179699E+03  0.11672220587E+03 0.  0.
    9000005    2    3    3    0    0 -0.15126108065E+02 -0.31804157605E+02  0.82109968521E+03  0.82190108571E+03  0.87405980115E+01 0.  0.
         22    1    3    3    0    0  0.15126108065E+02  0.31804157605E+02  0.90005868730E+02  0.96650711286E+02  0.00000000000E+00 0.  1.
         22    1    4    4    0    0 -0.92500771554E+01 -0.16547782517E+02  0.34465855671E+03  0.34517953843E+03  0.00000000000E+00 0. -1.
         22    1    4    4    0    0 -0.58760309095E+01 -0.15256375088E+02  0.47644112849E+03  0.47672154728E+03  0.00000000000E+00 0. -1.
<mgrwt>
<rscale>  0 0.11672221E+03</rscale>
<asrwt>0</asrwt>
<pdfrwt beam="1">  1        1 0.14074304E+00 0.11672221E+03</pdfrwt>
<pdfrwt beam="2">  1       -1 0.57278727E-03 0.11672221E+03</pdfrwt>
<totfact> 0.71682135E+04</totfact>
</mgrwt>
</event>
<event>
 7    1  0.3301067E-009  0.8919615E+02  0.7818608E-02  0.1304810E+00
         -1   -1    0    0    0  501 -0.00000000000E+00  0.00000000000E+00  0.23790944193E+02  0.23790944727E+02  0.50400000000E-02 0.  1.
          1   -1    0    0  501    0  0.00000000000E+00 -0.00000000000E+00 -0.83602749385E+02  0.83602749537E+02  0.50400000000E-02 0. -1.
         23    2    1    2    0    0  0.35527136788E-14  0.35527136788E-14 -0.59811805191E+02  0.10739369426E+03  0.89196151976E+02 0.  0.
    9000005    2    3    3    0    0 -0.31295422342E+02 -0.25636728731E+02 -0.74375513484E+01  0.41214333545E+02  0.25804650636E+01 0.  0.
         22    1    3    3    0    0  0.31295422342E+02  0.25636728731E+02 -0.52374253843E+02  0.66179360719E+02  0.00000000000E+00 0. -1.
         22    1    4    4    0    0 -0.13251402640E+02 -0.12433382890E+02 -0.37371214799E+01  0.18551408544E+02  0.00000000000E+00 0. -1.
         22    1    4    4    0    0 -0.18044019702E+02 -0.13203345841E+02 -0.37004298685E+01  0.22662925001E+02  0.00000000000E+00 0. -1.
<mgrwt>
<rscale>  0 0.89196152E+02</rscale>
<asrwt>0</asrwt>
<pdfrwt beam="2">  1        1 0.12861961E-01 0.89196152E+02</pdfrwt>
<pdfrwt beam="1">  1       -1 0.36601454E-02 0.89196152E+02</pdfrwt>
<totfact> 0.10772998E+05</totfact>
</mgrwt>
</event>
<event>
 7    1  0.3301067E-009  0.1140610E+03  0.7818608E-02  0.1253229E+00
          1   -1    0    0  501    0  0.00000000000E+00  0.00000000000E+00  0.10296125502E+03  0.10296125514E+03  0.50400000000E-02 0. -1.
         -1   -1    0    0    0  501 -0.00000000000E+00 -0.00000000000E+00 -0.31589365672E+02  0.31589366074E+02  0.50400000000E-02 0.  1.
         23    2    1    2    0    0  0.00000000000E+00 -0.71054273576E-14  0.71371889348E+02  0.13455062122E+03  0.11406104980E+03 0.  0.
    9000005    2    3    3    0    0  0.16858990322E+02  0.52149513844E+02  0.52783939523E+02  0.76677404376E+02  0.94595307256E+01 0.  0.
         22    1    3    3    0    0 -0.16858990322E+02 -0.52149513844E+02  0.18587949825E+02  0.57873216841E+02  0.00000000000E+00 0.  1.
         22    1    4    4    0    0  0.15846271430E+02  0.51011195728E+02  0.48568942138E+02  0.72195488420E+02  0.00000000000E+00 0.  1.
         22    1    4    4    0    0  0.10127188920E+01  0.11383181161E+01  0.42149973845E+01  0.44819159562E+01  0.00000000000E+00 0.  1.
<mgrwt>
<rscale>  0 0.11406105E+03</rscale>
<asrwt>0</asrwt>
<pdfrwt beam="1">  1        1 0.15840193E-01 0.11406105E+03</pdfrwt>
<pdfrwt beam="2">  1       -1 0.48599024E-02 0.11406105E+03</pdfrwt>
<totfact> 0.56497193E+04</totfact>
</mgrwt>
</event>
<event>
 7    1  0.3301067E-009  0.9105923E+02  0.7818608E-02  0.1300307E+00
          1   -1    0    0  501    0  0.00000000000E+00  0.00000000000E+00  0.12741133463E+04  0.12741133463E+04  0.50400000000E-02 0. -1.
         -1   -1    0    0    0  501 -0.00000000000E+00 -0.00000000000E+00 -0.16269672510E+01  0.16269750574E+01  0.50400000000E-02 0.  1.
         23    2    1    2    0    0  0.00000000000E+00  0.00000000000E+00  0.12724863790E+04  0.12757403214E+04  0.91059226317E+02 0.  0.
    9000005    2    3    3    0    0 -0.53004190345E+01 -0.20899515294E+02  0.11952439462E+04  0.11955450746E+04  0.15970289332E+02 0.  0.
         22    1    3    3    0    0  0.53004190345E+01  0.20899515294E+02  0.77242432811E+02  0.80195246792E+02  0.00000000000E+00 0.  1.
         22    1    4    4    0    0  0.34557040382E+01  0.62887732141E+00  0.19039655842E+03  0.19042895482E+03  0.00000000000E+00 0. -1.
         22    1    4    4    0    0 -0.87561230727E+01 -0.21528392616E+02  0.10048473878E+04  0.10051161198E+04  0.00000000000E+00 0. -1.
<mgrwt>
<rscale>  0 0.91059226E+02</rscale>
<asrwt>0</asrwt>
<pdfrwt beam="1">  1        1 0.19601794E+00 0.91059226E+02</pdfrwt>
<pdfrwt beam="2">  1       -1 0.25030261E-03 0.91059226E+02</pdfrwt>
<totfact> 0.12388848E+05</totfact>
</mgrwt>
</event>
<event>
 7    1  0.3301067E-009  0.9010037E+02  0.7818608E-02  0.1302609E+00
          1   -1    0    0  501    0  0.00000000000E+00  0.00000000000E+00  0.89722411142E+02  0.89722411284E+02  0.50400000000E-02 0. -1.
         -1   -1    0    0    0  501 -0.00000000000E+00 -0.00000000000E+00 -0.22619978176E+02  0.22619978738E+02  0.50400000000E-02 0.  1.
         23    2    1    2    0    0  0.00000000000E+00  0.00000000000E+00  0.67102432966E+02  0.11234239002E+03  0.90100366735E+02 0.  0.
    9000005    2    3    3    0    0  0.19161541012E+02  0.24953030913E+02 -0.61079648431E+01  0.32658133401E+02  0.62791748695E+01 0.  0.
         22    1    3    3    0    0 -0.19161541012E+02 -0.24953030913E+02  0.73210397809E+02  0.79684256620E+02  0.00000000000E+00 0. -1.
         22    1    4    4    0    0  0.51740100234E+00  0.34692541778E+01  0.22919057161E+00  0.35151040761E+01  0.00000000000E+00 0. -1.
         22    1    4    4    0    0  0.18644140010E+02  0.21483776735E+02 -0.63371554147E+01  0.29143029325E+02  0.00000000000E+00 0. -1.
<mgrwt>
<rscale>  0 0.90100367E+02</rscale>
<asrwt>0</asrwt>
<pdfrwt beam="1">  1        1 0.13803448E-01 0.90100367E+02</pdfrwt>
<pdfrwt beam="2">  1       -1 0.34799967E-02 0.90100367E+02</pdfrwt>
<totfact> 0.10599134E+05</totfact>
</mgrwt>
</event>
<event>
 7    1  0.3301067E-009  0.9020291E+02  0.7818608E-02  0.1302361E+00
         -1   -1    0    0    0  501 -0.00000000000E+00  0.00000000000E+00  0.56785647037E+02  0.56785647261E+02  0.50400000000E-02 0.  1.
          1   -1    0    0  501    0  0.00000000000E+00 -0.00000000000E+00 -0.35821400668E+02  0.35821401022E+02  0.50400000000E-02 0. -1.
         23    2    1    2    0    0  0.88817841970E-15 -0.17763568394E-14  0.20964246370E+02  0.92607048283E+02  0.90202914398E+02 0.  0.
    9000005    2    3    3    0    0 -0.45474597582E+01  0.13843498338E+02 -0.32344194767E+02  0.37343029854E+02  0.11663323159E+02 0.  0.
         22    1    3    3    0    0  0.45474597582E+01 -0.13843498338E+02  0.53308441136E+02  0.55264018429E+02  0.00000000000E+00 0.  1.
         22    1    4    4    0    0 -0.70321405619E+01  0.13929396946E+02 -0.30457960176E+02  0.34222309072E+02  0.00000000000E+00 0.  1.
         22    1    4    4    0    0  0.24846808036E+01 -0.85898608358E-01 -0.18862345908E+01  0.31207207819E+01  0.00000000000E+00 0.  1.
<mgrwt>
<rscale>  0 0.90202914E+02</rscale>
<asrwt>0</asrwt>
<pdfrwt beam="2">  1        1 0.55109848E-02 0.90202914E+02</pdfrwt>
<pdfrwt beam="1">  1       -1 0.87362534E-02 0.90202914E+02</pdfrwt>
<totfact> 0.91901344E+04</totfact>
</mgrwt>
</event>
<event>
 7    1  0.3301067E-009  0.8927026E+02  0.7818608E-02  0.1304629E+00
          1   -1    0    0  501    0  0.00000000000E+00  0.00000000000E+00  0.67210938484E+03  0.67210938486E+03  0.50400000000E-02 0. -1.
         -1   -1    0    0    0  501 -0.00000000000E+00 -0.00000000000E+00 -0.29642396795E+01  0.29642439641E+01  0.50400000000E-02 0.  1.
         23    2    1    2    0    0  0.00000000000E+00  0.00000000000E+00  0.66914514516E+03  0.67507362882E+03  0.89270258431E+02 0.  0.
    9000005    2    3    3    0    0 -0.11777106692E+02 -0.39099126522E+02  0.46717330378E+03  0.46901522291E+03  0.75459671209E+01 0.  0.
         22    1    3    3    0    0  0.11777106692E+02  0.39099126522E+02  0.20197184138E+03  0.20605840591E+03  0.00000000000E+00 0.  1.
         22    1    4    4    0    0 -0.55471028319E+01 -0.29927937571E+02  0.34104261743E+03  0.34239818735E+03  0.00000000000E+00 0.  1.
         22    1    4    4    0    0 -0.62300038605E+01 -0.91711889504E+01  0.12613068635E+03  0.12661703556E+03  0.00000000000E+00 0.  1.
<mgrwt>
<rscale>  0 0.89270258E+02</rscale>
<asrwt>0</asrwt>
<pdfrwt beam="1">  1        1 0.10340148E+00 0.89270258E+02</pdfrwt>
<pdfrwt beam="2">  1       -1 0.45603706E-03 0.89270258E+02</pdfrwt>
<totfact> 0.15033387E+05</totfact>
</mgrwt>
</event>
<event>
 7    1  0.3301067E-009  0.9350562E+02  0.7818608E-02  0.1294578E+00
         -1   -1    0    0    0  501 -0.00000000000E+00  0.00000000000E+00  0.27482977982E+01  0.27483024196E+01  0.50400000000E-02 0.  1.
          1   -1    0    0  501    0  0.00000000000E+00 -0.00000000000E+00 -0.79533722387E+03  0.79533722388E+03  0.50400000000E-02 0. -1.
         23    2    1    2    0    0  0.00000000000E+00  0.35527136788E-14 -0.79258892607E+03  0.79808552630E+03  0.93505623182E+02 0.  0.
    9000005    2    3    3    0    0 -0.45025988561E+01 -0.30378104211E+02 -0.69439069471E+03  0.69519726043E+03  0.13330093771E+02 0.  0.
         22    1    3    3    0    0  0.45025988561E+01  0.30378104211E+02 -0.98198231356E+02  0.10288826587E+03  0.00000000000E+00 0.  1.
         22    1    4    4    0    0  0.40959076483E+01 -0.47268695464E+01 -0.10519566689E+03  0.10538144091E+03  0.00000000000E+00 0.  1.
         22    1    4    4    0    0 -0.85985065044E+01 -0.25651234664E+02 -0.58919502782E+03  0.58981581953E+03  0.00000000000E+00 0.  1.
<mgrwt>
<rscale>  0 0.93505623E+02</rscale>
<asrwt>0</asrwt>
<pdfrwt beam="2">  1        1 0.12235939E+00 0.93505623E+02</pdfrwt>
<pdfrwt beam="1">  1       -1 0.42281604E-03 0.93505623E+02</pdfrwt>
<totfact> 0.13223890E+05</totfact>
</mgrwt>
</event>
<event>
 7    1  0.3301067E-009  0.9085899E+02  0.7818608E-02  0.1300785E+00
         -1   -1    0    0    0  501 -0.00000000000E+00  0.00000000000E+00  0.60989171781E+01  0.60989192605E+01  0.50400000000E-02 0. -1.
          1   -1    0    0  501    0  0.00000000000E+00 -0.00000000000E+00 -0.33839424249E+03  0.33839424253E+03  0.50400000000E-02 0.  1.
         23    2    1    2    0    0 -0.35527136788E-14  0.00000000000E+00 -0.33229532532E+03  0.34449316179E+03  0.90858985767E+02 0.  0.
    9000005    2    3    3    0    0 -0.27997543563E+02 -0.34677506497E+02 -0.17206839129E+03  0.17818302292E+03  0.12460596912E+02 0.  0.
         22    1    3    3    0    0  0.27997543563E+02  0.34677506497E+02 -0.16022693403E+03  0.16631013887E+03  0.00000000000E+00 0.  1.
         22    1    4    4    0    0 -0.38538403946E+01 -0.13718462823E+02 -0.49055004342E+02  0.51082695299E+02  0.00000000000E+00 0.  1.
         22    1    4    4    0    0 -0.24143703168E+02 -0.20959043674E+02 -0.12301338695E+03  0.12710032763E+03  0.00000000000E+00 0.  1.
<mgrwt>
<rscale>  0 0.90858986E+02</rscale>
<asrwt>0</asrwt>
<pdfrwt beam="2">  1        1 0.52060638E-01 0.90858986E+02</pdfrwt>
<pdfrwt beam="1">  1       -1 0.93829538E-03 0.90858986E+02</pdfrwt>
<totfact> 0.13225650E+05</totfact>
</mgrwt>
</event>
<event>
 7    1  0.3301067E-009  0.9203018E+02  0.7818608E-02  0.1298008E+00
          1   -1    0    0  501    0  0.00000000000E+00  0.00000000000E+00  0.17570267633E+03  0.17570267641E+03  0.50400000000E-02 0. -1.
         -1   -1    0    0    0  501 -0.00000000000E+00 -0.00000000000E+00 -0.12050973836E+02  0.12050974890E+02  0.50400000000E-02 0.  1.
         23    2    1    2    0    0 -0.44408920985E-15  0.00000000000E+00  0.16365170250E+03  0.18775365130E+03  0.92030178988E+02 0.  0.
    9000005    2    3    3    0    0 -0.30308857709E+01 -0.16929732969E+02  0.16855649161E+03  0.16986904666E+03  0.12181954737E+02 0.  0.
         22    1    3    3    0    0  0.30308857709E+01  0.16929732969E+02 -0.49047891105E+01  0.17884604641E+02  0.00000000000E+00 0.  1.
         22    1    4    4    0    0 -0.28235402948E+00 -0.17978019848E+02  0.15115925212E+03  0.15222486139E+03  0.00000000000E+00 0.  1.
         22    1    4    4    0    0 -0.27485317414E+01  0.10482868791E+01  0.17397239485E+02  0.17644185269E+02  0.00000000000E+00 0.  1.
<mgrwt>
<rscale>  0 0.92030179E+02</rscale>
<asrwt>0</asrwt>
<pdfrwt beam="1">  1        1 0.27031178E-01 0.92030179E+02</pdfrwt>
<pdfrwt beam="2">  1       -1 0.18539963E-02 0.92030179E+02</pdfrwt>
<totfact> 0.11263259E+05</totfact>
</mgrwt>
</event>
<event>
 7    1  0.3301067E-009  0.9181419E+02  0.7818608E-02  0.1298517E+00
         -1   -1    0    0    0  501 -0.00000000000E+00  0.00000000000E+00  0.98537223278E+02  0.98537223407E+02  0.50400000000E-02 0.  1.
          1   -1    0    0  501    0  0.00000000000E+00 -0.00000000000E+00 -0.21387465612E+02  0.21387466206E+02  0.50400000000E-02 0. -1.
         23    2    1    2    0    0  0.52041704279E-16  0.00000000000E+00  0.77149757666E+02  0.11992468961E+03  0.91814193188E+02 0.  0.
    9000005    2    3    3    0    0  0.21507911716E-01  0.42373091134E+02  0.19799076846E+02  0.48618449315E+02  0.13276703468E+02 0.  0.
         22    1    3    3    0    0 -0.21507911716E-01 -0.42373091134E+02  0.57350680821E+02  0.71306240298E+02  0.00000000000E+00 0.  1.
         22    1    4    4    0    0 -0.72903755931E+00  0.13396932300E+02 -0.17338851236E+00  0.13417874437E+02  0.00000000000E+00 0.  1.
         22    1    4    4    0    0  0.75054547102E+00  0.28976158834E+02  0.19972465358E+02  0.35200574878E+02  0.00000000000E+00 0.  1.
<mgrwt>
<rscale>  0 0.91814193E+02</rscale>
<asrwt>0</asrwt>
<pdfrwt beam="2">  1        1 0.32903794E-02 0.91814193E+02</pdfrwt>
<pdfrwt beam="1">  1       -1 0.15159573E-01 0.91814193E+02</pdfrwt>
<totfact> 0.80141366E+04</totfact>
</mgrwt>
</event>
<event>
 7    1  0.3301067E-009  0.9553498E+02  0.7818608E-02  0.1289976E+00
          1   -1    0    0  501    0  0.00000000000E+00  0.00000000000E+00  0.22811811389E+02  0.22811811946E+02  0.50400000000E-02 0. -1.
         -1   -1    0    0    0  501 -0.00000000000E+00 -0.00000000000E+00 -0.10002418708E+03  0.10002418721E+03  0.50400000000E-02 0.  1.
         23    2    1    2    0    0 -0.71054273576E-14  0.00000000000E+00 -0.77212375691E+02  0.12283599915E+03  0.95534976464E+02 0.  0.
    9000005    2    3    3    0    0 -0.33737792748E+02  0.15680744722E+02 -0.75957900027E+02  0.85611032749E+02  0.13248469243E+02 0.  0.
         22    1    3    3    0    0  0.33737792748E+02 -0.15680744722E+02 -0.12544756640E+01  0.37224966403E+02  0.00000000000E+00 0. -1.
         22    1    4    4    0    0 -0.23581242780E+02  0.64048751172E+01 -0.37417721533E+02  0.44689857026E+02  0.00000000000E+00 0.  1.
         22    1    4    4    0    0 -0.10156549968E+02  0.92758696050E+01 -0.38540178494E+02  0.40921175723E+02  0.00000000000E+00 0.  1.
<mgrwt>
<rscale>  0 0.95534976E+02</rscale>
<asrwt>0</asrwt>
<pdfrwt beam="1">  1        1 0.35095095E-02 0.95534976E+02</pdfrwt>
<pdfrwt beam="2">  1       -1 0.15388336E-01 0.95534976E+02</pdfrwt>
<totfact> 0.72135066E+04</totfact>
</mgrwt>
</event>
<event>
 7    1  0.3301067E-009  0.8655862E+02  0.7818608E-02  0.1311406E+00
          1   -1    0    0  501    0  0.00000000000E+00  0.00000000000E+00  0.12190150825E+02  0.12190151867E+02  0.50400000000E-02 0. -1.
         -1   -1    0    0    0  501 -0.00000000000E+00 -0.00000000000E+00 -0.15365670673E+03  0.15365670682E+03  0.50400000000E-02 0.  1.
         23    2    1    2    0    0  0.00000000000E+00 -0.35527136788E-14 -0.14146655591E+03  0.16584685868E+03  0.86558616525E+02 0.  0.
    9000005    2    3    3    0    0 -0.13922937343E+02 -0.21513303180E+02 -0.13725171685E+03  0.13987696715E+03  0.84179429636E+01 0.  0.
         22    1    3    3    0    0  0.13922937343E+02  0.21513303180E+02 -0.42148390621E+01  0.25969891534E+02  0.00000000000E+00 0. -1.
         22    1    4    4    0    0 -0.57820531202E+01 -0.74622577800E+01 -0.72865545060E+02  0.73474519980E+02  0.00000000000E+00 0. -1.
         22    1    4    4    0    0 -0.81408842226E+01 -0.14051045400E+02 -0.64386171787E+02  0.66402447169E+02  0.00000000000E+00 0. -1.
<mgrwt>
<rscale>  0 0.86558617E+02</rscale>
<asrwt>0</asrwt>
<pdfrwt beam="1">  1        1 0.18754080E-02 0.86558617E+02</pdfrwt>
<pdfrwt beam="2">  1       -1 0.23639492E-01 0.86558617E+02</pdfrwt>
<totfact> 0.85085093E+04</totfact>
</mgrwt>
</event>
<event>
 7    1  0.3301067E-009  0.9014723E+02  0.7818608E-02  0.1302496E+00
          1   -1    0    0  501    0  0.00000000000E+00  0.00000000000E+00  0.66153832081E+02  0.66153832273E+02  0.50400000000E-02 0. -1.
         -1   -1    0    0    0  501 -0.00000000000E+00 -0.00000000000E+00 -0.30710702793E+02  0.30710703206E+02  0.50400000000E-02 0.  1.
         23    2    1    2    0    0 -0.71054273576E-14  0.00000000000E+00  0.35443129288E+02  0.96864535479E+02  0.90147228576E+02 0.  0.
    9000005    2    3    3    0    0  0.37691398471E+02 -0.14145066766E+02  0.38533896360E+02  0.56487843271E+02  0.92353037957E+01 0.  0.
         22    1    3    3    0    0 -0.37691398471E+02  0.14145066766E+02 -0.30907670721E+01  0.40376692208E+02  0.00000000000E+00 0.  1.
         22    1    4    4    0    0  0.35243186095E+02 -0.11001243410E+02  0.36845240303E+02  0.52160150073E+02  0.00000000000E+00 0.  1.
         22    1    4    4    0    0  0.24482123767E+01 -0.31438233565E+01  0.16886560572E+01  0.43276931982E+01  0.00000000000E+00 0.  1.
<mgrwt>
<rscale>  0 0.90147229E+02</rscale>
<asrwt>0</asrwt>
<pdfrwt beam="1">  1        1 0.10177513E-01 0.90147229E+02</pdfrwt>
<pdfrwt beam="2">  1       -1 0.47247235E-02 0.90147229E+02</pdfrwt>
<totfact> 0.10092732E+05</totfact>
</mgrwt>
</event>
<event>
 7    1  0.3301067E-009  0.1214460E+03  0.7818608E-02  0.1240730E+00
          1   -1    0    0  501    0  0.00000000000E+00  0.00000000000E+00  0.19799189037E+02  0.19799189678E+02  0.50400000000E-02 0. -1.
         -1   -1    0    0    0  501 -0.00000000000E+00 -0.00000000000E+00 -0.18623404245E+03  0.18623404252E+03  0.50400000000E-02 0.  1.
         23    2    1    2    0    0  0.00000000000E+00  0.00000000000E+00 -0.16643485342E+03  0.20603323220E+03  0.12144600586E+03 0.  0.
    9000005    2    3    3    0    0 -0.17026343967E+02 -0.56991441314E+02 -0.70245620294E+02  0.92939070809E+02  0.12857019114E+02 0.  0.
         22    1    3    3    0    0  0.17026343967E+02  0.56991441314E+02 -0.96189233122E+02  0.11309416139E+03  0.00000000000E+00 0.  1.
         22    1    4    4    0    0 -0.82057109433E+01 -0.43628474879E+02 -0.46398450738E+02  0.64215214266E+02  0.00000000000E+00 0.  1.
         22    1    4    4    0    0 -0.88206330236E+01 -0.13362966435E+02 -0.23847169557E+02  0.28723856543E+02  0.00000000000E+00 0.  1.
<mgrwt>
<rscale>  0 0.12144601E+03</rscale>
<asrwt>0</asrwt>
<pdfrwt beam="1">  1        1 0.30460293E-02 0.12144601E+03</pdfrwt>
<pdfrwt beam="2">  1       -1 0.28651390E-01 0.12144601E+03</pdfrwt>
<totfact> 0.33391975E+04</totfact>
</mgrwt>
</event>
<event>
 7    1  0.3301067E-009  0.8841212E+02  0.7818608E-02  0.1306743E+00
         -1   -1    0    0    0  501 -0.00000000000E+00  0.00000000000E+00  0.71600385422E+01  0.71600403161E+01  0.50400000000E-02 0.  1.
          1   -1    0    0  501    0  0.00000000000E+00 -0.00000000000E+00 -0.27292809577E+03  0.27292809582E+03  0.50400000000E-02 0. -1.
         23    2    1    2    0    0  0.00000000000E+00  0.00000000000E+00 -0.26576805723E+03  0.28008813613E+03  0.88412124506E+02 0.  0.
    9000005    2    3    3    0    0  0.22060017265E+02  0.48054168611E+01 -0.25231204453E+03  0.25380504897E+03  0.15681156765E+02 0.  0.
         22    1    3    3    0    0 -0.22060017265E+02 -0.48054168611E+01 -0.13456012703E+02  0.26283087163E+02  0.00000000000E+00 0.  1.
         22    1    4    4    0    0  0.22080098312E+02 -0.42048225386E+00 -0.19160765644E+03  0.19287613008E+03  0.00000000000E+00 0.  1.
         22    1    4    4    0    0 -0.20081047147E-01  0.52258991150E+01 -0.60704388087E+02  0.60928918896E+02  0.00000000000E+00 0.  1.
<mgrwt>
<rscale>  0 0.88412125E+02</rscale>
<asrwt>0</asrwt>
<pdfrwt beam="2">  1        1 0.41988930E-01 0.88412125E+02</pdfrwt>
<pdfrwt beam="1">  1       -1 0.11015447E-02 0.88412125E+02</pdfrwt>
<totfact> 0.13655385E+05</totfact>
</mgrwt>
</event>
<event>
 7    1  0.3301067E-009  0.9293555E+02  0.7818608E-02  0.1295895E+00
          1   -1    0    0  501    0  0.00000000000E+00  0.00000000000E+00  0.64577595810E+02  0.64577596006E+02  0.50400000000E-02 0. -1.
         -1   -1    0    0    0  501 -0.00000000000E+00 -0.00000000000E+00 -0.33436582553E+02  0.33436582933E+02  0.50400000000E-02 0.  1.
         23    2    1    2    0    0  0.00000000000E+00  0.00000000000E+00  0.31141013256E+02  0.98014178940E+02  0.92935550607E+02 0.  0.
    9000005    2    3    3    0    0 -0.32044538764E+02  0.18099626224E+02 -0.11648568907E+02  0.41574855097E+02  0.15437955977E+02 0.  0.
         22    1    3    3    0    0  0.32044538764E+02 -0.18099626224E+02  0.42789582164E+02  0.56439323842E+02  0.00000000000E+00 0. -1.
         22    1    4    4    0    0 -0.19724567999E+02  0.48860272228E+01 -0.46224885348E+00  0.20325981373E+02  0.00000000000E+00 0.  1.
         22    1    4    4    0    0 -0.12319970765E+02  0.13213599002E+02 -0.11186320054E+02  0.21248873725E+02  0.00000000000E+00 0.  1.
<mgrwt>
<rscale>  0 0.92935551E+02</rscale>
<asrwt>0</asrwt>
<pdfrwt beam="1">  1        1 0.99350147E-02 0.92935551E+02</pdfrwt>
<pdfrwt beam="2">  1       -1 0.51440897E-02 0.92935551E+02</pdfrwt>
<totfact> 0.92426070E+04</totfact>
</mgrwt>
</event>
<event>
 7    1  0.3301067E-009  0.9084543E+02  0.7818608E-02  0.1300817E+00
          1   -1    0    0  501    0  0.00000000000E+00  0.00000000000E+00  0.18288113449E+03  0.18288113456E+03  0.50400000000E-02 0. -1.
         -1   -1    0    0    0  501 -0.00000000000E+00 -0.00000000000E+00 -0.11281770383E+02  0.11281771509E+02  0.50400000000E-02 0.  1.
         23    2    1    2    0    0  0.35527136788E-14  0.00000000000E+00  0.17159936411E+03  0.19416290607E+03  0.90845430989E+02 0.  0.
    9000005    2    3    3    0    0  0.16060770963E+02  0.41657214896E+02  0.70634673129E+02  0.83767522375E+02  0.58710169377E+01 0.  0.
         22    1    3    3    0    0 -0.16060770963E+02 -0.41657214896E+02  0.10096469098E+03  0.11039538370E+03  0.00000000000E+00 0.  1.
         22    1    4    4    0    0  0.82398037735E+01  0.19565320497E+02  0.38919889588E+02  0.44333440403E+02  0.00000000000E+00 0. -1.
         22    1    4    4    0    0  0.78209671900E+01  0.22091894399E+02  0.31714783541E+02  0.39434081972E+02  0.00000000000E+00 0. -1.
<mgrwt>
<rscale>  0 0.90845431E+02</rscale>
<asrwt>0</asrwt>
<pdfrwt beam="1">  1        1 0.28135560E-01 0.90845431E+02</pdfrwt>
<pdfrwt beam="2">  1       -1 0.17356570E-02 0.90845431E+02</pdfrwt>
<totfact> 0.11752321E+05</totfact>
</mgrwt>
</event>
<event>
 7    1  0.3301067E-009  0.8985883E+02  0.7818608E-02  0.1303194E+00
          1   -1    0    0  501    0  0.00000000000E+00  0.00000000000E+00  0.67495542745E+01  0.67495561562E+01  0.50400000000E-02 0. -1.
         -1   -1    0    0    0  501 -0.00000000000E+00 -0.00000000000E+00 -0.29907931616E+03  0.29907931620E+03  0.50400000000E-02 0.  1.
         23    2    1    2    0    0  0.00000000000E+00 -0.71054273576E-14 -0.29232976188E+03  0.30582887235E+03  0.89858830863E+02 0.  0.
    9000005    2    3    3    0    0 -0.10650584115E+02 -0.42842351150E+02 -0.12146232478E+03  0.12935059308E+03  0.54385287696E+01 0.  0.
         22    1    3    3    0    0  0.10650584115E+02  0.42842351150E+02 -0.17086743710E+03  0.17647827927E+03  0.00000000000E+00 0.  1.
         22    1    4    4    0    0 -0.49602327057E+01 -0.29225029922E+02 -0.84641432642E+02  0.89682096330E+02  0.00000000000E+00 0. -1.
         22    1    4    4    0    0 -0.56903514096E+01 -0.13617321228E+02 -0.36820892141E+02  0.39668496754E+02  0.00000000000E+00 0. -1.
<mgrwt>
<rscale>  0 0.89858831E+02</rscale>
<asrwt>0</asrwt>
<pdfrwt beam="1">  1        1 0.10383933E-02 0.89858831E+02</pdfrwt>
<pdfrwt beam="2">  1       -1 0.46012192E-01 0.89858831E+02</pdfrwt>
<totfact> 0.63011593E+04</totfact>
</mgrwt>
</event>
<event>
 7    1  0.3301067E-009  0.8769652E+02  0.7818608E-02  0.1308528E+00
         -1   -1    0    0    0  501 -0.00000000000E+00  0.00000000000E+00  0.17192947479E+02  0.17192948218E+02  0.50400000000E-02 0.  1.
          1   -1    0    0  501    0  0.00000000000E+00 -0.00000000000E+00 -0.11182899327E+03  0.11182899339E+03  0.50400000000E-02 0. -1.
         23    2    1    2    0    0  0.00000000000E+00  0.00000000000E+00 -0.94636045794E+02  0.12902194160E+03  0.87696523601E+02 0.  0.
    9000005    2    3    3    0    0  0.39713375687E+02 -0.14281515260E+02 -0.56448150237E+02  0.72105957438E+02  0.15223716573E+02 0.  0.
         22    1    3    3    0    0 -0.39713375687E+02  0.14281515260E+02 -0.38187895557E+02  0.56915984166E+02  0.00000000000E+00 0.  1.
         22    1    4    4    0    0  0.24948476544E+02 -0.92642839751E+01 -0.22894750588E+02  0.35105883323E+02  0.00000000000E+00 0.  1.
         22    1    4    4    0    0  0.14764899143E+02 -0.50172312849E+01 -0.33553399649E+02  0.37000074114E+02  0.00000000000E+00 0.  1.
<mgrwt>
<rscale>  0 0.87696524E+02</rscale>
<asrwt>0</asrwt>
<pdfrwt beam="2">  1        1 0.17204460E-01 0.87696524E+02</pdfrwt>
<pdfrwt beam="1">  1       -1 0.26450690E-02 0.87696524E+02</pdfrwt>
<totfact> 0.11827026E+05</totfact>
</mgrwt>
</event>
<event>
 7    1  0.3301067E-009  0.9440378E+02  0.7818608E-02  0.1292525E+00
         -1   -1    0    0    0  501 -0.00000000000E+00  0.00000000000E+00  0.55303217586E+01  0.55303240551E+01  0.50400000000E-02 0.  1.
          1   -1    0    0  501    0  0.00000000000E+00 -0.00000000000E+00 -0.40287309868E+03  0.40287309871E+03  0.50400000000E-02 0. -1.
         23    2    1    2    0    0  0.00000000000E+00  0.00000000000E+00 -0.39734277692E+03  0.40840342277E+03  0.94403778293E+02 0.  0.
    9000005    2    3    3    0    0 -0.24402457621E+02 -0.36472531822E+02 -0.26906199562E+03  0.27282435223E+03  0.10632223142E+02 0.  0.
         22    1    3    3    0    0  0.24402457621E+02  0.36472531822E+02 -0.12828078130E+03  0.13557907054E+03  0.00000000000E+00 0. -1.
         22    1    4    4    0    0 -0.14656074929E+01 -0.10038806739E+02 -0.58129314394E+02  0.59007989612E+02  0.00000000000E+00 0.  1.
         22    1    4    4    0    0 -0.22936850128E+02 -0.26433725083E+02 -0.21093268122E+03  0.21381636262E+03  0.00000000000E+00 0.  1.
<mgrwt>
<rscale>  0 0.94403778E+02</rscale>
<asrwt>0</asrwt>
<pdfrwt beam="2">  1        1 0.61980454E-01 0.94403778E+02</pdfrwt>
<pdfrwt beam="1">  1       -1 0.85081923E-03 0.94403778E+02</pdfrwt>
<totfact> 0.12311163E+05</totfact>
</mgrwt>
</event>
<event>
 7    1  0.3301067E-009  0.9060081E+02  0.7818608E-02  0.1301403E+00
          1   -1    0    0  501    0  0.00000000000E+00  0.00000000000E+00  0.35444032930E+03  0.35444032933E+03  0.50400000000E-02 0.  1.
         -1   -1    0    0    0  501 -0.00000000000E+00 -0.00000000000E+00 -0.57897655355E+01  0.57897677292E+01  0.50400000000E-02 0. -1.
         23    2    1    2    0    0 -0.35527136788E-14  0.00000000000E+00  0.34865056376E+03  0.36023009706E+03  0.90600812459E+02 0.  0.
    9000005    2    3    3    0    0  0.29172718735E+02 -0.28619223913E+02  0.24875054517E+03  0.25229436985E+03  0.10271700745E+02 0.  0.
         22    1    3    3    0    0 -0.29172718735E+02  0.28619223913E+02  0.99900018590E+02  0.10793572722E+03  0.00000000000E+00 0. -1.
         22    1    4    4    0    0  0.14891817208E+02 -0.91290934203E+01  0.85561091797E+02  0.87325866706E+02  0.00000000000E+00 0. -1.
         22    1    4    4    0    0  0.14280901527E+02 -0.19490130492E+02  0.16318945338E+03  0.16496850314E+03  0.00000000000E+00 0. -1.
<mgrwt>
<rscale>  0 0.90600812E+02</rscale>
<asrwt>0</asrwt>
<pdfrwt beam="1">  1        1 0.54529297E-01 0.90600812E+02</pdfrwt>
<pdfrwt beam="2">  1       -1 0.89073308E-03 0.90600812E+02</pdfrwt>
<totfact> 0.13437247E+05</totfact>
</mgrwt>
</event>
<event>
 7    1  0.3301067E-009  0.9122921E+02  0.7818608E-02  0.1299902E+00
         -1   -1    0    0    0  501 -0.00000000000E+00  0.00000000000E+00  0.14993772322E+02  0.14993773169E+02  0.50400000000E-02 0.  1.
          1   -1    0    0  501    0  0.00000000000E+00 -0.00000000000E+00 -0.13877041047E+03  0.13877041056E+03  0.50400000000E-02 0. -1.
         23    2    1    2    0    0  0.00000000000E+00  0.00000000000E+00 -0.12377663815E+03  0.15376418373E+03  0.91229206108E+02 0.  0.
    9000005    2    3    3    0    0 -0.41726559892E+02 -0.43051045895E+01 -0.90383281443E+02  0.10014743264E+03  0.10036482118E+02 0.  0.
         22    1    3    3    0    0  0.41726559892E+02  0.43051045895E+01 -0.33393356705E+02  0.53616751094E+02  0.00000000000E+00 0.  1.
         22    1    4    4    0    0 -0.37740100414E+02 -0.32103283883E+01 -0.72559314628E+02  0.81850323926E+02  0.00000000000E+00 0. -1.
         22    1    4    4    0    0 -0.39864594771E+01 -0.10947762012E+01 -0.17823966816E+02  0.18297108710E+02  0.00000000000E+00 0. -1.
<mgrwt>
<rscale>  0 0.91229206E+02</rscale>
<asrwt>0</asrwt>
<pdfrwt beam="2">  1        1 0.21349293E-01 0.91229206E+02</pdfrwt>
<pdfrwt beam="1">  1       -1 0.23067344E-02 0.91229206E+02</pdfrwt>
<totfact> 0.11038193E+05</totfact>
</mgrwt>
</event>
<event>
 7    1  0.3301067E-009  0.8930641E+02  0.7818608E-02  0.1304540E+00
          1   -1    0    0  501    0  0.00000000000E+00  0.00000000000E+00  0.23583795467E+01  0.23583849321E+01  0.50400000000E-02 0. -1.
         -1   -1    0    0    0  501 -0.00000000000E+00 -0.00000000000E+00 -0.84545606566E+03  0.84545606568E+03  0.50400000000E-02 0.  1.
         23    2    1    2    0    0 -0.35527136788E-14  0.00000000000E+00 -0.84309768612E+03  0.84781445061E+03  0.89306406987E+02 0.  0.
    9000005    2    3    3    0    0  0.19102528688E+02 -0.26236633284E+02 -0.70775129823E+03  0.70863143353E+03  0.13904708526E+02 0.  0.
         22    1    3    3    0    0 -0.19102528688E+02  0.26236633284E+02 -0.13534638789E+03  0.13918301708E+03  0.00000000000E+00 0. -1.
         22    1    4    4    0    0  0.89037257208E+01 -0.51712595547E+01 -0.32658455318E+03  0.32674682650E+03  0.00000000000E+00 0. -1.
         22    1    4    4    0    0  0.10198802967E+02 -0.21065373730E+02 -0.38116674505E+03  0.38188460703E+03  0.00000000000E+00 0. -1.
<mgrwt>
<rscale>  0 0.89306407E+02</rscale>
<asrwt>0</asrwt>
<pdfrwt beam="1">  1        1 0.36282871E-03 0.89306407E+02</pdfrwt>
<pdfrwt beam="2">  1       -1 0.13006992E+00 0.89306407E+02</pdfrwt>
<totfact> 0.32636791E+04</totfact>
</mgrwt>
</event>
<event>
 7    1  0.3301067E-009  0.8719952E+02  0.7818608E-02  0.1309779E+00
         -1   -1    0    0    0  501 -0.00000000000E+00  0.00000000000E+00  0.15211605391E+02  0.15211606226E+02  0.50400000000E-02 0.  1.
          1   -1    0    0  501    0  0.00000000000E+00 -0.00000000000E+00 -0.12496637572E+03  0.12496637582E+03  0.50400000000E-02 0. -1.
         23    2    1    2    0    0  0.00000000000E+00  0.00000000000E+00 -0.10975477033E+03  0.14017798205E+03  0.87199524316E+02 0.  0.
    9000005    2    3    3    0    0 -0.37946768399E+02 -0.15428714690E+02 -0.37804608416E+02  0.57384091764E+02  0.13628760077E+02 0.  0.
         22    1    3    3    0    0  0.37946768399E+02  0.15428714690E+02 -0.71950161913E+02  0.82793890283E+02  0.00000000000E+00 0. -1.
         22    1    4    4    0    0 -0.56874436816E+01 -0.63805596448E+01 -0.29614599314E+01  0.90459273675E+01  0.00000000000E+00 0. -1.
         22    1    4    4    0    0 -0.32259324717E+02 -0.90481550450E+01 -0.34843148484E+02  0.48338164397E+02  0.00000000000E+00 0. -1.
<mgrwt>
<rscale>  0 0.87199524E+02</rscale>
<asrwt>0</asrwt>
<pdfrwt beam="2">  1        1 0.19225596E-01 0.87199524E+02</pdfrwt>
<pdfrwt beam="1">  1       -1 0.23402471E-02 0.87199524E+02</pdfrwt>
<totfact> 0.12239224E+05</totfact>
</mgrwt>
</event>
<event>
 7    1  0.3301067E-009  0.9070501E+02  0.7818608E-02  0.1301153E+00
          1   -1    0    0  501    0  0.00000000000E+00  0.00000000000E+00  0.85435039425E+02  0.85435039573E+02  0.50400000000E-02 0. -1.
         -1   -1    0    0    0  501 -0.00000000000E+00 -0.00000000000E+00 -0.24075011176E+02  0.24075011704E+02  0.50400000000E-02 0.  1.
         23    2    1    2    0    0  0.00000000000E+00 -0.17763568394E-14  0.61360028248E+02  0.10951005128E+03  0.90705006831E+02 0.  0.
    9000005    2    3    3    0    0  0.33822109693E+02  0.12971571165E+02 -0.22356924406E+01  0.36321169249E+02  0.14255709008E+01 0.  0.
         22    1    3    3    0    0 -0.33822109693E+02 -0.12971571165E+02  0.63595720689E+02  0.73188882028E+02  0.00000000000E+00 0. -1.
         22    1    4    4    0    0  0.30709821542E+02  0.11885535399E+02 -0.24297621880E+01  0.33019128322E+02  0.00000000000E+00 0. -1.
         22    1    4    4    0    0  0.31122881507E+01  0.10860357666E+01  0.19406974736E+00  0.33020409274E+01  0.00000000000E+00 0. -1.
<mgrwt>
<rscale>  0 0.90705007E+02</rscale>
<asrwt>0</asrwt>
<pdfrwt beam="1">  1        1 0.13143852E-01 0.90705007E+02</pdfrwt>
<pdfrwt beam="2">  1       -1 0.37038480E-02 0.90705007E+02</pdfrwt>
<totfact> 0.10325842E+05</totfact>
</mgrwt>
</event>
<event>
 7    1  0.3301067E-009  0.9100228E+02  0.7818608E-02  0.1300443E+00
          1   -1    0    0  501    0  0.00000000000E+00  0.00000000000E+00  0.22425225150E+02  0.22425225717E+02  0.50400000000E-02 0. -1.
         -1   -1    0    0    0  501 -0.00000000000E+00 -0.00000000000E+00 -0.92322543724E+02  0.92322543861E+02  0.50400000000E-02 0.  1.
         23    2    1    2    0    0  0.00000000000E+00  0.00000000000E+00 -0.69897318573E+02  0.11474776958E+03  0.91002282825E+02 0.  0.
    9000005    2    3    3    0    0 -0.70763089110E+01 -0.10911725736E+02 -0.89278106496E+02  0.91407785712E+02  0.14685471830E+02 0.  0.
         22    1    3    3    0    0  0.70763089110E+01  0.10911725736E+02  0.19380787923E+02  0.23339983866E+02  0.00000000000E+00 0. -1.
         22    1    4    4    0    0 -0.10478553495E+02 -0.11812766992E+02 -0.65850229974E+02  0.67717016584E+02  0.00000000000E+00 0. -1.
         22    1    4    4    0    0  0.34022445835E+01  0.90104125618E+00 -0.23427876522E+02  0.23690769128E+02  0.00000000000E+00 0. -1.
<mgrwt>
<rscale>  0 0.91002283E+02</rscale>
<asrwt>0</asrwt>
<pdfrwt beam="1">  1        1 0.34500347E-02 0.91002283E+02</pdfrwt>
<pdfrwt beam="2">  1       -1 0.14203468E-01 0.91002283E+02</pdfrwt>
<totfact> 0.82973998E+04</totfact>
</mgrwt>
</event>
<event>
 7    1  0.3301067E-009  0.9433818E+02  0.7818608E-02  0.1292674E+00
          1   -1    0    0  501    0  0.00000000000E+00  0.00000000000E+00  0.26010537630E+03  0.26010537635E+03  0.50400000000E-02 0. -1.
         -1   -1    0    0    0  501 -0.00000000000E+00 -0.00000000000E+00 -0.85539283571E+01  0.85539298419E+01  0.50400000000E-02 0.  1.
         23    2    1    2    0    0  0.00000000000E+00  0.00000000000E+00  0.25155144794E+03  0.26865930619E+03  0.94338178065E+02 0.  0.
    9000005    2    3    3    0    0 -0.20949599170E+02 -0.38129852137E+02  0.78410155379E+02  0.90135698452E+02  0.91389463019E+01 0.  0.
         22    1    3    3    0    0  0.20949599170E+02  0.38129852137E+02  0.17314129256E+03  0.17852360774E+03  0.00000000000E+00 0. -1.
         22    1    4    4    0    0 -0.13354905874E+02 -0.17372671409E+02  0.45363498169E+02  0.50378667995E+02  0.00000000000E+00 0. -1.
         22    1    4    4    0    0 -0.75946932954E+01 -0.20757180728E+02  0.33046657210E+02  0.39757030457E+02  0.00000000000E+00 0. -1.
<mgrwt>
<rscale>  0 0.94338178E+02</rscale>
<asrwt>0</asrwt>
<pdfrwt beam="1">  1        1 0.40016215E-01 0.94338178E+02</pdfrwt>
<pdfrwt beam="2">  1       -1 0.13159890E-02 0.94338178E+02</pdfrwt>
<totfact> 0.11376362E+05</totfact>
</mgrwt>
</event>
<event>
 7    1  0.3301067E-009  0.8891706E+02  0.7818608E-02  0.1305496E+00
         -1   -1    0    0    0  501 -0.00000000000E+00  0.00000000000E+00  0.26145754086E+02  0.26145754571E+02  0.50400000000E-02 0.  1.
          1   -1    0    0  501    0  0.00000000000E+00 -0.00000000000E+00 -0.75597769992E+02  0.75597770160E+02  0.50400000000E-02 0. -1.
         23    2    1    2    0    0  0.00000000000E+00 -0.35527136788E-14 -0.49452015907E+02  0.10174352473E+03  0.88917056562E+02 0.  0.
    9000005    2    3    3    0    0  0.28529621906E+02  0.22275369305E+02  0.38033253763E+01  0.37352044092E+02  0.84011017225E+01 0.  0.
         22    1    3    3    0    0 -0.28529621906E+02 -0.22275369305E+02 -0.53255341283E+02  0.64391480639E+02  0.00000000000E+00 0. -1.
         22    1    4    4    0    0  0.18007936267E+02  0.18290171750E+02  0.68402587573E+00  0.25676527075E+02  0.00000000000E+00 0.  1.
         22    1    4    4    0    0  0.10521685639E+02  0.39851975554E+01  0.31192995005E+01  0.11675517017E+02  0.00000000000E+00 0.  1.
<mgrwt>
<rscale>  0 0.88917057E+02</rscale>
<asrwt>0</asrwt>
<pdfrwt beam="2">  1        1 0.11630426E-01 0.88917057E+02</pdfrwt>
<pdfrwt beam="1">  1       -1 0.40224238E-02 0.88917057E+02</pdfrwt>
<totfact> 0.10696888E+05</totfact>
</mgrwt>
</event>
<event>
 7    1  0.3301067E-009  0.8711082E+02  0.7818608E-02  0.1310003E+00
         -1   -1    0    0    0  501 -0.00000000000E+00  0.00000000000E+00  0.67570552419E+02  0.67570552607E+02  0.50400000000E-02 0.  1.
          1   -1    0    0  501    0  0.00000000000E+00 -0.00000000000E+00 -0.28075451088E+02  0.28075451540E+02  0.50400000000E-02 0. -1.
         23    2    1    2    0    0  0.00000000000E+00 -0.71054273576E-14  0.39495101331E+02  0.95646004147E+02  0.87110820683E+02 0.  0.
    9000005    2    3    3    0    0  0.14035461472E+02  0.38808734693E+02  0.31007049302E+02  0.53513367220E+02  0.14111388933E+02 0.  0.
         22    1    3    3    0    0 -0.14035461472E+02 -0.38808734693E+02  0.84880520293E+01  0.42132636927E+02  0.00000000000E+00 0. -1.
         22    1    4    4    0    0  0.17049115993E+01  0.63694854931E+01  0.12622012240E+02  0.14240514808E+02  0.00000000000E+00 0.  1.
         22    1    4    4    0    0  0.12330549873E+02  0.32439249200E+02  0.18385037061E+02  0.39272852412E+02  0.00000000000E+00 0.  1.
<mgrwt>
<rscale>  0 0.87110821E+02</rscale>
<asrwt>0</asrwt>
<pdfrwt beam="2">  1        1 0.43193002E-02 0.87110821E+02</pdfrwt>
<pdfrwt beam="1">  1       -1 0.10395470E-01 0.87110821E+02</pdfrwt>
<totfact> 0.97739388E+04</totfact>
</mgrwt>
</event>
<event>
 7    1  0.3301067E-009  0.8985079E+02  0.7818608E-02  0.1303213E+00
         -1   -1    0    0    0  501 -0.00000000000E+00  0.00000000000E+00  0.27180075532E+03  0.27180075536E+03  0.50400000000E-02 0.  1.
          1   -1    0    0  501    0  0.00000000000E+00 -0.00000000000E+00 -0.74256266805E+01  0.74256283909E+01  0.50400000000E-02 0. -1.
         23    2    1    2    0    0  0.00000000000E+00  0.00000000000E+00  0.26437512864E+03  0.27922638376E+03  0.89850791556E+02 0.  0.
    9000005    2    3    3    0    0 -0.17912215216E+02  0.23171502364E+02  0.23743145800E+03  0.23943031155E+03  0.97678485024E+01 0.  0.
         22    1    3    3    0    0  0.17912215216E+02 -0.23171502364E+02  0.26943670640E+02  0.39796072209E+02  0.00000000000E+00 0. -1.
         22    1    4    4    0    0 -0.92005342798E+01  0.50166792640E+01  0.67237929338E+02  0.68049658659E+02  0.00000000000E+00 0.  1.
         22    1    4    4    0    0 -0.87116809363E+01  0.18154823100E+02  0.17019352866E+03  0.17138065289E+03  0.00000000000E+00 0.  1.
<mgrwt>
<rscale>  0 0.89850792E+02</rscale>
<asrwt>0</asrwt>
<pdfrwt beam="2">  1        1 0.11424041E-02 0.89850792E+02</pdfrwt>
<pdfrwt beam="1">  1       -1 0.41815505E-01 0.89850792E+02</pdfrwt>
<totfact> 0.65343118E+04</totfact>
</mgrwt>
</event>
<event>
 7    1  0.3301067E-009  0.9646810E+02  0.7818608E-02  0.1287903E+00
          1   -1    0    0  501    0  0.00000000000E+00  0.00000000000E+00  0.76872924470E+03  0.76872924472E+03  0.50400000000E-02 0. -1.
         -1   -1    0    0    0  501 -0.00000000000E+00 -0.00000000000E+00 -0.30264514455E+01  0.30264556421E+01  0.50400000000E-02 0.  1.
         23    2    1    2    0    0 -0.88817841970E-15  0.35527136788E-14  0.76570279326E+03  0.77175570036E+03  0.96468095443E+02 0.  0.
    9000005    2    3    3    0    0  0.61375318880E+01  0.16967271825E+02  0.74016358074E+03  0.74048576293E+03  0.12307771580E+02 0.  0.
         22    1    3    3    0    0 -0.61375318880E+01 -0.16967271825E+02  0.25539212522E+02  0.31269937433E+02  0.00000000000E+00 0.  1.
         22    1    4    4    0    0  0.93719973420E+01  0.11209121105E+02  0.41998334093E+03  0.42023741551E+03  0.00000000000E+00 0. -1.
         22    1    4    4    0    0 -0.32344654540E+01  0.57581507193E+01  0.32018023980E+03  0.32024834742E+03  0.00000000000E+00 0. -1.
<mgrwt>
<rscale>  0 0.96468095E+02</rscale>
<asrwt>0</asrwt>
<pdfrwt beam="1">  1        1 0.11826599E+00 0.96468095E+02</pdfrwt>
<pdfrwt beam="2">  1       -1 0.46560842E-03 0.96468095E+02</pdfrwt>
<totfact> 0.12203112E+05</totfact>
</mgrwt>
</event>
<event>
 7    1  0.3301067E-009  0.9456353E+02  0.7818608E-02  0.1292162E+00
          1   -1    0    0  501    0  0.00000000000E+00  0.00000000000E+00  0.29680559687E+02  0.29680560115E+02  0.50400000000E-02 0. -1.
         -1   -1    0    0    0  501 -0.00000000000E+00 -0.00000000000E+00 -0.75320858120E+02  0.75320858288E+02  0.50400000000E-02 0.  1.
         23    2    1    2    0    0  0.35527136788E-14  0.00000000000E+00 -0.45640298432E+02  0.10500141840E+03  0.94563529046E+02 0.  0.
    9000005    2    3    3    0    0 -0.27422227754E+02 -0.27217858495E+02  0.56311645968E+01  0.40802093507E+02  0.11845270100E+02 0.  0.
         22    1    3    3    0    0  0.27422227754E+02  0.27217858495E+02 -0.51271463029E+02  0.64199324897E+02  0.00000000000E+00 0.  1.
         22    1    4    4    0    0 -0.90328015412E+01 -0.23680954708E+01 -0.21273571749E+00  0.93404837308E+01  0.00000000000E+00 0.  1.
         22    1    4    4    0    0 -0.18389426213E+02 -0.24849763024E+02  0.58439003143E+01  0.31461609776E+02  0.00000000000E+00 0.  1.
<mgrwt>
<rscale>  0 0.94563529E+02</rscale>
<asrwt>0</asrwt>
<pdfrwt beam="1">  1        1 0.45662400E-02 0.94563529E+02</pdfrwt>
<pdfrwt beam="2">  1       -1 0.11587824E-01 0.94563529E+02</pdfrwt>
<totfact> 0.77890422E+04</totfact>
</mgrwt>
</event>
<event>
 7    1  0.3301067E-009  0.8843720E+02  0.7818608E-02  0.1306681E+00
         -1   -1    0    0    0  501 -0.00000000000E+00  0.00000000000E+00  0.64879491215E+01  0.64879510791E+01  0.50400000000E-02 0.  1.
          1   -1    0    0  501    0  0.00000000000E+00 -0.00000000000E+00 -0.30137169921E+03  0.30137169925E+03  0.50400000000E-02 0. -1.
         23    2    1    2    0    0 -0.17763568394E-14  0.00000000000E+00 -0.29488375008E+03  0.30785965033E+03  0.88437199389E+02 0.  0.
    9000005    2    3    3    0    0 -0.10185852899E+02  0.22993567892E+02 -0.27381780834E+03  0.27505371085E+03  0.67746529418E+01 0.  0.
         22    1    3    3    0    0  0.10185852899E+02 -0.22993567892E+02 -0.21065941745E+02  0.32805939482E+02  0.00000000000E+00 0.  1.
         22    1    4    4    0    0 -0.21620070061E+01  0.10187572542E+02 -0.85846650387E+02  0.86476056173E+02  0.00000000000E+00 0.  1.
         22    1    4    4    0    0 -0.80238458926E+01  0.12805995350E+02 -0.18797115795E+03  0.18857765467E+03  0.00000000000E+00 0.  1.
<mgrwt>
<rscale>  0 0.88437199E+02</rscale>
<asrwt>0</asrwt>
<pdfrwt beam="2">  1        1 0.46364866E-01 0.88437199E+02</pdfrwt>
<pdfrwt beam="1">  1       -1 0.99814641E-03 0.88437199E+02</pdfrwt>
<totfact> 0.13906837E+05</totfact>
</mgrwt>
</event>
<event>
 7    1  0.4061638E-009  0.8121254E+02  0.7818608E-02  0.1325645E+00
          1   -1    0    0  501    0  0.00000000000E+00  0.00000000000E+00  0.64356458138E+02  0.64356458335E+02  0.50400000000E-02 0. -1.
         -1   -1    0    0    0  501 -0.00000000000E+00 -0.00000000000E+00 -0.25620882171E+02  0.25620882666E+02  0.50400000000E-02 0.  1.
         23    2    1    2    0    0 -0.17763568394E-14  0.00000000000E+00  0.38735575967E+02  0.89977341001E+02  0.81212542431E+02 0.  0.
    9000005    2    3    3    0    0 -0.98702720798E+01  0.31309296428E+02 -0.33484163606E+01  0.36603595358E+02  0.15840359442E+02 0.  0.
         22    1    3    3    0    0  0.98702720798E+01 -0.31309296428E+02  0.42083992328E+02  0.53373745643E+02  0.00000000000E+00 0. -1.
         22    1    4    4    0    0 -0.13881802635E+02  0.20156012866E+02 -0.83974293448E+00  0.24488251617E+02  0.00000000000E+00 0.  1.
         22    1    4    4    0    0  0.40115305548E+01  0.11153283562E+02 -0.25086734261E+01  0.12115343741E+02  0.00000000000E+00 0.  1.
<mgrwt>
<rscale>  0 0.81212542E+02</rscale>
<asrwt>0</asrwt>
<pdfrwt beam="1">  1        1 0.99009934E-02 0.81212542E+02</pdfrwt>
<pdfrwt beam="2">  1       -1 0.39416743E-02 0.81212542E+02</pdfrwt>
<totfact> 0.13377046E+05</totfact>
</mgrwt>
</event>
<event>
 7    1  0.3301067E-009  0.8925447E+02  0.7818608E-02  0.1304667E+00
         -1   -1    0    0    0  501 -0.00000000000E+00  0.00000000000E+00  0.27532065160E+03  0.27532065165E+03  0.50400000000E-02 0.  1.
          1   -1    0    0  501    0  0.00000000000E+00 -0.00000000000E+00 -0.72337102379E+01  0.72337119937E+01  0.50400000000E-02 0. -1.
         23    2    1    2    0    0  0.00000000000E+00  0.00000000000E+00  0.26808694137E+03  0.28255436364E+03  0.89254469262E+02 0.  0.
    9000005    2    3    3    0    0 -0.89674656011E+01 -0.16603501986E+02  0.26176908424E+03  0.26265443811E+03  0.10402340149E+02 0.  0.
         22    1    3    3    0    0  0.89674656011E+01  0.16603501986E+02  0.63178571317E+01  0.19899925534E+02  0.00000000000E+00 0. -1.
         22    1    4    4    0    0 -0.12252314366E+00 -0.25190763497E+01  0.92320239869E+01  0.95703199775E+01  0.00000000000E+00 0.  1.
         22    1    4    4    0    0 -0.88449424575E+01 -0.14084425636E+02  0.25253706025E+03  0.25308411813E+03  0.00000000000E+00 0.  1.
<mgrwt>
<rscale>  0 0.89254469E+02</rscale>
<asrwt>0</asrwt>
<pdfrwt beam="2">  1        1 0.11128785E-02 0.89254469E+02</pdfrwt>
<pdfrwt beam="1">  1       -1 0.42357027E-01 0.89254469E+02</pdfrwt>
<totfact> 0.66176622E+04</totfact>
</mgrwt>
</event>
<event>
 7    1  0.3301067E-009  0.8292689E+02  0.7818608E-02  0.1320945E+00
          1   -1    0    0  501    0  0.00000000000E+00  0.00000000000E+00  0.11222690589E+02  0.11222691721E+02  0.50400000000E-02 0. -1.
         -1   -1    0    0    0  501 -0.00000000000E+00 -0.00000000000E+00 -0.15319116546E+03  0.15319116554E+03  0.50400000000E-02 0.  1.
         23    2    1    2    0    0 -0.44408920985E-15  0.71054273576E-14 -0.14196847487E+03  0.16441385726E+03  0.82926887093E+02 0.  0.
    9000005    2    3    3    0    0  0.36153143309E+01 -0.36223591473E+02 -0.36022484622E+02  0.52388092697E+02  0.11030583901E+02 0.  0.
         22    1    3    3    0    0 -0.36153143309E+01  0.36223591473E+02 -0.10594599025E+03  0.11202576457E+03  0.00000000000E+00 0.  1.
         22    1    4    4    0    0  0.38072818328E+01 -0.33750675191E+01 -0.62056966925E+01  0.80247833088E+01  0.00000000000E+00 0.  1.
         22    1    4    4    0    0 -0.19196750185E+00 -0.32848523953E+02 -0.29816787930E+02  0.44363309388E+02  0.00000000000E+00 0.  1.
<mgrwt>
<rscale>  0 0.82926887E+02</rscale>
<asrwt>0</asrwt>
<pdfrwt beam="1">  1        1 0.17265680E-02 0.82926887E+02</pdfrwt>
<pdfrwt beam="2">  1       -1 0.23567870E-01 0.82926887E+02</pdfrwt>
<totfact> 0.95121538E+04</totfact>
</mgrwt>
</event>
<event>
 7    1  0.3301067E-009  0.9055198E+02  0.7818608E-02  0.1301520E+00
         -1   -1    0    0    0  501 -0.00000000000E+00  0.00000000000E+00  0.57794082600E+02  0.57794082820E+02  0.50400000000E-02 0.  1.
          1   -1    0    0  501    0  0.00000000000E+00 -0.00000000000E+00 -0.35469290160E+02  0.35469290518E+02  0.50400000000E-02 0. -1.
         23    2    1    2    0    0 -0.17763568394E-14  0.44408920985E-15  0.22324792440E+02  0.93263373338E+02  0.90551976504E+02 0.  0.
    9000005    2    3    3    0    0 -0.11850881270E+02 -0.33611399656E+01  0.55987454663E+02  0.57417655648E+02  0.32328705033E+01 0.  0.
         22    1    3    3    0    0  0.11850881270E+02  0.33611399656E+01 -0.33662662223E+02  0.35845717690E+02  0.00000000000E+00 0. -1.
         22    1    4    4    0    0 -0.10754933157E+02 -0.19377224338E+01  0.48877268124E+02  0.50084036326E+02  0.00000000000E+00 0.  1.
         22    1    4    4    0    0 -0.10959481137E+01 -0.14234175318E+01  0.71101865390E+01  0.73336193218E+01  0.00000000000E+00 0.  1.
<mgrwt>
<rscale>  0 0.90551977E+02</rscale>
<asrwt>0</asrwt>
<pdfrwt beam="2">  1        1 0.54568140E-02 0.90551977E+02</pdfrwt>
<pdfrwt beam="1">  1       -1 0.88913972E-02 0.90551977E+02</pdfrwt>
<totfact> 0.90763097E+04</totfact>
</mgrwt>
</event>
<event>
 7    1  0.3301067E-009  0.8435105E+02  0.7818608E-02  0.1317138E+00
         -1   -1    0    0    0  501 -0.00000000000E+00  0.00000000000E+00  0.30083048558E+01  0.30083090777E+01  0.50400000000E-02 0.  1.
          1   -1    0    0  501    0  0.00000000000E+00 -0.00000000000E+00 -0.59128774504E+03  0.59128774506E+03  0.50400000000E-02 0. -1.
         23    2    1    2    0    0  0.00000000000E+00  0.35527136788E-14 -0.58827944018E+03  0.59429605414E+03  0.84351053472E+02 0.  0.
    9000005    2    3    3    0    0  0.21674098918E+02  0.25969187031E+02 -0.46419518356E+03  0.46568397080E+03  0.15499257416E+02 0.  0.
         22    1    3    3    0    0 -0.21674098918E+02 -0.25969187031E+02 -0.12408425663E+03  0.12861208334E+03  0.00000000000E+00 0.  1.
         22    1    4    4    0    0  0.76713993542E+01  0.31848028715E+00 -0.12307750881E+03  0.12331676679E+03  0.00000000000E+00 0. -1.
         22    1    4    4    0    0  0.14002699564E+02  0.25650706744E+02 -0.34111767475E+03  0.34236720400E+03  0.00000000000E+00 0. -1.
<mgrwt>
<rscale>  0 0.84351053E+02</rscale>
<asrwt>0</asrwt>
<pdfrwt beam="2">  1        1 0.90967253E-01 0.84351053E+02</pdfrwt>
<pdfrwt beam="1">  1       -1 0.46281693E-03 0.84351053E+02</pdfrwt>
<totfact> 0.17366912E+05</totfact>
</mgrwt>
</event>
<event>
 7    1  0.3301067E-009  0.8816840E+02  0.7818608E-02  0.1307349E+00
          1   -1    0    0  501    0  0.00000000000E+00  0.00000000000E+00  0.30199679348E+03  0.30199679352E+03  0.50400000000E-02 0. -1.
         -1   -1    0    0    0  501 -0.00000000000E+00 -0.00000000000E+00 -0.64352218368E+01  0.64352238104E+01  0.50400000000E-02 0.  1.
         23    2    1    2    0    0  0.00000000000E+00  0.00000000000E+00  0.29556157164E+03  0.30843201733E+03  0.88168399574E+02 0.  0.
    9000005    2    3    3    0    0 -0.11796840485E+02 -0.16405133508E+02  0.28409739239E+03  0.28520011563E+03  0.14814983621E+02 0.  0.
         22    1    3    3    0    0  0.11796840485E+02  0.16405133508E+02  0.11464179249E+02  0.23231901702E+02  0.00000000000E+00 0.  1.
         22    1    4    4    0    0 -0.77539561488E+01 -0.13331340685E+02  0.11536243594E+03  0.11638874561E+03  0.00000000000E+00 0. -1.
         22    1    4    4    0    0 -0.40428843360E+01 -0.30737928227E+01  0.16873495645E+03  0.16881137001E+03  0.00000000000E+00 0. -1.
<mgrwt>
<rscale>  0 0.88168400E+02</rscale>
<asrwt>0</asrwt>
<pdfrwt beam="1">  1        1 0.46461040E-01 0.88168400E+02</pdfrwt>
<pdfrwt beam="2">  1       -1 0.99003439E-03 0.88168400E+02</pdfrwt>
<totfact> 0.14025151E+05</totfact>
</mgrwt>
</event>
<event>
 7    1  0.3301067E-009  0.8986073E+02  0.7818608E-02  0.1303189E+00
         -1   -1    0    0    0  501 -0.00000000000E+00  0.00000000000E+00  0.25476010175E+03  0.25476010180E+03  0.50400000000E-02 0.  1.
          1   -1    0    0  501    0  0.00000000000E+00 -0.00000000000E+00 -0.79240728451E+01  0.79240744480E+01  0.50400000000E-02 0. -1.
         23    2    1    2    0    0 -0.71054273576E-14  0.00000000000E+00  0.24683602891E+03  0.26268417625E+03  0.89860732723E+02 0.  0.
    9000005    2    3    3    0    0 -0.34193699467E+02  0.12424309828E+02  0.19806308538E+03  0.20183705160E+03  0.13624868802E+02 0.  0.
         22    1    3    3    0    0  0.34193699467E+02 -0.12424309828E+02  0.48772943522E+02  0.60847124646E+02  0.00000000000E+00 0. -1.
         22    1    4    4    0    0 -0.35110500954E+02  0.10424712879E+02  0.18511388444E+03  0.18870233737E+03  0.00000000000E+00 0.  1.
         22    1    4    4    0    0  0.91680148709E+00  0.19995969491E+01  0.12949200943E+02  0.13134714233E+02  0.00000000000E+00 0.  1.
<mgrwt>
<rscale>  0 0.89860733E+02</rscale>
<asrwt>0</asrwt>
<pdfrwt beam="2">  1        1 0.12190882E-02 0.89860733E+02</pdfrwt>
<pdfrwt beam="1">  1       -1 0.39193864E-01 0.89860733E+02</pdfrwt>
<totfact> 0.66837150E+04</totfact>
</mgrwt>
</event>
<event>
 7    1  0.3301067E-009  0.9137640E+02  0.7818608E-02  0.1299552E+00
         -1   -1    0    0    0  501 -0.00000000000E+00  0.00000000000E+00  0.16350363658E+03  0.16350363666E+03  0.50400000000E-02 0.  1.
          1   -1    0    0  501    0  0.00000000000E+00 -0.00000000000E+00 -0.12766760293E+02  0.12766761288E+02  0.50400000000E-02 0. -1.
         23    2    1    2    0    0  0.00000000000E+00  0.00000000000E+00  0.15073687628E+03  0.17627039794E+03  0.91376404607E+02 0.  0.
    9000005    2    3    3    0    0  0.41789824922E+02  0.85673889952E+00  0.42360273569E+02  0.60112697016E+02  0.84864655276E+01 0.  0.
         22    1    3    3    0    0 -0.41789824922E+02 -0.85673889952E+00  0.10837660272E+03  0.11615770093E+03  0.00000000000E+00 0. -1.
         22    1    4    4    0    0  0.18621193361E+02  0.43025880293E+01  0.21250003414E+02  0.28580128604E+02  0.00000000000E+00 0.  1.
         22    1    4    4    0    0  0.23168631560E+02 -0.34458491298E+01  0.21110270155E+02  0.31532568411E+02  0.00000000000E+00 0.  1.
<mgrwt>
<rscale>  0 0.91376405E+02</rscale>
<asrwt>0</asrwt>
<pdfrwt beam="2">  1        1 0.19641171E-02 0.91376405E+02</pdfrwt>
<pdfrwt beam="1">  1       -1 0.25154405E-01 0.91376405E+02</pdfrwt>
<totfact> 0.72836298E+04</totfact>
</mgrwt>
</event>
<event>
 7    1  0.3301067E-009  0.9371333E+02  0.7818608E-02  0.1294101E+00
          1   -1    0    0  501    0  0.00000000000E+00  0.00000000000E+00  0.92446260790E+01  0.92446274529E+01  0.50400000000E-02 0. -1.
         -1   -1    0    0    0  501 -0.00000000000E+00 -0.00000000000E+00 -0.23749438070E+03  0.23749438075E+03  0.50400000000E-02 0.  1.
         23    2    1    2    0    0 -0.71054273576E-14 -0.22204460493E-15 -0.22824975462E+03  0.24673900820E+03  0.93713327153E+02 0.  0.
    9000005    2    3    3    0    0  0.44545397721E+02 -0.51373528734E+00 -0.79819411445E+02  0.91767645828E+02  0.80997527933E+01 0.  0.
         22    1    3    3    0    0 -0.44545397721E+02  0.51373528734E+00 -0.14843034317E+03  0.15497136238E+03  0.00000000000E+00 0. -1.
         22    1    4    4    0    0  0.36808416025E+02 -0.31832302729E+01 -0.62311131161E+02  0.72440800050E+02  0.00000000000E+00 0. -1.
         22    1    4    4    0    0  0.77369816956E+01  0.26694949856E+01 -0.17508280284E+02  0.19326845778E+02  0.00000000000E+00 0. -1.
<mgrwt>
<rscale>  0 0.93713327E+02</rscale>
<asrwt>0</asrwt>
<pdfrwt beam="1">  1        1 0.14222505E-02 0.93713327E+02</pdfrwt>
<pdfrwt beam="2">  1       -1 0.36537593E-01 0.93713327E+02</pdfrwt>
<totfact> 0.61318258E+04</totfact>
</mgrwt>
</event>
<event>
 7    1  0.3301067E-009  0.9544349E+02  0.7818608E-02  0.1290180E+00
         -1   -1    0    0    0  501 -0.00000000000E+00  0.00000000000E+00  0.40614027439E+01  0.40614058710E+01  0.50400000000E-02 0.  1.
          1   -1    0    0  501    0  0.00000000000E+00 -0.00000000000E+00 -0.56073331711E+03  0.56073331714E+03  0.50400000000E-02 0. -1.
         23    2    1    2    0    0  0.00000000000E+00  0.00000000000E+00 -0.55667191437E+03  0.56479472301E+03  0.95443485314E+02 0.  0.
    9000005    2    3    3    0    0  0.46363928799E+02  0.23613179436E+01 -0.33484619811E+03  0.33816322010E+03  0.87862007183E+01 0.  0.
         22    1    3    3    0    0 -0.46363928799E+02 -0.23613179436E+01 -0.22182571625E+03  0.22663150290E+03  0.00000000000E+00 0.  1.
         22    1    4    4    0    0  0.59277328886E+01 -0.25958264706E+01 -0.50763567232E+02  0.51174369467E+02  0.00000000000E+00 0.  1.
         22    1    4    4    0    0  0.40436195911E+02  0.49571444142E+01 -0.28408263088E+03  0.28698885064E+03  0.00000000000E+00 0.  1.
<mgrwt>
<rscale>  0 0.95443485E+02</rscale>
<asrwt>0</asrwt>
<pdfrwt beam="2">  1        1 0.86266603E-01 0.95443485E+02</pdfrwt>
<pdfrwt beam="1">  1       -1 0.62483188E-03 0.95443485E+02</pdfrwt>
<totfact> 0.12479090E+05</totfact>
</mgrwt>
</event>
<event>
 7    1  0.3301067E-009  0.9616170E+02  0.7818608E-02  0.1288581E+00
          1   -1    0    0  501    0  0.00000000000E+00  0.00000000000E+00  0.10861231831E+03  0.10861231843E+03  0.50400000000E-02 0. -1.
         -1   -1    0    0    0  501 -0.00000000000E+00 -0.00000000000E+00 -0.21284585391E+02  0.21284585987E+02  0.50400000000E-02 0.  1.
         23    2    1    2    0    0 -0.49960036108E-15  0.00000000000E+00  0.87327732923E+02  0.12989690442E+03  0.96161701524E+02 0.  0.
    9000005    2    3    3    0    0 -0.30523061233E+00 -0.30276267140E+02 -0.34171804898E+01  0.34234033732E+02  0.15605974028E+02 0.  0.
         22    1    3    3    0    0  0.30523061233E+00  0.30276267140E+02  0.90744913413E+02  0.95662870686E+02  0.00000000000E+00 0. -1.
         22    1    4    4    0    0  0.69863776921E+01 -0.21510697168E+02 -0.30952151066E+01  0.22827613157E+02  0.00000000000E+00 0.  1.
         22    1    4    4    0    0 -0.72916083044E+01 -0.87655699724E+01 -0.32196538322E+00  0.11406420574E+02  0.00000000000E+00 0.  1.
<mgrwt>
<rscale>  0 0.96161702E+02</rscale>
<asrwt>0</asrwt>
<pdfrwt beam="1">  1        1 0.16709587E-01 0.96161702E+02</pdfrwt>
<pdfrwt beam="2">  1       -1 0.32745517E-02 0.96161702E+02</pdfrwt>
<totfact> 0.91580765E+04</totfact>
</mgrwt>
</event>
<event>
 7    1  0.3301067E-009  0.1019729E+03  0.7818608E-02  0.1276201E+00
         -1   -1    0    0    0  501 -0.00000000000E+00  0.00000000000E+00  0.20357831129E+02  0.20357831753E+02  0.50400000000E-02 0.  1.
          1   -1    0    0  501    0  0.00000000000E+00 -0.00000000000E+00 -0.12769621951E+03  0.12769621961E+03  0.50400000000E-02 0. -1.
         23    2    1    2    0    0  0.00000000000E+00  0.00000000000E+00 -0.10733838838E+03  0.14805405136E+03  0.10197290083E+03 0.  0.
    9000005    2    3    3    0    0 -0.23368194854E+02  0.11047158737E+02  0.96294960167E+01  0.28264242834E+02  0.61666832718E+01 0.  0.
         22    1    3    3    0    0  0.23368194854E+02 -0.11047158737E+02 -0.11696788439E+03  0.11978980853E+03  0.00000000000E+00 0. -1.
         22    1    4    4    0    0 -0.16023083809E+02  0.56802480404E+01  0.36780770945E+01  0.17393466695E+02  0.00000000000E+00 0. -1.
         22    1    4    4    0    0 -0.73451110445E+01  0.53669106965E+01  0.59514189222E+01  0.10870776139E+02  0.00000000000E+00 0. -1.
<mgrwt>
<rscale>  0 0.10197290E+03</rscale>
<asrwt>0</asrwt>
<pdfrwt beam="2">  1        1 0.19645572E-01 0.10197290E+03</pdfrwt>
<pdfrwt beam="1">  1       -1 0.31319742E-02 0.10197290E+03</pdfrwt>
<totfact> 0.80262892E+04</totfact>
</mgrwt>
</event>
<event>
 7    1  0.3301067E-009  0.8515779E+02  0.7818608E-02  0.1315020E+00
         -1   -1    0    0    0  501 -0.00000000000E+00  0.00000000000E+00  0.42729616576E+01  0.42729646300E+01  0.50400000000E-02 0.  1.
          1   -1    0    0  501    0  0.00000000000E+00 -0.00000000000E+00 -0.42428693852E+03  0.42428693855E+03  0.50400000000E-02 0. -1.
         23    2    1    2    0    0 -0.35527136788E-14  0.00000000000E+00 -0.42001397686E+03  0.42855990318E+03  0.85157793852E+02 0.  0.
    9000005    2    3    3    0    0 -0.25756420199E+02  0.79467322681E+01 -0.37538148346E+03  0.37641967684E+03  0.73465130571E+01 0.  0.
         22    1    3    3    0    0  0.25756420199E+02 -0.79467322681E+01 -0.44632493399E+02  0.52140226335E+02  0.00000000000E+00 0.  1.
         22    1    4    4    0    0 -0.21106181588E+02  0.35347360211E+01 -0.27278669336E+03  0.27362482588E+03  0.00000000000E+00 0.  1.
         22    1    4    4    0    0 -0.46502386110E+01  0.44119962470E+01 -0.10259479010E+03  0.10279485096E+03  0.00000000000E+00 0.  1.
<mgrwt>
<rscale>  0 0.85157794E+02</rscale>
<asrwt>0</asrwt>
<pdfrwt beam="2">  1        1 0.65274881E-01 0.85157794E+02</pdfrwt>
<pdfrwt beam="1">  1       -1 0.65737928E-03 0.85157794E+02</pdfrwt>
<totfact> 0.16310735E+05</totfact>
</mgrwt>
</event>
<event>
 7    1  0.3301067E-009  0.9119268E+02  0.7818608E-02  0.1299989E+00
          1   -1    0    0  501    0  0.00000000000E+00  0.00000000000E+00  0.28332788493E+03  0.28332788497E+03  0.50400000000E-02 0. -1.
         -1   -1    0    0    0  501 -0.00000000000E+00 -0.00000000000E+00 -0.73378793390E+01  0.73378810699E+01  0.50400000000E-02 0.  1.
         23    2    1    2    0    0  0.00000000000E+00  0.11102230246E-15  0.27599000559E+03  0.29066576604E+03  0.91192677141E+02 0.  0.
    9000005    2    3    3    0    0  0.41451153117E+02  0.33447337022E+00  0.19475793681E+03  0.19946840333E+03  0.11776247717E+02 0.  0.
         22    1    3    3    0    0 -0.41451153117E+02 -0.33447337022E+00  0.81232068779E+02  0.91197362711E+02  0.00000000000E+00 0.  1.
         22    1    4    4    0    0  0.37191116852E+02 -0.19401119949E+01  0.18311404600E+03  0.18686277599E+03  0.00000000000E+00 0.  1.
         22    1    4    4    0    0  0.42600362650E+01  0.22745853651E+01  0.11643890810E+02  0.12605627345E+02  0.00000000000E+00 0.  1.
<mgrwt>
<rscale>  0 0.91192677E+02</rscale>
<asrwt>0</asrwt>
<pdfrwt beam="1">  1        1 0.43588901E-01 0.91192677E+02</pdfrwt>
<pdfrwt beam="2">  1       -1 0.11289048E-02 0.91192677E+02</pdfrwt>
<totfact> 0.12666388E+05</totfact>
</mgrwt>
</event>
<event>
 6    1  0.3301067E-009  0.2163615E+03  0.7818608E-02  0.1136625E+00
          1   -1    0    0  501    0  0.00000000000E+00  0.00000000000E+00  0.14771142272E+04  0.14771142272E+04  0.50400000000E-02 0. -1.
         -1   -1    0    0    0  501 -0.00000000000E+00 -0.00000000000E+00 -0.79229277678E+01  0.79229293708E+01  0.50400000000E-02 0.  1.
    9000005    2    1    2    0    0  0.29202109118E+01  0.93395394653E+02  0.11086747992E+04  0.11126081374E+04  0.24144747193E+01 0.  0.
         22    1    1    2    0    0 -0.29202109118E+01 -0.93395394653E+02  0.36051650017E+03  0.37242901910E+03  0.00000000000E+00 0. -1.
         22    1    3    3    0    0  0.13770362436E+01  0.74815766020E+02  0.88665880375E+03  0.88981072670E+03  0.00000000000E+00 0. -1.
         22    1    3    3    0    0  0.15431746682E+01  0.18579628633E+02  0.22201599547E+03  0.22279741074E+03  0.00000000000E+00 0. -1.
<mgrwt>
<rscale>  0 0.21636146E+03</rscale>
<asrwt>0</asrwt>
<pdfrwt beam="1">  1        1 0.22724815E+00 0.21636146E+03</pdfrwt>
<pdfrwt beam="2">  1       -1 0.12189131E-02 0.21636146E+03</pdfrwt>
<totfact> 0.10381536E+04</totfact>
</mgrwt>
</event>
<event>
 7    1  0.3301067E-009  0.8862278E+02  0.7818608E-02  0.1306222E+00
         -1   -1    0    0    0  501 -0.00000000000E+00  0.00000000000E+00  0.94582512872E+02  0.94582513007E+02  0.50400000000E-02 0.  1.
          1   -1    0    0  501    0  0.00000000000E+00 -0.00000000000E+00 -0.20759643081E+02  0.20759643692E+02  0.50400000000E-02 0. -1.
         23    2    1    2    0    0 -0.71054273576E-14 -0.35527136788E-14  0.73822869792E+02  0.11534215670E+03  0.88622779282E+02 0.  0.
    9000005    2    3    3    0    0 -0.38439737630E+02 -0.15858808898E+02  0.56703660927E+02  0.70373472475E+02  0.28293492068E+01 0.  0.
         22    1    3    3    0    0  0.38439737630E+02  0.15858808898E+02  0.17119208865E+02  0.44968684224E+02  0.00000000000E+00 0. -1.
         22    1    4    4    0    0 -0.54148161698E+01 -0.15011815215E+01  0.65372904342E+01  0.86203217071E+01  0.00000000000E+00 0. -1.
         22    1    4    4    0    0 -0.33024921460E+02 -0.14357627376E+02  0.50166370493E+02  0.61753150768E+02  0.00000000000E+00 0. -1.
<mgrwt>
<rscale>  0 0.88622779E+02</rscale>
<asrwt>0</asrwt>
<pdfrwt beam="2">  1        1 0.31937913E-02 0.88622779E+02</pdfrwt>
<pdfrwt beam="1">  1       -1 0.14551156E-01 0.88622779E+02</pdfrwt>
<totfact> 0.88429682E+04</totfact>
</mgrwt>
</event>
<event>
 7    1  0.3301067E-009  0.1089546E+03  0.7818608E-02  0.1262518E+00
         -1   -1    0    0    0  501 -0.00000000000E+00  0.00000000000E+00  0.17625091914E+02  0.17625092635E+02  0.50400000000E-02 0.  1.
          1   -1    0    0  501    0  0.00000000000E+00 -0.00000000000E+00 -0.16838348936E+03  0.16838348943E+03  0.50400000000E-02 0. -1.
         23    2    1    2    0    0  0.00000000000E+00  0.00000000000E+00 -0.15075839744E+03  0.18600858207E+03  0.10895456945E+03 0.  0.
    9000005    2    3    3    0    0 -0.32987483116E+02 -0.47413813212E+01 -0.19193726155E+01  0.33484124846E+02  0.26168466349E+01 0.  0.
         22    1    3    3    0    0  0.32987483116E+02  0.47413813212E+01 -0.14883902483E+03  0.15252445722E+03  0.00000000000E+00 0. -1.
         22    1    4    4    0    0 -0.32428223261E+02 -0.46979567168E+01 -0.15322457437E+01  0.32802564506E+02  0.00000000000E+00 0. -1.
         22    1    4    4    0    0 -0.55925985465E+00 -0.43424604395E-01 -0.38712687181E+00  0.68156033935E+00  0.00000000000E+00 0. -1.
<mgrwt>
<rscale>  0 0.10895457E+03</rscale>
<asrwt>0</asrwt>
<pdfrwt beam="2">  1        1 0.25905151E-01 0.10895457E+03</pdfrwt>
<pdfrwt beam="1">  1       -1 0.27115528E-02 0.10895457E+03</pdfrwt>
<totfact> 0.70575885E+04</totfact>
</mgrwt>
</event>
<event>
 7    1  0.3301067E-009  0.9202694E+02  0.7818608E-02  0.1298016E+00
         -1   -1    0    0    0  501 -0.00000000000E+00  0.00000000000E+00  0.95972228348E+01  0.95972241582E+01  0.50400000000E-02 0.  1.
          1   -1    0    0  501    0  0.00000000000E+00 -0.00000000000E+00 -0.22060956724E+03  0.22060956730E+03  0.50400000000E-02 0. -1.
         23    2    1    2    0    0  0.00000000000E+00  0.00000000000E+00 -0.21101234440E+03  0.23020679146E+03  0.92026938126E+02 0.  0.
    9000005    2    3    3    0    0  0.41552205319E+02  0.83094449826E+01 -0.14732827404E+03  0.15371304360E+03  0.11244856515E+02 0.  0.
         22    1    3    3    0    0 -0.41552205319E+02 -0.83094449826E+01 -0.63684070363E+02  0.76493747854E+02  0.00000000000E+00 0.  1.
         22    1    4    4    0    0  0.30764969324E+02  0.97894262368E+00 -0.10140223686E+03  0.10597101164E+03  0.00000000000E+00 0. -1.
         22    1    4    4    0    0  0.10787235995E+02  0.73305023589E+01 -0.45926037177E+02  0.47742031964E+02  0.00000000000E+00 0. -1.
<mgrwt>
<rscale>  0 0.92026938E+02</rscale>
<asrwt>0</asrwt>
<pdfrwt beam="2">  1        1 0.33939930E-01 0.92026938E+02</pdfrwt>
<pdfrwt beam="1">  1       -1 0.14764961E-02 0.92026938E+02</pdfrwt>
<totfact> 0.11772314E+05</totfact>
</mgrwt>
</event>
<event>
 7    1  0.3301067E-009  0.9116342E+02  0.7818608E-02  0.1300059E+00
          1   -1    0    0  501    0  0.00000000000E+00  0.00000000000E+00  0.28421791906E+02  0.28421792353E+02  0.50400000000E-02 0. -1.
         -1   -1    0    0    0  501 -0.00000000000E+00 -0.00000000000E+00 -0.73102091568E+02  0.73102091741E+02  0.50400000000E-02 0.  1.
         23    2    1    2    0    0  0.35527136788E-14  0.00000000000E+00 -0.44680299662E+02  0.10152388409E+03  0.91163423935E+02 0.  0.
    9000005    2    3    3    0    0 -0.28478902657E+02  0.34199453546E+02 -0.16143146976E+02  0.48655939147E+02  0.11231593860E+02 0.  0.
         22    1    3    3    0    0  0.28478902657E+02 -0.34199453546E+02 -0.28537152686E+02  0.52867944946E+02  0.00000000000E+00 0.  1.
         22    1    4    4    0    0 -0.22795510991E+01  0.16889709672E+01 -0.44826179784E+01  0.53049825713E+01  0.00000000000E+00 0.  1.
         22    1    4    4    0    0 -0.26199351558E+02  0.32510482579E+02 -0.11660528997E+02  0.43350956576E+02  0.00000000000E+00 0.  1.
<mgrwt>
<rscale>  0 0.91163424E+02</rscale>
<asrwt>0</asrwt>
<pdfrwt beam="1">  1        1 0.43725834E-02 0.91163424E+02</pdfrwt>
<pdfrwt beam="2">  1       -1 0.11246476E-01 0.91163424E+02</pdfrwt>
<totfact> 0.85962839E+04</totfact>
</mgrwt>
</event>
<event>
 7    1  0.3301067E-009  0.9080722E+02  0.7818608E-02  0.1300909E+00
         -1   -1    0    0    0  501 -0.00000000000E+00  0.00000000000E+00  0.81721776101E+03  0.81721776103E+03  0.50400000000E-02 0.  1.
          1   -1    0    0  501    0  0.00000000000E+00 -0.00000000000E+00 -0.25225662155E+01  0.25225712503E+01  0.50400000000E-02 0. -1.
         23    2    1    2    0    0  0.00000000000E+00  0.00000000000E+00  0.81469519480E+03  0.81974033228E+03  0.90807224043E+02 0.  0.
    9000005    2    3    3    0    0  0.23574549270E+02  0.27574393399E+02  0.64494240492E+03  0.64615428383E+03  0.15765351381E+02 0.  0.
         22    1    3    3    0    0 -0.23574549270E+02 -0.27574393399E+02  0.16975278988E+03  0.17358604845E+03  0.00000000000E+00 0. -1.
         22    1    4    4    0    0  0.19999701295E+02  0.14834693031E+02  0.33212444873E+03  0.33305661023E+03  0.00000000000E+00 0.  1.
         22    1    4    4    0    0  0.35748479752E+01  0.12739700368E+02  0.31281795618E+03  0.31309767360E+03  0.00000000000E+00 0.  1.
<mgrwt>
<rscale>  0 0.90807224E+02</rscale>
<asrwt>0</asrwt>
<pdfrwt beam="2">  1        1 0.38808725E-03 0.90807224E+02</pdfrwt>
<pdfrwt beam="1">  1       -1 0.12572589E+00 0.90807224E+02</pdfrwt>
<totfact> 0.32322243E+04</totfact>
</mgrwt>
</event>
<event>
 7    1  0.3301067E-009  0.9180903E+02  0.7818608E-02  0.1298529E+00
         -1   -1    0    0    0  501 -0.00000000000E+00  0.00000000000E+00  0.41705699518E+01  0.41705729971E+01  0.50400000000E-02 0.  1.
          1   -1    0    0  501    0  0.00000000000E+00 -0.00000000000E+00 -0.50526037733E+03  0.50526037736E+03  0.50400000000E-02 0. -1.
         23    2    1    2    0    0 -0.35527136788E-14  0.00000000000E+00 -0.50108980738E+03  0.50943095036E+03  0.91809030703E+02 0.  0.
    9000005    2    3    3    0    0  0.29251582480E+02  0.31171461991E+02 -0.33593584931E+03  0.33883451139E+03  0.11340905554E+02 0.  0.
         22    1    3    3    0    0 -0.29251582480E+02 -0.31171461991E+02 -0.16515395807E+03  0.17059643896E+03  0.00000000000E+00 0.  1.
         22    1    4    4    0    0  0.18397756649E+02  0.22596455527E+02 -0.18686239018E+03  0.18912067606E+03  0.00000000000E+00 0. -1.
         22    1    4    4    0    0  0.10853825831E+02  0.85750064636E+01 -0.14907345913E+03  0.14971383533E+03  0.00000000000E+00 0. -1.
<mgrwt>
<rscale>  0 0.91809031E+02</rscale>
<asrwt>0</asrwt>
<pdfrwt beam="2">  1        1 0.77732318E-01 0.91809031E+02</pdfrwt>
<pdfrwt beam="1">  1       -1 0.64162678E-03 0.91809031E+02</pdfrwt>
<totfact> 0.13690375E+05</totfact>
</mgrwt>
</event>
<event>
 7    1  0.3301067E-009  0.8982996E+02  0.7818608E-02  0.1303264E+00
         -1   -1    0    0    0  501 -0.00000000000E+00  0.00000000000E+00  0.97988544245E+02  0.97988544375E+02  0.50400000000E-02 0.  1.
          1   -1    0    0  501    0  0.00000000000E+00 -0.00000000000E+00 -0.20587664587E+02  0.20587665204E+02  0.50400000000E-02 0. -1.
         23    2    1    2    0    0  0.00000000000E+00  0.00000000000E+00  0.77400879659E+02  0.11857620958E+03  0.89829957732E+02 0.  0.
    9000005    2    3    3    0    0  0.17573373269E+02  0.13256369417E+02 -0.11039434927E+02  0.27437611706E+02  0.12099530340E+02 0.  0.
         22    1    3    3    0    0 -0.17573373269E+02 -0.13256369417E+02  0.88440314586E+02  0.91138597873E+02  0.00000000000E+00 0.  1.
         22    1    4    4    0    0  0.15030796148E+02  0.43532330689E+01 -0.51950352531E+01  0.16488294704E+02  0.00000000000E+00 0. -1.
         22    1    4    4    0    0  0.25425771212E+01  0.89031363477E+01 -0.58443996742E+01  0.10949317001E+02  0.00000000000E+00 0. -1.
<mgrwt>
<rscale>  0 0.89829958E+02</rscale>
<asrwt>0</asrwt>
<pdfrwt beam="2">  1        1 0.31673331E-02 0.89829958E+02</pdfrwt>
<pdfrwt beam="1">  1       -1 0.15075160E-01 0.89829958E+02</pdfrwt>
<totfact> 0.84863156E+04</totfact>
</mgrwt>
</event>
<event>
 7    1  0.3301067E-009  0.8825400E+02  0.7818608E-02  0.1307136E+00
         -1   -1    0    0    0  501 -0.00000000000E+00  0.00000000000E+00  0.83488314437E+02  0.83488314590E+02  0.50400000000E-02 0.  1.
          1   -1    0    0  501    0  0.00000000000E+00 -0.00000000000E+00 -0.23322931014E+02  0.23322931559E+02  0.50400000000E-02 0. -1.
         23    2    1    2    0    0  0.00000000000E+00 -0.71054273576E-14  0.60165383423E+02  0.10681124615E+03  0.88254002409E+02 0.  0.
    9000005    2    3    3    0    0 -0.11343935355E+02  0.41179385422E+02  0.22848521406E+02  0.50092864261E+02  0.12759838023E+02 0.  0.
         22    1    3    3    0    0  0.11343935355E+02 -0.41179385422E+02  0.37316862018E+02  0.56718381887E+02  0.00000000000E+00 0. -1.
         22    1    4    4    0    0  0.10071186437E+01  0.63161887008E+01 -0.39694302438E+00  0.64082830330E+01  0.00000000000E+00 0.  1.
         22    1    4    4    0    0 -0.12351053998E+02  0.34863196721E+02  0.23245464430E+02  0.43684581228E+02  0.00000000000E+00 0.  1.
<mgrwt>
<rscale>  0 0.88254002E+02</rscale>
<asrwt>0</asrwt>
<pdfrwt beam="2">  1        1 0.35881432E-02 0.88254002E+02</pdfrwt>
<pdfrwt beam="1">  1       -1 0.12844356E-01 0.88254002E+02</pdfrwt>
<totfact> 0.91346259E+04</totfact>
</mgrwt>
</event>
<event>
 7    1  0.3301067E-009  0.9736935E+02  0.7818608E-02  0.1285927E+00
         -1   -1    0    0    0  501 -0.00000000000E+00  0.00000000000E+00  0.42461305379E+02  0.42461305678E+02  0.50400000000E-02 0.  1.
          1   -1    0    0  501    0  0.00000000000E+00 -0.00000000000E+00 -0.55820172021E+02  0.55820172249E+02  0.50400000000E-02 0. -1.
         23    2    1    2    0    0  0.00000000000E+00  0.00000000000E+00 -0.13358866642E+02  0.98281477927E+02  0.97369346232E+02 0.  0.
    9000005    2    3    3    0    0  0.37774271332E+02  0.22652386902E+02  0.12267590173E+02  0.47323245070E+02  0.12205308203E+02 0.  0.
         22    1    3    3    0    0 -0.37774271332E+02 -0.22652386902E+02 -0.25626456815E+02  0.50958232857E+02  0.00000000000E+00 0. -1.
         22    1    4    4    0    0  0.17250502777E+02  0.41230447633E+01  0.20906746227E+01  0.17859178720E+02  0.00000000000E+00 0. -1.
         22    1    4    4    0    0  0.20523768555E+02  0.18529342139E+02  0.10176915550E+02  0.29464066350E+02  0.00000000000E+00 0. -1.
<mgrwt>
<rscale>  0 0.97369346E+02</rscale>
<asrwt>0</asrwt>
<pdfrwt beam="2">  1        1 0.85877188E-02 0.97369346E+02</pdfrwt>
<pdfrwt beam="1">  1       -1 0.65325085E-02 0.97369346E+02</pdfrwt>
<totfact> 0.79315216E+04</totfact>
</mgrwt>
</event>
<event>
 7    1  0.3301067E-009  0.9192178E+02  0.7818608E-02  0.1298263E+00
         -1   -1    0    0    0  501 -0.00000000000E+00  0.00000000000E+00  0.21320049834E+02  0.21320050430E+02  0.50400000000E-02 0.  1.
          1   -1    0    0  501    0  0.00000000000E+00 -0.00000000000E+00 -0.99080594473E+02  0.99080594602E+02  0.50400000000E-02 0. -1.
         23    2    1    2    0    0  0.00000000000E+00  0.00000000000E+00 -0.77760544639E+02  0.12040064503E+03  0.91921776644E+02 0.  0.
    9000005    2    3    3    0    0  0.14621440187E+02  0.17227887995E+02 -0.91227072856E+02  0.94096006274E+02  0.45927047619E+01 0.  0.
         22    1    3    3    0    0 -0.14621440187E+02 -0.17227887995E+02  0.13466528217E+02  0.26304638757E+02  0.00000000000E+00 0.  1.
         22    1    4    4    0    0  0.14162551770E+02  0.14480317803E+02 -0.81348628566E+02  0.83832313853E+02  0.00000000000E+00 0. -1.
         22    1    4    4    0    0  0.45888841663E+00  0.27475701924E+01 -0.98784442900E+01  0.10263692422E+02  0.00000000000E+00 0. -1.
<mgrwt>
<rscale>  0 0.91921777E+02</rscale>
<asrwt>0</asrwt>
<pdfrwt beam="2">  1        1 0.15243168E-01 0.91921777E+02</pdfrwt>
<pdfrwt beam="1">  1       -1 0.32800078E-02 0.91921777E+02</pdfrwt>
<totfact> 0.10199976E+05</totfact>
</mgrwt>
</event>
<event>
 7    1  0.3301067E-009  0.8901909E+02  0.7818608E-02  0.1305245E+00
         -1   -1    0    0    0  501 -0.00000000000E+00  0.00000000000E+00  0.56416287856E+02  0.56416288082E+02  0.50400000000E-02 0.  1.
          1   -1    0    0  501    0  0.00000000000E+00 -0.00000000000E+00 -0.35115739097E+02  0.35115739458E+02  0.50400000000E-02 0. -1.
         23    2    1    2    0    0 -0.71054273576E-14 -0.35527136788E-14  0.21300548760E+02  0.91532027540E+02  0.89019091706E+02 0.  0.
    9000005    2    3    3    0    0  0.20608376673E+02  0.30296350805E+02  0.34582756386E+02  0.52557791170E+02  0.14959288494E+02 0.  0.
         22    1    3    3    0    0 -0.20608376673E+02 -0.30296350805E+02 -0.13282207626E+02  0.38974236370E+02  0.00000000000E+00 0.  1.
         22    1    4    4    0    0  0.17936607769E+02  0.16635797972E+02  0.15584197043E+02  0.29005841996E+02  0.00000000000E+00 0.  1.
         22    1    4    4    0    0  0.26717689038E+01  0.13660552833E+02  0.18998559343E+02  0.23551949174E+02  0.00000000000E+00 0.  1.
<mgrwt>
<rscale>  0 0.89019092E+02</rscale>
<asrwt>0</asrwt>
<pdfrwt beam="2">  1        1 0.54024215E-02 0.89019092E+02</pdfrwt>
<pdfrwt beam="1">  1       -1 0.86794289E-02 0.89019092E+02</pdfrwt>
<totfact> 0.95115414E+04</totfact>
</mgrwt>
</event>
<event>
 7    1  0.3301067E-009  0.9103031E+02  0.7818608E-02  0.1300376E+00
         -1   -1    0    0    0  501 -0.00000000000E+00  0.00000000000E+00  0.28439704529E+03  0.28439704533E+03  0.50400000000E-02 0.  1.
          1   -1    0    0  501    0  0.00000000000E+00 -0.00000000000E+00 -0.72842847306E+01  0.72842864742E+01  0.50400000000E-02 0. -1.
         23    2    1    2    0    0  0.22204460493E-15  0.00000000000E+00  0.27711276056E+03  0.29168133181E+03  0.91030309573E+02 0.  0.
    9000005    2    3    3    0    0 -0.13785215025E+01  0.17870438337E+02  0.27210990063E+03  0.27307269147E+03  0.14270385999E+02 0.  0.
         22    1    3    3    0    0  0.13785215025E+01 -0.17870438337E+02  0.50028599301E+01  0.18608640342E+02  0.00000000000E+00 0. -1.
         22    1    4    4    0    0 -0.23901902671E+01 -0.17051032058E+01  0.21861676212E+02  0.22057952608E+02  0.00000000000E+00 0. -1.
         22    1    4    4    0    0  0.10116687646E+01  0.19575541543E+02  0.25024822442E+03  0.25101473886E+03  0.00000000000E+00 0. -1.
<mgrwt>
<rscale>  0 0.91030310E+02</rscale>
<asrwt>0</asrwt>
<pdfrwt beam="2">  1        1 0.11206595E-02 0.91030310E+02</pdfrwt>
<pdfrwt beam="1">  1       -1 0.43753386E-01 0.91030310E+02</pdfrwt>
<totfact> 0.62106583E+04</totfact>
</mgrwt>
</event>
<event>
 7    1  0.3301067E-009  0.9167143E+02  0.7818608E-02  0.1298854E+00
         -1   -1    0    0    0  501 -0.00000000000E+00  0.00000000000E+00  0.13386866145E+01  0.13386961020E+01  0.50400000000E-02 0.  1.
          1   -1    0    0  501    0  0.00000000000E+00 -0.00000000000E+00 -0.15693780837E+04  0.15693780837E+04  0.50400000000E-02 0. -1.
         23    2    1    2    0    0  0.00000000000E+00  0.00000000000E+00 -0.15680393971E+04  0.15707167798E+04  0.91671432653E+02 0.  0.
    9000005    2    3    3    0    0 -0.11797556829E+01 -0.20426155918E+02 -0.14848345669E+04  0.14850332724E+04  0.13096164489E+02 0.  0.
         22    1    3    3    0    0  0.11797556829E+01  0.20426155918E+02 -0.83204830200E+02  0.85683507384E+02  0.00000000000E+00 0.  1.
         22    1    4    4    0    0 -0.43470349744E+01 -0.88340033192E+00 -0.31411746667E+03  0.31414878636E+03  0.00000000000E+00 0.  1.
         22    1    4    4    0    0  0.31672792914E+01 -0.19542755586E+02 -0.11707171002E+04  0.11708844861E+04  0.00000000000E+00 0.  1.
<mgrwt>
<rscale>  0 0.91671433E+02</rscale>
<asrwt>0</asrwt>
<pdfrwt beam="2">  1        1 0.24144131E+00 0.91671433E+02</pdfrwt>
<pdfrwt beam="1">  1       -1 0.20595377E-03 0.91671433E+02</pdfrwt>
<totfact> 0.10477528E+05</totfact>
</mgrwt>
</event>
<event>
 7    1  0.3301067E-009  0.9198166E+02  0.7818608E-02  0.1298123E+00
          1   -1    0    0  501    0  0.00000000000E+00  0.00000000000E+00  0.10410028681E+03  0.10410028693E+03  0.50400000000E-02 0. -1.
         -1   -1    0    0    0  501 -0.00000000000E+00 -0.00000000000E+00 -0.20318447446E+02  0.20318448071E+02  0.50400000000E-02 0.  1.
         23    2    1    2    0    0  0.00000000000E+00  0.00000000000E+00  0.83781839363E+02  0.12441873500E+03  0.91981655847E+02 0.  0.
    9000005    2    3    3    0    0 -0.43050433156E+02  0.37428898762E+01  0.27640307157E+02  0.53572276671E+02  0.15448405368E+02 0.  0.
         22    1    3    3    0    0  0.43050433156E+02 -0.37428898762E+01  0.56141532206E+02  0.70846458331E+02  0.00000000000E+00 0. -1.
         22    1    4    4    0    0 -0.23120989840E+02  0.54030605386E+01  0.22968831467E+02  0.33035442381E+02  0.00000000000E+00 0.  1.
         22    1    4    4    0    0 -0.19929443316E+02 -0.16601706625E+01  0.46714756900E+01  0.20536834290E+02  0.00000000000E+00 0.  1.
<mgrwt>
<rscale>  0 0.91981656E+02</rscale>
<asrwt>0</asrwt>
<pdfrwt beam="1">  1        1 0.16015429E-01 0.91981656E+02</pdfrwt>
<pdfrwt beam="2">  1       -1 0.31259150E-02 0.91981656E+02</pdfrwt>
<totfact> 0.10266519E+05</totfact>
</mgrwt>
</event>
<event>
 7    1  0.4186269E-009  0.9038919E+02  0.7818608E-02  0.1301912E+00
          1   -1    0    0  501    0  0.00000000000E+00  0.00000000000E+00  0.61738330709E+03  0.61738330711E+03  0.50400000000E-02 0. -1.
         -1   -1    0    0    0  501 -0.00000000000E+00 -0.00000000000E+00 -0.33083985204E+01  0.33084023593E+01  0.50400000000E-02 0.  1.
         23    2    1    2    0    0 -0.35527136788E-14  0.44408920985E-15  0.61407490857E+03  0.62069170947E+03  0.90389185580E+02 0.  0.
    9000005    2    3    3    0    0 -0.20152973956E+02 -0.35885861858E+01  0.58302033015E+03  0.58349752779E+03  0.11731975842E+02 0.  0.
         22    1    3    3    0    0  0.20152973956E+02  0.35885861858E+01  0.31054578418E+02  0.37194181679E+02  0.00000000000E+00 0.  1.
         22    1    4    4    0    0 -0.12519169022E+02 -0.37426452704E+01  0.48658098088E+03  0.48675639486E+03  0.00000000000E+00 0.  1.
         22    1    4    4    0    0 -0.76338049339E+01  0.15405908459E+00  0.96439349274E+02  0.96741132929E+02  0.00000000000E+00 0.  1.
<mgrwt>
<rscale>  0 0.90389186E+02</rscale>
<asrwt>0</asrwt>
<pdfrwt beam="1">  1        1 0.94981994E-01 0.90389186E+02</pdfrwt>
<pdfrwt beam="2">  1       -1 0.50898497E-03 0.90389186E+02</pdfrwt>
<totfact> 0.14509818E+05</totfact>
</mgrwt>
</event>
<event>
 7    1  0.3301067E-009  0.9496349E+02  0.7818608E-02  0.1291258E+00
          1   -1    0    0  501    0  0.00000000000E+00  0.00000000000E+00  0.29633071671E+02  0.29633072099E+02  0.50400000000E-02 0. -1.
         -1   -1    0    0    0  501 -0.00000000000E+00 -0.00000000000E+00 -0.76081083384E+02  0.76081083550E+02  0.50400000000E-02 0.  1.
         23    2    1    2    0    0  0.71054273576E-14  0.00000000000E+00 -0.46448011713E+02  0.10571415565E+03  0.94963492526E+02 0.  0.
    9000005    2    3    3    0    0  0.44318908255E+02  0.91809080069E+01 -0.10909106597E+02  0.48168795476E+02  0.12359997984E+02 0.  0.
         22    1    3    3    0    0 -0.44318908255E+02 -0.91809080069E+01 -0.35538905116E+02  0.57545360174E+02  0.00000000000E+00 0.  1.
         22    1    4    4    0    0  0.33816820606E+02  0.13983224441E+01 -0.79013245270E+01  0.34755770612E+02  0.00000000000E+00 0. -1.
         22    1    4    4    0    0  0.10502087649E+02  0.77825855628E+01 -0.30077820698E+01  0.13413024864E+02  0.00000000000E+00 0. -1.
<mgrwt>
<rscale>  0 0.94963493E+02</rscale>
<asrwt>0</asrwt>
<pdfrwt beam="1">  1        1 0.45589342E-02 0.94963493E+02</pdfrwt>
<pdfrwt beam="2">  1       -1 0.11704782E-01 0.94963493E+02</pdfrwt>
<totfact> 0.76923002E+04</totfact>
</mgrwt>
</event>
<event>
 7    1  0.3301067E-009  0.9188429E+02  0.7818608E-02  0.1298352E+00
          1   -1    0    0  501    0  0.00000000000E+00  0.00000000000E+00  0.31389559887E+03  0.31389559891E+03  0.50400000000E-02 0. -1.
         -1   -1    0    0    0  501 -0.00000000000E+00 -0.00000000000E+00 -0.67241472604E+01  0.67241491493E+01  0.50400000000E-02 0.  1.
         23    2    1    2    0    0  0.00000000000E+00 -0.35527136788E-14  0.30717145161E+03  0.32061974806E+03  0.91884286806E+02 0.  0.
    9000005    2    3    3    0    0 -0.36251757792E+02  0.19341901716E+02  0.22315237813E+03  0.22709165702E+03  0.92378416511E+01 0.  0.
         22    1    3    3    0    0  0.36251757792E+02 -0.19341901716E+02  0.84019073480E+02  0.93528091039E+02  0.00000000000E+00 0.  1.
         22    1    4    4    0    0  0.51207138247E+00  0.39946302131E+00  0.60898834913E+01  0.61244157879E+01  0.00000000000E+00 0. -1.
         22    1    4    4    0    0 -0.36763829175E+02  0.18942438695E+02  0.21706249464E+03  0.22096724123E+03  0.00000000000E+00 0. -1.
<mgrwt>
<rscale>  0 0.91884287E+02</rscale>
<asrwt>0</asrwt>
<pdfrwt beam="1">  1        1 0.48291614E-01 0.91884287E+02</pdfrwt>
<pdfrwt beam="2">  1       -1 0.10344847E-02 0.91884287E+02</pdfrwt>
<totfact> 0.12658948E+05</totfact>
</mgrwt>
</event>
<event>
 7    1  0.3301067E-009  0.9181492E+02  0.7818608E-02  0.1298515E+00
         -1   -1    0    0    0  501 -0.00000000000E+00  0.00000000000E+00  0.12574192923E+02  0.12574193933E+02  0.50400000000E-02 0.  1.
          1   -1    0    0  501    0  0.00000000000E+00 -0.00000000000E+00 -0.16760479134E+03  0.16760479142E+03  0.50400000000E-02 0. -1.
         23    2    1    2    0    0  0.35527136788E-14  0.71054273576E-14 -0.15503059842E+03  0.18017898535E+03  0.91814924254E+02 0.  0.
    9000005    2    3    3    0    0 -0.19491704759E+02 -0.34305899173E+02 -0.34324249138E+02  0.53187473708E+02  0.96918526638E+01 0.  0.
         22    1    3    3    0    0  0.19491704759E+02  0.34305899173E+02 -0.12070634928E+03  0.12699151164E+03  0.00000000000E+00 0. -1.
         22    1    4    4    0    0 -0.26764964641E+01 -0.12357099290E+01 -0.53719473617E+01  0.61276774399E+01  0.00000000000E+00 0. -1.
         22    1    4    4    0    0 -0.16815208295E+02 -0.33070189244E+02 -0.28952301776E+02  0.47059796268E+02  0.00000000000E+00 0. -1.
<mgrwt>
<rscale>  0 0.91814924E+02</rscale>
<asrwt>0</asrwt>
<pdfrwt beam="2">  1        1 0.25785351E-01 0.91814924E+02</pdfrwt>
<pdfrwt beam="1">  1       -1 0.19344914E-02 0.91814924E+02</pdfrwt>
<totfact> 0.11233885E+05</totfact>
</mgrwt>
</event>
<event>
 7    1  0.3301067E-009  0.9027146E+02  0.7818608E-02  0.1302196E+00
          1   -1    0    0  501    0  0.00000000000E+00  0.00000000000E+00  0.34254670630E+02  0.34254671001E+02  0.50400000000E-02 0. -1.
         -1   -1    0    0    0  501 -0.00000000000E+00 -0.00000000000E+00 -0.59473174972E+02  0.59473175186E+02  0.50400000000E-02 0.  1.
         23    2    1    2    0    0 -0.88817841970E-15  0.00000000000E+00 -0.25218504342E+02  0.93727846186E+02  0.90271458332E+02 0.  0.
    9000005    2    3    3    0    0 -0.79872718199E+01  0.34447579167E+02  0.14732784412E+02  0.40374892241E+02  0.12753225683E+02 0.  0.
         22    1    3    3    0    0  0.79872718199E+01 -0.34447579167E+02 -0.39951288754E+02  0.53352953945E+02  0.00000000000E+00 0.  1.
         22    1    4    4    0    0  0.14684896519E+01  0.20595685902E+02  0.10037603686E+02  0.22958489223E+02  0.00000000000E+00 0.  1.
         22    1    4    4    0    0 -0.94557614719E+01  0.13851893265E+02  0.46951807263E+01  0.17416403018E+02  0.00000000000E+00 0.  1.
<mgrwt>
<rscale>  0 0.90271458E+02</rscale>
<asrwt>0</asrwt>
<pdfrwt beam="1">  1        1 0.52699494E-02 0.90271458E+02</pdfrwt>
<pdfrwt beam="2">  1       -1 0.91497192E-02 0.90271458E+02</pdfrwt>
<totfact> 0.91075278E+04</totfact>
</mgrwt>
</event>
<event>
 7    1  0.3301067E-009  0.9020509E+02  0.7818608E-02  0.1302356E+00
         -1   -1    0    0    0  501 -0.00000000000E+00  0.00000000000E+00  0.55589082191E+01  0.55589105039E+01  0.50400000000E-02 0.  1.
          1   -1    0    0  501    0  0.00000000000E+00 -0.00000000000E+00 -0.36594218492E+03  0.36594218496E+03  0.50400000000E-02 0. -1.
         23    2    1    2    0    0  0.00000000000E+00 -0.35527136788E-14 -0.36038327670E+03  0.37150109546E+03  0.90205087447E+02 0.  0.
    9000005    2    3    3    0    0 -0.24587065332E+02  0.29043804274E+02 -0.27986109156E+03  0.28243994429E+03  0.14230989331E+01 0.  0.
         22    1    3    3    0    0  0.24587065332E+02 -0.29043804274E+02 -0.80522185138E+02  0.89061151170E+02  0.00000000000E+00 0.  1.
         22    1    4    4    0    0 -0.37226796944E+01  0.46594547497E+01 -0.40350120454E+02  0.40788492045E+02  0.00000000000E+00 0. -1.
         22    1    4    4    0    0 -0.20864385637E+02  0.24384349525E+02 -0.23951097111E+03  0.24165145224E+03  0.00000000000E+00 0. -1.
<mgrwt>
<rscale>  0 0.90205087E+02</rscale>
<asrwt>0</asrwt>
<pdfrwt beam="2">  1        1 0.56298779E-01 0.90205087E+02</pdfrwt>
<pdfrwt beam="1">  1       -1 0.85521712E-03 0.90205087E+02</pdfrwt>
<totfact> 0.13670609E+05</totfact>
</mgrwt>
</event>
<event>
 7    1  0.3301067E-009  0.9095286E+02  0.7818608E-02  0.1300560E+00
         -1   -1    0    0    0  501 -0.00000000000E+00  0.00000000000E+00  0.96743366928E+02  0.96743367059E+02  0.50400000000E-02 0.  1.
          1   -1    0    0  501    0  0.00000000000E+00 -0.00000000000E+00 -0.21377232802E+02  0.21377233396E+02  0.50400000000E-02 0. -1.
         23    2    1    2    0    0  0.00000000000E+00  0.00000000000E+00  0.75366134126E+02  0.11812060046E+03  0.90952856353E+02 0.  0.
    9000005    2    3    3    0    0  0.26963270477E+02 -0.31150613855E+02  0.60739248376E+02  0.74401903253E+02  0.12206892152E+02 0.  0.
         22    1    3    3    0    0 -0.26963270477E+02  0.31150613855E+02  0.14626885750E+02  0.43718697203E+02  0.00000000000E+00 0. -1.
         22    1    4    4    0    0  0.85778767010E+01 -0.17863575184E+02  0.22894798116E+02  0.30279680775E+02  0.00000000000E+00 0. -1.
         22    1    4    4    0    0  0.18385393776E+02 -0.13287038671E+02  0.37844450259E+02  0.44122222478E+02  0.00000000000E+00 0. -1.
<mgrwt>
<rscale>  0 0.90952856E+02</rscale>
<asrwt>0</asrwt>
<pdfrwt beam="2">  1        1 0.32888051E-02 0.90952856E+02</pdfrwt>
<pdfrwt beam="1">  1       -1 0.14883595E-01 0.90952856E+02</pdfrwt>
<totfact> 0.82389175E+04</totfact>
</mgrwt>
</event>
<event>
 7    1  0.3301067E-009  0.9060425E+02  0.7818608E-02  0.1301395E+00
         -1   -1    0    0    0  501 -0.00000000000E+00  0.00000000000E+00  0.89177192754E+02  0.89177192897E+02  0.50400000000E-02 0.  1.
          1   -1    0    0  501    0  0.00000000000E+00 -0.00000000000E+00 -0.23013537348E+02  0.23013537900E+02  0.50400000000E-02 0. -1.
         23    2    1    2    0    0  0.35527136788E-14  0.35527136788E-14  0.66163655406E+02  0.11219073080E+03  0.90604253652E+02 0.  0.
    9000005    2    3    3    0    0  0.25338812365E+02  0.30931351232E+02  0.69215062556E+01  0.40717406142E+02  0.33460443684E+01 0.  0.
         22    1    3    3    0    0 -0.25338812365E+02 -0.30931351232E+02  0.59242149151E+02  0.71473324654E+02  0.00000000000E+00 0. -1.
         22    1    4    4    0    0  0.18059032221E+02  0.20273470556E+02  0.57918106437E+01  0.27761255802E+02  0.00000000000E+00 0.  1.
         22    1    4    4    0    0  0.72797801442E+01  0.10657880676E+02  0.11296956119E+01  0.12956150340E+02  0.00000000000E+00 0.  1.
<mgrwt>
<rscale>  0 0.90604254E+02</rscale>
<asrwt>0</asrwt>
<pdfrwt beam="2">  1        1 0.35405442E-02 0.90604254E+02</pdfrwt>
<pdfrwt beam="1">  1       -1 0.13719568E-01 0.90604254E+02</pdfrwt>
<totfact> 0.84430965E+04</totfact>
</mgrwt>
</event>
<event>
 7    1  0.3301067E-009  0.9187834E+02  0.7818608E-02  0.1298366E+00
         -1   -1    0    0    0  501 -0.00000000000E+00  0.00000000000E+00  0.10702793151E+02  0.10702794337E+02  0.50400000000E-02 0.  1.
          1   -1    0    0  501    0  0.00000000000E+00 -0.00000000000E+00 -0.19718284394E+03  0.19718284400E+03  0.50400000000E-02 0. -1.
         23    2    1    2    0    0 -0.17763568394E-14  0.00000000000E+00 -0.18648005079E+03  0.20788563834E+03  0.91878339593E+02 0.  0.
    9000005    2    3    3    0    0  0.12835365790E+02  0.42640221384E+02 -0.10317031584E+03  0.11342163974E+03  0.15408413155E+02 0.  0.
         22    1    3    3    0    0 -0.12835365790E+02 -0.42640221384E+02 -0.83309734947E+02  0.94463998600E+02  0.00000000000E+00 0.  1.
         22    1    4    4    0    0  0.12261940985E+00  0.23758359151E+02 -0.43647718117E+02  0.49695049672E+02  0.00000000000E+00 0.  1.
         22    1    4    4    0    0  0.12712746380E+02  0.18881862233E+02 -0.59522597725E+02  0.63726590069E+02  0.00000000000E+00 0.  1.
<mgrwt>
<rscale>  0 0.91878340E+02</rscale>
<asrwt>0</asrwt>
<pdfrwt beam="2">  1        1 0.30335819E-01 0.91878340E+02</pdfrwt>
<pdfrwt beam="1">  1       -1 0.16465838E-02 0.91878340E+02</pdfrwt>
<totfact> 0.11567510E+05</totfact>
</mgrwt>
</event>
<event>
 7    1  0.3301067E-009  0.9456481E+02  0.7818608E-02  0.1292159E+00
         -1   -1    0    0    0  501 -0.00000000000E+00  0.00000000000E+00  0.18488033126E+03  0.18488033133E+03  0.50400000000E-02 0.  1.
          1   -1    0    0  501    0  0.00000000000E+00 -0.00000000000E+00 -0.12092285860E+02  0.12092286910E+02  0.50400000000E-02 0. -1.
         23    2    1    2    0    0 -0.71054273576E-14 -0.17763568394E-14  0.17278804540E+03  0.19697261824E+03  0.94564812180E+02 0.  0.
    9000005    2    3    3    0    0  0.44220866181E+02  0.15227791493E+02  0.96543879217E+02  0.10752686084E+03  0.73440144604E+01 0.  0.
         22    1    3    3    0    0 -0.44220866181E+02 -0.15227791493E+02  0.76244166187E+02  0.89445757402E+02  0.00000000000E+00 0.  1.
         22    1    4    4    0    0  0.37446804928E+02  0.14701018540E+02  0.86543193998E+02  0.95436405909E+02  0.00000000000E+00 0. -1.
         22    1    4    4    0    0  0.67740612532E+01  0.52677295290E+00  0.10000685219E+02  0.12090454932E+02  0.00000000000E+00 0. -1.
<mgrwt>
<rscale>  0 0.94564812E+02</rscale>
<asrwt>0</asrwt>
<pdfrwt beam="2">  1        1 0.18603517E-02 0.94564812E+02</pdfrwt>
<pdfrwt beam="1">  1       -1 0.28443128E-01 0.94564812E+02</pdfrwt>
<totfact> 0.64519529E+04</totfact>
</mgrwt>
</event>
<event>
 7    1  0.3301067E-009  0.8937586E+02  0.7818608E-02  0.1304370E+00
         -1   -1    0    0    0  501 -0.00000000000E+00  0.00000000000E+00  0.12570195542E+02  0.12570196552E+02  0.50400000000E-02 0.  1.
          1   -1    0    0  501    0  0.00000000000E+00 -0.00000000000E+00 -0.15886872535E+03  0.15886872543E+03  0.50400000000E-02 0. -1.
         23    2    1    2    0    0  0.71054273576E-14  0.00000000000E+00 -0.14629852980E+03  0.17143892198E+03  0.89375858855E+02 0.  0.
    9000005    2    3    3    0    0  0.40879630124E+02 -0.14683688655E+02 -0.67666619222E+02  0.81607233619E+02  0.13936080883E+02 0.  0.
         22    1    3    3    0    0 -0.40879630124E+02  0.14683688655E+02 -0.78631910583E+02  0.89831688359E+02  0.00000000000E+00 0. -1.
         22    1    4    4    0    0  0.39682473036E+02 -0.11556337333E+02 -0.65983714184E+02  0.77859476856E+02  0.00000000000E+00 0.  1.
         22    1    4    4    0    0  0.11971570885E+01 -0.31273513217E+01 -0.16829050375E+01  0.37477567623E+01  0.00000000000E+00 0.  1.
<mgrwt>
<rscale>  0 0.89375859E+02</rscale>
<asrwt>0</asrwt>
<pdfrwt beam="2">  1        1 0.24441341E-01 0.89375859E+02</pdfrwt>
<pdfrwt beam="1">  1       -1 0.19338764E-02 0.89375859E+02</pdfrwt>
<totfact> 0.11957635E+05</totfact>
</mgrwt>
</event>
<event>
 7    1  0.3301067E-009  0.9121630E+02  0.7818608E-02  0.1299933E+00
          1   -1    0    0  501    0  0.00000000000E+00  0.00000000000E+00  0.11281536040E+03  0.11281536051E+03  0.50400000000E-02 0. -1.
         -1   -1    0    0    0  501 -0.00000000000E+00 -0.00000000000E+00 -0.18438121934E+02  0.18438122623E+02  0.50400000000E-02 0.  1.
         23    2    1    2    0    0 -0.17763568394E-14  0.00000000000E+00  0.94377238465E+02  0.13125348313E+03  0.91216301694E+02 0.  0.
    9000005    2    3    3    0    0 -0.97118341490E+01  0.17628314241E+02  0.10565863512E+03  0.10818083491E+03  0.11587436417E+02 0.  0.
         22    1    3    3    0    0  0.97118341490E+01 -0.17628314241E+02 -0.11281396651E+02  0.23072648220E+02  0.00000000000E+00 0.  1.
         22    1    4    4    0    0 -0.11364409720E+02  0.10865860876E+02  0.61565413228E+02  0.63541457701E+02  0.00000000000E+00 0.  1.
         22    1    4    4    0    0  0.16525755712E+01  0.67624533645E+01  0.44093221887E+02  0.44639377212E+02  0.00000000000E+00 0.  1.
<mgrwt>
<rscale>  0 0.91216302E+02</rscale>
<asrwt>0</asrwt>
<pdfrwt beam="1">  1        1 0.17356210E-01 0.91216302E+02</pdfrwt>
<pdfrwt beam="2">  1       -1 0.28366341E-02 0.91216302E+02</pdfrwt>
<totfact> 0.10647279E+05</totfact>
</mgrwt>
</event>
<event>
 7    1  0.3301067E-009  0.9146182E+02  0.7818608E-02  0.1299350E+00
          1   -1    0    0  501    0  0.00000000000E+00  0.00000000000E+00  0.46024811627E+02  0.46024811903E+02  0.50400000000E-02 0. -1.
         -1   -1    0    0    0  501 -0.00000000000E+00 -0.00000000000E+00 -0.45438879969E+02  0.45438880249E+02  0.50400000000E-02 0.  1.
         23    2    1    2    0    0 -0.35527136788E-14  0.00000000000E+00  0.58593165781E+00  0.91463692152E+02  0.91461815345E+02 0.  0.
    9000005    2    3    3    0    0 -0.26915252379E+02 -0.36565917066E+02  0.45096618606E+01  0.45890753249E+02  0.49119326341E+01 0.  0.
         22    1    3    3    0    0  0.26915252379E+02  0.36565917066E+02 -0.39237302028E+01  0.45572938902E+02  0.00000000000E+00 0.  1.
         22    1    4    4    0    0 -0.54822097400E+00  0.46308664478E-01  0.55556038916E-01  0.55297124898E+00  0.00000000000E+00 0.  1.
         22    1    4    4    0    0 -0.26367031405E+02 -0.36612225730E+02  0.44541058217E+01  0.45337782000E+02  0.00000000000E+00 0.  1.
<mgrwt>
<rscale>  0 0.91461815E+02</rscale>
<asrwt>0</asrwt>
<pdfrwt beam="1">  1        1 0.70807403E-02 0.91461815E+02</pdfrwt>
<pdfrwt beam="2">  1       -1 0.69905970E-02 0.91461815E+02</pdfrwt>
<totfact> 0.91796534E+04</totfact>
</mgrwt>
</event>
<event>
 7    1  0.3301067E-009  0.8966716E+02  0.7818608E-02  0.1303660E+00
         -1   -1    0    0    0  501 -0.00000000000E+00  0.00000000000E+00  0.38200104515E+02  0.38200104848E+02  0.50400000000E-02 0.  1.
          1   -1    0    0  501    0  0.00000000000E+00 -0.00000000000E+00 -0.52618957048E+02  0.52618957289E+02  0.50400000000E-02 0. -1.
         23    2    1    2    0    0  0.17763568394E-14  0.35527136788E-14 -0.14418852533E+02  0.90819062137E+02  0.89667155297E+02 0.  0.
    9000005    2    3    3    0    0  0.80685969839E+01  0.16758850173E+02  0.33085515485E+02  0.39803120538E+02  0.11986482105E+02 0.  0.
         22    1    3    3    0    0 -0.80685969839E+01 -0.16758850173E+02 -0.47504368018E+02  0.51015941599E+02  0.00000000000E+00 0. -1.
         22    1    4    4    0    0 -0.11305095188E+01  0.90056664399E+01  0.20357507438E+02  0.22289194442E+02  0.00000000000E+00 0.  1.
         22    1    4    4    0    0  0.91991065027E+01  0.77531837334E+01  0.12728008048E+02  0.17513926096E+02  0.00000000000E+00 0.  1.
<mgrwt>
<rscale>  0 0.89667155E+02</rscale>
<asrwt>0</asrwt>
<pdfrwt beam="2">  1        1 0.80952242E-02 0.89667155E+02</pdfrwt>
<pdfrwt beam="1">  1       -1 0.58769392E-02 0.89667155E+02</pdfrwt>
<totfact> 0.98978763E+04</totfact>
</mgrwt>
</event>
<event>
 7    1  0.3301067E-009  0.8968892E+02  0.7818608E-02  0.1303607E+00
          1   -1    0    0  501    0  0.00000000000E+00  0.00000000000E+00  0.13839509678E+02  0.13839510596E+02  0.50400000000E-02 0. -1.
         -1   -1    0    0    0  501 -0.00000000000E+00 -0.00000000000E+00 -0.14531046805E+03  0.14531046813E+03  0.50400000000E-02 0.  1.
         23    2    1    2    0    0  0.00000000000E+00  0.22204460493E-15 -0.13147095837E+03  0.15914997873E+03  0.89688922589E+02 0.  0.
    9000005    2    3    3    0    0  0.26885956886E+02 -0.16701948674E+01 -0.69032667400E+01  0.31702915106E+02  0.15224175050E+02 0.  0.
         22    1    3    3    0    0 -0.26885956886E+02  0.16701948674E+01 -0.12456769163E+03  0.12744706362E+03  0.00000000000E+00 0.  1.
         22    1    4    4    0    0  0.35198942997E+01  0.96318139424E+00  0.43139122106E+01  0.56504170501E+01  0.00000000000E+00 0.  1.
         22    1    4    4    0    0  0.23366062587E+02 -0.26333762616E+01 -0.11217178951E+02  0.26052498056E+02  0.00000000000E+00 0.  1.
<mgrwt>
<rscale>  0 0.89688923E+02</rscale>
<asrwt>0</asrwt>
<pdfrwt beam="1">  1        1 0.21291555E-02 0.89688923E+02</pdfrwt>
<pdfrwt beam="2">  1       -1 0.22355456E-01 0.89688923E+02</pdfrwt>
<totfact> 0.78622737E+04</totfact>
</mgrwt>
</event>
<event>
 7    1  0.3301067E-009  0.1135752E+03  0.7818608E-02  0.1254089E+00
         -1   -1    0    0    0  501 -0.00000000000E+00  0.00000000000E+00  0.49704858944E+02  0.49704859200E+02  0.50400000000E-02 0.  1.
          1   -1    0    0  501    0  0.00000000000E+00 -0.00000000000E+00 -0.64879643957E+02  0.64879644153E+02  0.50400000000E-02 0. -1.
         23    2    1    2    0    0  0.00000000000E+00  0.00000000000E+00 -0.15174785013E+02  0.11458450335E+03  0.11357523633E+03 0.  0.
    9000005    2    3    3    0    0 -0.40883181154E+02  0.10589052737E+02  0.30144529377E+02  0.52637729458E+02  0.88586326269E+01 0.  0.
         22    1    3    3    0    0  0.40883181154E+02 -0.10589052737E+02 -0.45319314390E+02  0.61946773895E+02  0.00000000000E+00 0. -1.
         22    1    4    4    0    0 -0.61051563013E+00  0.14647069953E+01  0.24436954102E+01  0.29137163854E+01  0.00000000000E+00 0. -1.
         22    1    4    4    0    0 -0.40272665524E+02  0.91243457414E+01  0.27700833967E+02  0.49724013073E+02  0.00000000000E+00 0. -1.
<mgrwt>
<rscale>  0 0.11357524E+03</rscale>
<asrwt>0</asrwt>
<pdfrwt beam="2">  1        1 0.99814837E-02 0.11357524E+03</pdfrwt>
<pdfrwt beam="1">  1       -1 0.76469014E-02 0.11357524E+03</pdfrwt>
<totfact> 0.52563329E+04</totfact>
</mgrwt>
</event>
<event>
 7    1  0.3301067E-009  0.9117657E+02  0.7818608E-02  0.1300027E+00
          1   -1    0    0  501    0  0.00000000000E+00  0.00000000000E+00  0.28514438993E+02  0.28514439439E+02  0.50400000000E-02 0. -1.
         -1   -1    0    0    0  501 -0.00000000000E+00 -0.00000000000E+00 -0.72885586379E+02  0.72885586554E+02  0.50400000000E-02 0.  1.
         23    2    1    2    0    0  0.00000000000E+00  0.00000000000E+00 -0.44371147386E+02  0.10140002599E+03  0.91176567992E+02 0.  0.
    9000005    2    3    3    0    0  0.43513789536E+01  0.33912523543E+02 -0.55626568238E+02  0.65404495014E+02  0.37998845082E+01 0.  0.
         22    1    3    3    0    0 -0.43513789536E+01 -0.33912523543E+02  0.11255420852E+02  0.35995530978E+02  0.00000000000E+00 0. -1.
         22    1    4    4    0    0  0.13825792826E+01  0.25915399303E+01 -0.45367204522E+01  0.54045755748E+01  0.00000000000E+00 0.  1.
         22    1    4    4    0    0  0.29687996710E+01  0.31320983612E+02 -0.51089847786E+02  0.59999919439E+02  0.00000000000E+00 0.  1.
<mgrwt>
<rscale>  0 0.91176568E+02</rscale>
<asrwt>0</asrwt>
<pdfrwt beam="1">  1        1 0.43868369E-02 0.91176568E+02</pdfrwt>
<pdfrwt beam="2">  1       -1 0.11213167E-01 0.91176568E+02</pdfrwt>
<totfact> 0.85972932E+04</totfact>
</mgrwt>
</event>
<event>
 7    1  0.3301067E-009  0.9209668E+02  0.7818608E-02  0.1297852E+00
          1   -1    0    0  501    0  0.00000000000E+00  0.00000000000E+00  0.27510034451E+03  0.27510034456E+03  0.50400000000E-02 0. -1.
         -1   -1    0    0    0  501 -0.00000000000E+00 -0.00000000000E+00 -0.77079120292E+01  0.77079136769E+01  0.50400000000E-02 0.  1.
         23    2    1    2    0    0 -0.88817841970E-15  0.00000000000E+00  0.26739243248E+03  0.28280825823E+03  0.92096677339E+02 0.  0.
    9000005    2    3    3    0    0  0.48236648366E+01 -0.13255066476E+02  0.26803029744E+03  0.26868836442E+03  0.12419029665E+02 0.  0.
         22    1    3    3    0    0 -0.48236648366E+01  0.13255066476E+02 -0.63786495655E+00  0.14119893818E+02  0.00000000000E+00 0.  1.
         22    1    4    4    0    0  0.29156288616E+00  0.13682034417E+01  0.87181798751E+02  0.87193021642E+02  0.00000000000E+00 0.  1.
         22    1    4    4    0    0  0.45321019504E+01 -0.14623269918E+02  0.18084849869E+03  0.18149534277E+03  0.00000000000E+00 0.  1.
<mgrwt>
<rscale>  0 0.92096677E+02</rscale>
<asrwt>0</asrwt>
<pdfrwt beam="1">  1        1 0.42323121E-01 0.92096677E+02</pdfrwt>
<pdfrwt beam="2">  1       -1 0.11858330E-02 0.92096677E+02</pdfrwt>
<totfact> 0.12266736E+05</totfact>
</mgrwt>
</event>
<event>
 7    1  0.4036786E-009  0.9386382E+02  0.7818608E-02  0.1293756E+00
          1   -1    0    0  501    0  0.00000000000E+00  0.00000000000E+00  0.34170132805E+03  0.34170132809E+03  0.50400000000E-02 0. -1.
         -1   -1    0    0    0  501 -0.00000000000E+00 -0.00000000000E+00 -0.64459920778E+01  0.64459940482E+01  0.50400000000E-02 0.  1.
         23    2    1    2    0    0  0.71054273576E-14  0.35527136788E-14  0.33525533598E+03  0.34814732214E+03  0.93863824833E+02 0.  0.
    9000005    2    3    3    0    0 -0.34008215156E+02 -0.25856612953E+02  0.11313212393E+03  0.12195305947E+03  0.15765408949E+02 0.  0.
         22    1    3    3    0    0  0.34008215156E+02  0.25856612953E+02  0.22212321205E+03  0.22619426267E+03  0.00000000000E+00 0.  1.
         22    1    4    4    0    0 -0.40845854001E+01 -0.11250385620E+02  0.24364927725E+02  0.27145988977E+02  0.00000000000E+00 0.  1.
         22    1    4    4    0    0 -0.29923629756E+02 -0.14606227333E+02  0.88767196201E+02  0.94807070496E+02  0.00000000000E+00 0.  1.
<mgrwt>
<rscale>  0 0.93863825E+02</rscale>
<asrwt>0</asrwt>
<pdfrwt beam="1">  1        1 0.52569434E-01 0.93863825E+02</pdfrwt>
<pdfrwt beam="2">  1       -1 0.99169126E-03 0.93863825E+02</pdfrwt>
<totfact> 0.12148665E+05</totfact>
</mgrwt>
</event>
<event>
 7    1  0.3301067E-009  0.9451629E+02  0.7818608E-02  0.1292269E+00
          1   -1    0    0  501    0  0.00000000000E+00  0.00000000000E+00  0.10508123798E+02  0.10508125006E+02  0.50400000000E-02 0. -1.
         -1   -1    0    0    0  501 -0.00000000000E+00 -0.00000000000E+00 -0.21253385377E+03  0.21253385383E+03  0.50400000000E-02 0.  1.
         23    2    1    2    0    0  0.71054273576E-14  0.00000000000E+00 -0.20202572997E+03  0.22304197884E+03  0.94516288291E+02 0.  0.
    9000005    2    3    3    0    0 -0.37561268938E+02  0.97771950744E+01 -0.43174435049E+02  0.59517740980E+02  0.13110575187E+02 0.  0.
         22    1    3    3    0    0  0.37561268938E+02 -0.97771950744E+01 -0.15885129492E+03  0.16352423786E+03  0.00000000000E+00 0.  1.
         22    1    4    4    0    0 -0.25768799363E+02  0.87951679320E+01 -0.37635404688E+02  0.46452230146E+02  0.00000000000E+00 0. -1.
         22    1    4    4    0    0 -0.11792469575E+02  0.98202714248E+00 -0.55390303616E+01  0.13065510833E+02  0.00000000000E+00 0. -1.
<mgrwt>
<rscale>  0 0.94516288E+02</rscale>
<asrwt>0</asrwt>
<pdfrwt beam="1">  1        1 0.16166347E-02 0.94516288E+02</pdfrwt>
<pdfrwt beam="2">  1       -1 0.32697513E-01 0.94516288E+02</pdfrwt>
<totfact> 0.62085071E+04</totfact>
</mgrwt>
</event>
<event>
 7    1  0.3301067E-009  0.9334206E+02  0.7818608E-02  0.1294954E+00
         -1   -1    0    0    0  501 -0.00000000000E+00  0.00000000000E+00  0.19308177217E+03  0.19308177224E+03  0.50400000000E-02 0.  1.
          1   -1    0    0  501    0  0.00000000000E+00 -0.00000000000E+00 -0.11281153697E+02  0.11281154822E+02  0.50400000000E-02 0. -1.
         23    2    1    2    0    0  0.00000000000E+00  0.00000000000E+00  0.18180061847E+03  0.20436292706E+03  0.93342064893E+02 0.  0.
    9000005    2    3    3    0    0  0.28111826598E+02  0.33835592957E+02  0.62583316154E+02  0.77288589296E+02  0.11033242005E+02 0.  0.
         22    1    3    3    0    0 -0.28111826598E+02 -0.33835592957E+02  0.11921730232E+03  0.12707433776E+03  0.00000000000E+00 0.  1.
         22    1    4    4    0    0  0.25399658169E+02  0.25810935413E+02  0.44916793329E+02  0.57696320030E+02  0.00000000000E+00 0.  1.
         22    1    4    4    0    0  0.27121684291E+01  0.80246575431E+01  0.17666522826E+02  0.19592269267E+02  0.00000000000E+00 0.  1.
<mgrwt>
<rscale>  0 0.93342065E+02</rscale>
<asrwt>0</asrwt>
<pdfrwt beam="2">  1        1 0.17355624E-02 0.93342065E+02</pdfrwt>
<pdfrwt beam="1">  1       -1 0.29704885E-01 0.93342065E+02</pdfrwt>
<totfact> 0.65954866E+04</totfact>
</mgrwt>
</event>
<event>
 7    1  0.3301067E-009  0.9035546E+02  0.7818608E-02  0.1301993E+00
          1   -1    0    0  501    0  0.00000000000E+00  0.00000000000E+00  0.12521290166E+03  0.12521290177E+03  0.50400000000E-02 0. -1.
         -1   -1    0    0    0  501 -0.00000000000E+00 -0.00000000000E+00 -0.16300454353E+02  0.16300455132E+02  0.50400000000E-02 0.  1.
         23    2    1    2    0    0  0.00000000000E+00  0.00000000000E+00  0.10891244731E+03  0.14151335690E+03  0.90355459167E+02 0.  0.
    9000005    2    3    3    0    0  0.15510920038E+02  0.37222146753E+02  0.84946047967E+02  0.94604241079E+02  0.10394927403E+02 0.  0.
         22    1    3    3    0    0 -0.15510920038E+02 -0.37222146753E+02  0.23966399344E+02  0.46909115818E+02  0.00000000000E+00 0. -1.
         22    1    4    4    0    0  0.33890488473E+01  0.18077503899E+02  0.30284259672E+02  0.35431880887E+02  0.00000000000E+00 0. -1.
         22    1    4    4    0    0  0.12121871191E+02  0.19144642855E+02  0.54661788294E+02  0.59172360192E+02  0.00000000000E+00 0. -1.
<mgrwt>
<rscale>  0 0.90355459E+02</rscale>
<asrwt>0</asrwt>
<pdfrwt beam="1">  1        1 0.19263523E-01 0.90355459E+02</pdfrwt>
<pdfrwt beam="2">  1       -1 0.25077623E-02 0.90355459E+02</pdfrwt>
<totfact> 0.11123471E+05</totfact>
</mgrwt>
</event>
<event>
 7    1  0.3301067E-009  0.1045214E+03  0.7818608E-02  0.1271065E+00
          1   -1    0    0  501    0  0.00000000000E+00  0.00000000000E+00  0.33290209885E+02  0.33290210267E+02  0.50400000000E-02 0. -1.
         -1   -1    0    0    0  501 -0.00000000000E+00 -0.00000000000E+00 -0.82041636821E+02  0.82041636976E+02  0.50400000000E-02 0.  1.
         23    2    1    2    0    0  0.55511151231E-15  0.00000000000E+00 -0.48751426936E+02  0.11533184724E+03  0.10452144928E+03 0.  0.
    9000005    2    3    3    0    0 -0.31851668078E+00  0.32686968095E+02  0.18645343128E+02  0.40426146851E+02  0.14767707770E+02 0.  0.
         22    1    3    3    0    0  0.31851668078E+00 -0.32686968095E+02 -0.67396770064E+02  0.74905700392E+02  0.00000000000E+00 0.  1.
         22    1    4    4    0    0  0.55705596402E+01  0.22342716566E+02  0.16507830553E+02  0.28332606442E+02  0.00000000000E+00 0. -1.
         22    1    4    4    0    0 -0.58890763210E+01  0.10344251529E+02  0.21375125743E+01  0.12093540409E+02  0.00000000000E+00 0. -1.
<mgrwt>
<rscale>  0 0.10452145E+03</rscale>
<asrwt>0</asrwt>
<pdfrwt beam="1">  1        1 0.51215708E-02 0.10452145E+03</pdfrwt>
<pdfrwt beam="2">  1       -1 0.12621790E-01 0.10452145E+03</pdfrwt>
<totfact> 0.59367803E+04</totfact>
</mgrwt>
</event>
<event>
 7    1  0.3301067E-009  0.9913211E+02  0.7818608E-02  0.1282132E+00
          1   -1    0    0  501    0  0.00000000000E+00  0.00000000000E+00  0.15496375654E+03  0.15496375662E+03  0.50400000000E-02 0. -1.
         -1   -1    0    0    0  501 -0.00000000000E+00 -0.00000000000E+00 -0.15853989683E+02  0.15853990484E+02  0.50400000000E-02 0.  1.
         23    2    1    2    0    0  0.00000000000E+00 -0.35527136788E-14  0.13910976685E+03  0.17081774710E+03  0.99132111301E+02 0.  0.
    9000005    2    3    3    0    0  0.29307925033E+02 -0.22209761035E+02  0.12553258200E+03  0.13161866671E+03  0.14588225669E+02 0.  0.
         22    1    3    3    0    0 -0.29307925033E+02  0.22209761035E+02  0.13577184853E+02  0.39199080391E+02  0.00000000000E+00 0.  1.
         22    1    4    4    0    0  0.15502390179E+01 -0.53266895247E+01  0.34915741084E+02  0.35353724524E+02  0.00000000000E+00 0. -1.
         22    1    4    4    0    0  0.27757686015E+02 -0.16883071510E+02  0.90616840915E+02  0.96264942186E+02  0.00000000000E+00 0. -1.
<mgrwt>
<rscale>  0 0.99132111E+02</rscale>
<asrwt>0</asrwt>
<pdfrwt beam="1">  1        1 0.23840577E-01 0.99132111E+02</pdfrwt>
<pdfrwt beam="2">  1       -1 0.24390755E-02 0.99132111E+02</pdfrwt>
<totfact> 0.89920424E+04</totfact>
</mgrwt>
</event>
<event>
 7    1  0.3301067E-009  0.9582767E+02  0.7818608E-02  0.1289323E+00
         -1   -1    0    0    0  501 -0.00000000000E+00  0.00000000000E+00  0.64560513227E+01  0.64560532900E+01  0.50400000000E-02 0.  1.
          1   -1    0    0  501    0  0.00000000000E+00 -0.00000000000E+00 -0.35559432341E+03  0.35559432344E+03  0.50400000000E-02 0. -1.
         23    2    1    2    0    0  0.00000000000E+00  0.00000000000E+00 -0.34913827208E+03  0.36205037673E+03  0.95827669586E+02 0.  0.
    9000005    2    3    3    0    0 -0.33259771066E+02 -0.99878781127E+01 -0.29747229118E+03  0.29979811843E+03  0.13534316219E+02 0.  0.
         22    1    3    3    0    0  0.33259771066E+02  0.99878781127E+01 -0.51665980903E+02  0.62252258298E+02  0.00000000000E+00 0.  1.
         22    1    4    4    0    0  0.12678625466E+01 -0.53434169194E+00 -0.75818338242E+01  0.77056602974E+01  0.00000000000E+00 0. -1.
         22    1    4    4    0    0 -0.34527633613E+02 -0.94535364207E+01 -0.28989045736E+03  0.29209245814E+03  0.00000000000E+00 0. -1.
<mgrwt>
<rscale>  0 0.95827670E+02</rscale>
<asrwt>0</asrwt>
<pdfrwt beam="2">  1        1 0.54706804E-01 0.95827670E+02</pdfrwt>
<pdfrwt beam="1">  1       -1 0.99323909E-03 0.95827670E+02</pdfrwt>
<totfact> 0.11577866E+05</totfact>
</mgrwt>
</event>
<event>
 7    1  0.3301067E-009  0.8152387E+02  0.7818608E-02  0.1324782E+00
         -1   -1    0    0    0  501 -0.00000000000E+00  0.00000000000E+00  0.12318172284E+03  0.12318172295E+03  0.50400000000E-02 0.  1.
          1   -1    0    0  501    0  0.00000000000E+00 -0.00000000000E+00 -0.13488487757E+02  0.13488488699E+02  0.50400000000E-02 0. -1.
         23    2    1    2    0    0  0.00000000000E+00  0.00000000000E+00  0.10969323509E+03  0.13667021165E+03  0.81523867226E+02 0.  0.
    9000005    2    3    3    0    0 -0.27033512153E+02 -0.12147559737E+02  0.99967427798E+02  0.10547781972E+03  0.15928271864E+02 0.  0.
         22    1    3    3    0    0  0.27033512153E+02  0.12147559737E+02  0.97258072889E+01  0.31192391930E+02  0.00000000000E+00 0. -1.
         22    1    4    4    0    0 -0.15253602514E+02  0.18046691005E+01  0.47758798754E+02  0.50168038417E+02  0.00000000000E+00 0.  1.
         22    1    4    4    0    0 -0.11779909639E+02 -0.13952228837E+02  0.52208629045E+02  0.55309781299E+02  0.00000000000E+00 0.  1.
<mgrwt>
<rscale>  0 0.81523867E+02</rscale>
<asrwt>0</asrwt>
<pdfrwt beam="2">  1        1 0.20751521E-02 0.81523867E+02</pdfrwt>
<pdfrwt beam="1">  1       -1 0.18951034E-01 0.81523867E+02</pdfrwt>
<totfact> 0.10423346E+05</totfact>
</mgrwt>
</event>
<event>
 7    1  0.3301067E-009  0.9259885E+02  0.7818608E-02  0.1296677E+00
          1   -1    0    0  501    0  0.00000000000E+00  0.00000000000E+00  0.17479219735E+03  0.17479219742E+03  0.50400000000E-02 0. -1.
         -1   -1    0    0    0  501 -0.00000000000E+00 -0.00000000000E+00 -0.12263915374E+02  0.12263916410E+02  0.50400000000E-02 0.  1.
         23    2    1    2    0    0  0.00000000000E+00  0.00000000000E+00  0.16252828198E+03  0.18705611383E+03  0.92598851398E+02 0.  0.
    9000005    2    3    3    0    0 -0.32389205262E+02  0.13612196367E+02  0.24211138879E+02  0.44346672723E+02  0.12087002455E+02 0.  0.
         22    1    3    3    0    0  0.32389205262E+02 -0.13612196367E+02  0.13831714310E+03  0.14270944111E+03  0.00000000000E+00 0. -1.
         22    1    4    4    0    0 -0.90104818439E+01  0.75696927000E+01  0.13561377835E+02  0.17955500534E+02  0.00000000000E+00 0.  1.
         22    1    4    4    0    0 -0.23378723418E+02  0.60425036673E+01  0.10649761043E+02  0.26391172189E+02  0.00000000000E+00 0.  1.
<mgrwt>
<rscale>  0 0.92598851E+02</rscale>
<asrwt>0</asrwt>
<pdfrwt beam="1">  1        1 0.26891104E-01 0.92598851E+02</pdfrwt>
<pdfrwt beam="2">  1       -1 0.18867565E-02 0.92598851E+02</pdfrwt>
<totfact> 0.11066923E+05</totfact>
</mgrwt>
</event>
<event>
 7    1  0.3635976E-009  0.8007980E+02  0.7818608E-02  0.1328825E+00
          1   -1    0    0  501    0  0.00000000000E+00  0.00000000000E+00  0.33596280566E+03  0.33596280570E+03  0.50400000000E-02 0. -1.
         -1   -1    0    0    0  501 -0.00000000000E+00 -0.00000000000E+00 -0.47719368681E+01  0.47719395297E+01  0.50400000000E-02 0.  1.
         23    2    1    2    0    0 -0.35527136788E-14  0.00000000000E+00  0.33119086879E+03  0.34073474523E+03  0.80079804159E+02 0.  0.
    9000005    2    3    3    0    0  0.29140298006E+02 -0.25095166231E+02  0.19144157023E+03  0.19579064985E+03  0.14324085340E+02 0.  0.
         22    1    3    3    0    0 -0.29140298006E+02  0.25095166231E+02  0.13974929856E+03  0.14494409538E+03  0.00000000000E+00 0.  1.
         22    1    4    4    0    0  0.27113230632E+02 -0.23512013478E+02  0.18848825326E+03  0.19187434344E+03  0.00000000000E+00 0.  1.
         22    1    4    4    0    0  0.20270673736E+01 -0.15831527528E+01  0.29533169644E+01  0.39163064063E+01  0.00000000000E+00 0.  1.
<mgrwt>
<rscale>  0 0.80079804E+02</rscale>
<asrwt>0</asrwt>
<pdfrwt beam="1">  1        1 0.51686578E-01 0.80079804E+02</pdfrwt>
<pdfrwt beam="2">  1       -1 0.73414446E-03 0.80079804E+02</pdfrwt>
<totfact> 0.18438585E+05</totfact>
</mgrwt>
</event>
<event>
 7    1  0.3301067E-009  0.9073139E+02  0.7818608E-02  0.1301090E+00
         -1   -1    0    0    0  501 -0.00000000000E+00  0.00000000000E+00  0.31301595786E+01  0.31301636361E+01  0.50400000000E-02 0.  1.
          1   -1    0    0  501    0  0.00000000000E+00 -0.00000000000E+00 -0.65748877665E+03  0.65748877667E+03  0.50400000000E-02 0. -1.
         23    2    1    2    0    0  0.00000000000E+00  0.00000000000E+00 -0.65435861707E+03  0.66061894031E+03  0.90731386822E+02 0.  0.
    9000005    2    3    3    0    0 -0.40515460854E+01  0.43215245519E+02 -0.42133917101E+03  0.42359144251E+03  0.43635610143E+01 0.  0.
         22    1    3    3    0    0  0.40515460854E+01 -0.43215245519E+02 -0.23301944606E+03  0.23702749780E+03  0.00000000000E+00 0.  1.
         22    1    4    4    0    0 -0.19317536228E+01  0.52024397870E+01 -0.55024464256E+02  0.55303604932E+02  0.00000000000E+00 0. -1.
         22    1    4    4    0    0 -0.21197924626E+01  0.38012805732E+02 -0.36631470676E+03  0.36828783757E+03  0.00000000000E+00 0. -1.
<mgrwt>
<rscale>  0 0.90731387E+02</rscale>
<asrwt>0</asrwt>
<pdfrwt beam="2">  1        1 0.10115201E+00 0.90731387E+02</pdfrwt>
<pdfrwt beam="1">  1       -1 0.48156385E-03 0.90731387E+02</pdfrwt>
<totfact> 0.14397327E+05</totfact>
</mgrwt>
</event>
<event>
 7    1  0.3301067E-009  0.8887653E+02  0.7818608E-02  0.1305595E+00
          1   -1    0    0  501    0  0.00000000000E+00  0.00000000000E+00  0.26120100058E+03  0.26120100063E+03  0.50400000000E-02 0. -1.
         -1   -1    0    0    0  501 -0.00000000000E+00 -0.00000000000E+00 -0.75603039218E+01  0.75603056017E+01  0.50400000000E-02 0.  1.
         23    2    1    2    0    0  0.00000000000E+00  0.00000000000E+00  0.25364069666E+03  0.26876130623E+03  0.88876525165E+02 0.  0.
    9000005    2    3    3    0    0 -0.85199261211E+01  0.42866900512E+02  0.11173043446E+03  0.12027331743E+03  0.84747035647E+01 0.  0.
         22    1    3    3    0    0  0.85199261211E+01 -0.42866900512E+02  0.14191026220E+03  0.14848798880E+03  0.00000000000E+00 0.  1.
         22    1    4    4    0    0 -0.49718117573E+00  0.24064518591E+02  0.59328150332E+02  0.64024820702E+02  0.00000000000E+00 0.  1.
         22    1    4    4    0    0 -0.80227449454E+01  0.18802381921E+02  0.52402284127E+02  0.56248496727E+02  0.00000000000E+00 0.  1.
<mgrwt>
<rscale>  0 0.88876525E+02</rscale>
<asrwt>0</asrwt>
<pdfrwt beam="1">  1        1 0.40184773E-01 0.88876525E+02</pdfrwt>
<pdfrwt beam="2">  1       -1 0.11631237E-02 0.88876525E+02</pdfrwt>
<totfact> 0.13352084E+05</totfact>
</mgrwt>
</event>
<event>
 7    1  0.3301067E-009  0.9820884E+02  0.7818608E-02  0.1284108E+00
         -1   -1    0    0    0  501 -0.00000000000E+00  0.00000000000E+00  0.39540269414E+02  0.39540269735E+02  0.50400000000E-02 0.  1.
          1   -1    0    0  501    0  0.00000000000E+00 -0.00000000000E+00 -0.60981984986E+02  0.60981985194E+02  0.50400000000E-02 0. -1.
         23    2    1    2    0    0  0.00000000000E+00 -0.33306690739E-15 -0.21441715572E+02  0.10052225493E+03  0.98208841605E+02 0.  0.
    9000005    2    3    3    0    0 -0.32133818063E+02  0.74555668041E+00  0.26412151095E+02  0.42875653354E+02  0.10372165008E+02 0.  0.
         22    1    3    3    0    0  0.32133818063E+02 -0.74555668041E+00 -0.47853866668E+02  0.57646601575E+02  0.00000000000E+00 0. -1.
         22    1    4    4    0    0 -0.14517572270E+02 -0.44602745066E+01  0.14390359664E+02  0.20922151050E+02  0.00000000000E+00 0.  1.
         22    1    4    4    0    0 -0.17616245793E+02  0.52058311870E+01  0.12021791431E+02  0.21953502304E+02  0.00000000000E+00 0.  1.
<mgrwt>
<rscale>  0 0.98208842E+02</rscale>
<asrwt>0</asrwt>
<pdfrwt beam="2">  1        1 0.93818440E-02 0.98208842E+02</pdfrwt>
<pdfrwt beam="1">  1       -1 0.60831184E-02 0.98208842E+02</pdfrwt>
<totfact> 0.78524027E+04</totfact>
</mgrwt>
</event>
<event>
 7    1  0.3301067E-009  0.8769077E+02  0.7818608E-02  0.1308542E+00
         -1   -1    0    0    0  501 -0.00000000000E+00  0.00000000000E+00  0.27402383196E+02  0.27402383660E+02  0.50400000000E-02 0.  1.
          1   -1    0    0  501    0  0.00000000000E+00 -0.00000000000E+00 -0.70155128250E+02  0.70155128431E+02  0.50400000000E-02 0. -1.
         23    2    1    2    0    0 -0.88817841970E-15 -0.17763568394E-14 -0.42752745053E+02  0.97557512091E+02  0.87690768931E+02 0.  0.
    9000005    2    3    3    0    0  0.77050948444E+01  0.13415543911E+02  0.22892117361E+02  0.30114252484E+02  0.11978057457E+02 0.  0.
         22    1    3    3    0    0 -0.77050948444E+01 -0.13415543911E+02 -0.65644862414E+02  0.67443259606E+02  0.00000000000E+00 0. -1.
         22    1    4    4    0    0  0.57705139362E+01  0.14524133298E+01  0.26324618043E+01  0.65067803651E+01  0.00000000000E+00 0.  1.
         22    1    4    4    0    0  0.19345809082E+01  0.11963130581E+02  0.20259655556E+02  0.23607472119E+02  0.00000000000E+00 0.  1.
<mgrwt>
<rscale>  0 0.87690769E+02</rscale>
<asrwt>0</asrwt>
<pdfrwt beam="2">  1        1 0.10793097E-01 0.87690769E+02</pdfrwt>
<pdfrwt beam="1">  1       -1 0.42157513E-02 0.87690769E+02</pdfrwt>
<totfact> 0.10986015E+05</totfact>
</mgrwt>
</event>
<event>
 7    1  0.3301067E-009  0.1037888E+03  0.7818608E-02  0.1272525E+00
         -1   -1    0    0    0  501 -0.00000000000E+00  0.00000000000E+00  0.17135834636E+02  0.17135835377E+02  0.50400000000E-02 0.  1.
          1   -1    0    0  501    0  0.00000000000E+00 -0.00000000000E+00 -0.15715761588E+03  0.15715761596E+03  0.50400000000E-02 0. -1.
         23    2    1    2    0    0  0.71054273576E-14  0.00000000000E+00 -0.14002178125E+03  0.17429345134E+03  0.10378876604E+03 0.  0.
    9000005    2    3    3    0    0  0.43615971727E+02  0.18863907138E+01 -0.11614345963E+03  0.12453316896E+03  0.10644035699E+02 0.  0.
         22    1    3    3    0    0 -0.43615971727E+02 -0.18863907138E+01 -0.23878321615E+02  0.49760282382E+02  0.00000000000E+00 0. -1.
         22    1    4    4    0    0  0.36133731630E+02 -0.17188589814E+01 -0.86785905424E+02  0.94023371659E+02  0.00000000000E+00 0. -1.
         22    1    4    4    0    0  0.74822400963E+01  0.36052496952E+01 -0.29357554207E+02  0.30509797299E+02  0.00000000000E+00 0. -1.
<mgrwt>
<rscale>  0 0.10378877E+03</rscale>
<asrwt>0</asrwt>
<pdfrwt beam="2">  1        1 0.24178094E-01 0.10378877E+03</pdfrwt>
<pdfrwt beam="1">  1       -1 0.26362824E-02 0.10378877E+03</pdfrwt>
<totfact> 0.79543509E+04</totfact>
</mgrwt>
</event>
<event>
 7    1  0.3301067E-009  0.9000242E+02  0.7818608E-02  0.1302846E+00
         -1   -1    0    0    0  501 -0.00000000000E+00  0.00000000000E+00  0.22185230448E+02  0.22185231020E+02  0.50400000000E-02 0.  1.
          1   -1    0    0  501    0  0.00000000000E+00 -0.00000000000E+00 -0.91281844941E+02  0.91281845080E+02  0.50400000000E-02 0. -1.
         23    2    1    2    0    0  0.00000000000E+00 -0.71054273576E-14 -0.69096614494E+02  0.11346707610E+03  0.90002417880E+02 0.  0.
    9000005    2    3    3    0    0  0.47846173965E+01  0.40246196172E+02 -0.58271990126E+02  0.71516851278E+02  0.87399264028E+01 0.  0.
         22    1    3    3    0    0 -0.47846173965E+01 -0.40246196172E+02 -0.10824624368E+02  0.41950224823E+02  0.00000000000E+00 0.  1.
         22    1    4    4    0    0  0.30917242916E+01  0.21726204534E+02 -0.38898934508E+02  0.44662219251E+02  0.00000000000E+00 0.  1.
         22    1    4    4    0    0  0.16928931048E+01  0.18519991638E+02 -0.19373055618E+02  0.26854632027E+02  0.00000000000E+00 0.  1.
<mgrwt>
<rscale>  0 0.90002418E+02</rscale>
<asrwt>0</asrwt>
<pdfrwt beam="2">  1        1 0.14043361E-01 0.90002418E+02</pdfrwt>
<pdfrwt beam="1">  1       -1 0.34131125E-02 0.90002418E+02</pdfrwt>
<totfact> 0.10660217E+05</totfact>
</mgrwt>
</event>
<event>
 7    1  0.3301067E-009  0.8632608E+02  0.7818608E-02  0.1312001E+00
          1   -1    0    0  501    0  0.00000000000E+00  0.00000000000E+00  0.36667576456E+02  0.36667576803E+02  0.50400000000E-02 0. -1.
         -1   -1    0    0    0  501 -0.00000000000E+00 -0.00000000000E+00 -0.50809143843E+02  0.50809144093E+02  0.50400000000E-02 0.  1.
         23    2    1    2    0    0  0.00000000000E+00  0.00000000000E+00 -0.14141567387E+02  0.87476720896E+02  0.86326083953E+02 0.  0.
    9000005    2    3    3    0    0  0.16586118167E+02  0.10562685864E+02  0.31026167734E+02  0.38214220508E+02  0.10537263226E+02 0.  0.
         22    1    3    3    0    0 -0.16586118167E+02 -0.10562685864E+02 -0.45167735121E+02  0.49262500388E+02  0.00000000000E+00 0.  1.
         22    1    4    4    0    0  0.15618019676E+02  0.12324688266E+02  0.25561876142E+02  0.32391819822E+02  0.00000000000E+00 0.  1.
         22    1    4    4    0    0  0.96809849136E+00 -0.17620024025E+01  0.54642915917E+01  0.58224006866E+01  0.00000000000E+00 0.  1.
<mgrwt>
<rscale>  0 0.86326084E+02</rscale>
<asrwt>0</asrwt>
<pdfrwt beam="1">  1        1 0.56411657E-02 0.86326084E+02</pdfrwt>
<pdfrwt beam="2">  1       -1 0.78167914E-02 0.86326084E+02</pdfrwt>
<totfact> 0.10438789E+05</totfact>
</mgrwt>
</event>
<event>
 7    1  0.3301067E-009  0.9252176E+02  0.7818608E-02  0.1296857E+00
         -1   -1    0    0    0  501 -0.00000000000E+00  0.00000000000E+00  0.13659531815E+02  0.13659532745E+02  0.50400000000E-02 0.  1.
          1   -1    0    0  501    0  0.00000000000E+00 -0.00000000000E+00 -0.15667221878E+03  0.15667221886E+03  0.50400000000E-02 0. -1.
         23    2    1    2    0    0  0.00000000000E+00  0.00000000000E+00 -0.14301268697E+03  0.17033175161E+03  0.92521764856E+02 0.  0.
    9000005    2    3    3    0    0  0.36791498836E+02  0.14282775810E+02 -0.11429301534E+03  0.12152159273E+03  0.12124028735E+02 0.  0.
         22    1    3    3    0    0 -0.36791498836E+02 -0.14282775810E+02 -0.28719671631E+02  0.48810158881E+02  0.00000000000E+00 0.  1.
         22    1    4    4    0    0  0.54800162355E+01 -0.12945963371E+01 -0.24953414391E+02  0.25580841412E+02  0.00000000000E+00 0.  1.
         22    1    4    4    0    0  0.31311482600E+02  0.15577372147E+02 -0.89339600945E+02  0.95940751314E+02  0.00000000000E+00 0.  1.
<mgrwt>
<rscale>  0 0.92521765E+02</rscale>
<asrwt>0</asrwt>
<pdfrwt beam="2">  1        1 0.24103417E-01 0.92521765E+02</pdfrwt>
<pdfrwt beam="1">  1       -1 0.21014666E-02 0.92521765E+02</pdfrwt>
<totfact> 0.10865619E+05</totfact>
</mgrwt>
</event>
<event>
 7    1  0.3301067E-009  0.9462702E+02  0.7818608E-02  0.1292018E+00
          1   -1    0    0  501    0  0.00000000000E+00  0.00000000000E+00  0.18690845293E+02  0.18690845973E+02  0.50400000000E-02 0. -1.
         -1   -1    0    0    0  501 -0.00000000000E+00 -0.00000000000E+00 -0.11976816906E+03  0.11976816917E+03  0.50400000000E-02 0.  1.
         23    2    1    2    0    0  0.00000000000E+00  0.00000000000E+00 -0.10107732377E+03  0.13845901514E+03  0.94627023062E+02 0.  0.
    9000005    2    3    3    0    0 -0.13918934405E+02  0.27519894413E+02 -0.99106312563E+00  0.33729167949E+02  0.13623261024E+02 0.  0.
         22    1    3    3    0    0  0.13918934405E+02 -0.27519894413E+02 -0.10008626064E+03  0.10472984719E+03  0.00000000000E+00 0.  1.
         22    1    4    4    0    0 -0.37275568625E+01  0.55284999722E+00 -0.30202136798E+01  0.48292871062E+01  0.00000000000E+00 0.  1.
         22    1    4    4    0    0 -0.10191377542E+02  0.26967044416E+02  0.20291505541E+01  0.28899880842E+02  0.00000000000E+00 0.  1.
<mgrwt>
<rscale>  0 0.94627023E+02</rscale>
<asrwt>0</asrwt>
<pdfrwt beam="1">  1        1 0.28755148E-02 0.94627023E+02</pdfrwt>
<pdfrwt beam="2">  1       -1 0.18425872E-01 0.94627023E+02</pdfrwt>
<totfact> 0.71358512E+04</totfact>
</mgrwt>
</event>
<event>
 7    1  0.3301067E-009  0.8798239E+02  0.7818608E-02  0.1307812E+00
          1   -1    0    0  501    0  0.00000000000E+00  0.00000000000E+00  0.65394305259E+03  0.65394305261E+03  0.50400000000E-02 0. -1.
         -1   -1    0    0    0  501 -0.00000000000E+00 -0.00000000000E+00 -0.29593156102E+01  0.29593199020E+01  0.50400000000E-02 0.  1.
         23    2    1    2    0    0  0.00000000000E+00  0.22204460493E-15  0.65098373698E+03  0.65690237251E+03  0.87982391414E+02 0.  0.
    9000005    2    3    3    0    0 -0.39794980155E+02  0.69355367900E+00  0.45312505720E+03  0.45508022648E+03  0.13841012012E+02 0.  0.
         22    1    3    3    0    0  0.39794980155E+02 -0.69355367900E+00  0.19785867978E+03  0.20182214603E+03  0.00000000000E+00 0.  1.
         22    1    4    4    0    0 -0.14064735355E+02 -0.40946951620E+01  0.22086324850E+03  0.22134849864E+03  0.00000000000E+00 0.  1.
         22    1    4    4    0    0 -0.25730244800E+02  0.47882488410E+01  0.23226180870E+03  0.23373172785E+03  0.00000000000E+00 0.  1.
<mgrwt>
<rscale>  0 0.87982391E+02</rscale>
<asrwt>0</asrwt>
<pdfrwt beam="1">  1        1 0.10060673E+00 0.87982391E+02</pdfrwt>
<pdfrwt beam="2">  1       -1 0.45527917E-03 0.87982391E+02</pdfrwt>
<totfact> 0.15613640E+05</totfact>
</mgrwt>
</event>
<event>
 7    1  0.3301067E-009  0.8981360E+02  0.7818608E-02  0.1303304E+00
          1   -1    0    0  501    0  0.00000000000E+00  0.00000000000E+00  0.24058653172E+03  0.24058653178E+03  0.50400000000E-02 0. -1.
         -1   -1    0    0    0  501 -0.00000000000E+00 -0.00000000000E+00 -0.83821000956E+01  0.83821016108E+01  0.50400000000E-02 0.  1.
         23    2    1    2    0    0  0.00000000000E+00  0.00000000000E+00  0.23220443163E+03  0.24896863339E+03  0.89813597762E+02 0.  0.
    9000005    2    3    3    0    0 -0.27301091138E+02 -0.30167530408E+02  0.16717752339E+03  0.17226186535E+03  0.83902596832E+01 0.  0.
         22    1    3    3    0    0  0.27301091138E+02  0.30167530408E+02  0.65026908235E+02  0.76706768038E+02  0.00000000000E+00 0.  1.
         22    1    4    4    0    0 -0.21934067362E+02 -0.22171002331E+02  0.11251122091E+03  0.11675372151E+03  0.00000000000E+00 0. -1.
         22    1    4    4    0    0 -0.53670237766E+01 -0.79965280768E+01  0.54666302484E+02  0.55508143842E+02  0.00000000000E+00 0. -1.
<mgrwt>
<rscale>  0 0.89813598E+02</rscale>
<asrwt>0</asrwt>
<pdfrwt beam="1">  1        1 0.37013313E-01 0.89813598E+02</pdfrwt>
<pdfrwt beam="2">  1       -1 0.12895540E-02 0.89813598E+02</pdfrwt>
<totfact> 0.12778506E+05</totfact>
</mgrwt>
</event>
<event>
 7    1  0.3301067E-009  0.8966756E+02  0.7818608E-02  0.1303659E+00
         -1   -1    0    0    0  501 -0.00000000000E+00  0.00000000000E+00  0.52013079062E+02  0.52013079306E+02  0.50400000000E-02 0.  1.
          1   -1    0    0  501    0  0.00000000000E+00 -0.00000000000E+00 -0.38645433899E+02  0.38645434228E+02  0.50400000000E-02 0. -1.
         23    2    1    2    0    0  0.00000000000E+00 -0.35527136788E-14  0.13367645163E+02  0.90658513534E+02  0.89667564587E+02 0.  0.
    9000005    2    3    3    0    0 -0.14723401809E+02 -0.29227379619E+02  0.35730927268E+02  0.51020972405E+02  0.15981932973E+02 0.  0.
         22    1    3    3    0    0  0.14723401809E+02  0.29227379619E+02 -0.22363282105E+02  0.39637541129E+02  0.00000000000E+00 0. -1.
         22    1    4    4    0    0 -0.49832327280E+01 -0.19968759454E+01  0.42908897054E+00  0.53855584026E+01  0.00000000000E+00 0.  1.
         22    1    4    4    0    0 -0.97401690811E+01 -0.27230503673E+02  0.35301838297E+02  0.45635414003E+02  0.00000000000E+00 0.  1.
<mgrwt>
<rscale>  0 0.89667565E+02</rscale>
<asrwt>0</asrwt>
<pdfrwt beam="2">  1        1 0.59454515E-02 0.89667565E+02</pdfrwt>
<pdfrwt beam="1">  1       -1 0.80020121E-02 0.89667565E+02</pdfrwt>
<totfact> 0.94541242E+04</totfact>
</mgrwt>
</event>
<event>
 7    1  0.3301067E-009  0.9245950E+02  0.7818608E-02  0.1297003E+00
         -1   -1    0    0    0  501 -0.00000000000E+00  0.00000000000E+00  0.20796063351E+02  0.20796063962E+02  0.50400000000E-02 0.  1.
          1   -1    0    0  501    0  0.00000000000E+00 -0.00000000000E+00 -0.10276896304E+03  0.10276896316E+03  0.50400000000E-02 0. -1.
         23    2    1    2    0    0  0.00000000000E+00  0.00000000000E+00 -0.81972899685E+02  0.12356502712E+03  0.92459502728E+02 0.  0.
    9000005    2    3    3    0    0 -0.32417235561E+02  0.29375072868E+02 -0.22188344325E+02  0.49484225783E+02  0.65264009995E+01 0.  0.
         22    1    3    3    0    0  0.32417235561E+02 -0.29375072868E+02 -0.59784555360E+02  0.74080801339E+02  0.00000000000E+00 0. -1.
         22    1    4    4    0    0 -0.82659958605E-01  0.10872496654E+00 -0.97819971941E+00  0.98768845198E+00  0.00000000000E+00 0.  1.
         22    1    4    4    0    0 -0.32334575603E+02  0.29266347901E+02 -0.21210144606E+02  0.48496537331E+02  0.00000000000E+00 0.  1.
<mgrwt>
<rscale>  0 0.92459503E+02</rscale>
<asrwt>0</asrwt>
<pdfrwt beam="2">  1        1 0.15810609E-01 0.92459503E+02</pdfrwt>
<pdfrwt beam="1">  1       -1 0.31993945E-02 0.92459503E+02</pdfrwt>
<totfact> 0.10100389E+05</totfact>
</mgrwt>
</event>
<event>
 7    1  0.3301067E-009  0.9256183E+02  0.7818608E-02  0.1296764E+00
          1   -1    0    0  501    0  0.00000000000E+00  0.00000000000E+00  0.47815884965E+02  0.47815885231E+02  0.50400000000E-02 0. -1.
         -1   -1    0    0    0  501 -0.00000000000E+00 -0.00000000000E+00 -0.44795224161E+02  0.44795224445E+02  0.50400000000E-02 0.  1.
         23    2    1    2    0    0  0.00000000000E+00  0.00000000000E+00  0.30206608042E+01  0.92611109675E+02  0.92561834703E+02 0.  0.
    9000005    2    3    3    0    0 -0.30679723161E+02  0.21612541033E+02  0.27074459589E+02  0.48036087756E+02  0.12887669367E+02 0.  0.
         22    1    3    3    0    0  0.30679723161E+02 -0.21612541033E+02 -0.24053798785E+02  0.44575021920E+02  0.00000000000E+00 0.  1.
         22    1    4    4    0    0 -0.26664436726E+02  0.14213633005E+02  0.16203102679E+02  0.34286441717E+02  0.00000000000E+00 0.  1.
         22    1    4    4    0    0 -0.40152864351E+01  0.73989080272E+01  0.10871356910E+02  0.13749646039E+02  0.00000000000E+00 0.  1.
<mgrwt>
<rscale>  0 0.92561835E+02</rscale>
<asrwt>0</asrwt>
<pdfrwt beam="1">  1        1 0.73562901E-02 0.92561835E+02</pdfrwt>
<pdfrwt beam="2">  1       -1 0.68915730E-02 0.92561835E+02</pdfrwt>
<totfact> 0.89278306E+04</totfact>
</mgrwt>
</event>
<event>
 7    1  0.3301067E-009  0.9172000E+02  0.7818608E-02  0.1298739E+00
          1   -1    0    0  501    0  0.00000000000E+00  0.00000000000E+00  0.12960288283E+02  0.12960289263E+02  0.50400000000E-02 0. -1.
         -1   -1    0    0    0  501 -0.00000000000E+00 -0.00000000000E+00 -0.16227567553E+03  0.16227567561E+03  0.50400000000E-02 0.  1.
         23    2    1    2    0    0  0.00000000000E+00  0.00000000000E+00 -0.14931538725E+03  0.17523596487E+03  0.91720000630E+02 0.  0.
    9000005    2    3    3    0    0  0.58254357928E+01  0.40499940058E+02 -0.42424050969E+02  0.60781001596E+02  0.14844164093E+02 0.  0.
         22    1    3    3    0    0 -0.58254357928E+01 -0.40499940058E+02 -0.10689133628E+03  0.11445496328E+03  0.00000000000E+00 0.  1.
         22    1    4    4    0    0  0.71807050883E+01  0.10807456820E+02 -0.18648296317E+02  0.22718331893E+02  0.00000000000E+00 0.  1.
         22    1    4    4    0    0 -0.13552692955E+01  0.29692483238E+02 -0.23775754652E+02  0.38062669704E+02  0.00000000000E+00 0.  1.
<mgrwt>
<rscale>  0 0.91720001E+02</rscale>
<asrwt>0</asrwt>
<pdfrwt beam="1">  1        1 0.19938907E-02 0.91720001E+02</pdfrwt>
<pdfrwt beam="2">  1       -1 0.24965487E-01 0.91720001E+02</pdfrwt>
<totfact> 0.72263289E+04</totfact>
</mgrwt>
</event>
<event>
 7    1  0.3301067E-009  0.8973886E+02  0.7818608E-02  0.1303485E+00
         -1   -1    0    0    0  501 -0.00000000000E+00  0.00000000000E+00  0.88644659795E+01  0.88644674123E+01  0.50400000000E-02 0.  1.
          1   -1    0    0  501    0  0.00000000000E+00 -0.00000000000E+00 -0.22711640758E+03  0.22711640763E+03  0.50400000000E-02 0. -1.
         23    2    1    2    0    0  0.17763568394E-14  0.00000000000E+00 -0.21825194160E+03  0.23598087505E+03  0.89738862128E+02 0.  0.
    9000005    2    3    3    0    0  0.11388747739E+02 -0.36043573312E+02 -0.17016929700E+03  0.17481893047E+03  0.13237298026E+02 0.  0.
         22    1    3    3    0    0 -0.11388747739E+02  0.36043573312E+02 -0.48082644604E+02  0.61161944576E+02  0.00000000000E+00 0. -1.
         22    1    4    4    0    0  0.13029038362E+02 -0.22208800842E+02 -0.12129208148E+03  0.12399498258E+03  0.00000000000E+00 0.  1.
         22    1    4    4    0    0 -0.16402906234E+01 -0.13834772470E+02 -0.48877215520E+02  0.50823947895E+02  0.00000000000E+00 0.  1.
<mgrwt>
<rscale>  0 0.89738862E+02</rscale>
<asrwt>0</asrwt>
<pdfrwt beam="2">  1        1 0.34940982E-01 0.89738862E+02</pdfrwt>
<pdfrwt beam="1">  1       -1 0.13637643E-02 0.89738862E+02</pdfrwt>
<totfact> 0.12664197E+05</totfact>
</mgrwt>
</event>
<event>
 7    1  0.3301067E-009  0.8990318E+02  0.7818608E-02  0.1303086E+00
          1   -1    0    0  501    0  0.00000000000E+00  0.00000000000E+00  0.44009018829E+02  0.44009019118E+02  0.50400000000E-02 0. -1.
         -1   -1    0    0    0  501 -0.00000000000E+00 -0.00000000000E+00 -0.45914352669E+02  0.45914352946E+02  0.50400000000E-02 0.  1.
         23    2    1    2    0    0  0.00000000000E+00  0.25435382967E-15 -0.19053338399E+01  0.89923372063E+02  0.89903184294E+02 0.  0.
    9000005    2    3    3    0    0  0.13104701872E+02  0.11554742212E-02  0.41364165946E+02  0.44712943795E+02  0.10794438655E+02 0.  0.
         22    1    3    3    0    0 -0.13104701872E+02 -0.11554742212E-02 -0.43269499786E+02  0.45210428269E+02  0.00000000000E+00 0.  1.
         22    1    4    4    0    0  0.96108428786E+01 -0.39948344099E+01  0.34500525519E+02  0.36036277053E+02  0.00000000000E+00 0. -1.
         22    1    4    4    0    0  0.34938589938E+01  0.39959898842E+01  0.68636404274E+01  0.86766667413E+01  0.00000000000E+00 0. -1.
<mgrwt>
<rscale>  0 0.89903184E+02</rscale>
<asrwt>0</asrwt>
<pdfrwt beam="1">  1        1 0.67706183E-02 0.89903184E+02</pdfrwt>
<pdfrwt beam="2">  1       -1 0.70637466E-02 0.89903184E+02</pdfrwt>
<totfact> 0.95686544E+04</totfact>
</mgrwt>
</event>
<event>
 7    1  0.3301067E-009  0.9092054E+02  0.7818608E-02  0.1300638E+00
         -1   -1    0    0    0  501 -0.00000000000E+00  0.00000000000E+00  0.20665514890E+02  0.20665515505E+02  0.50400000000E-02 0.  1.
          1   -1    0    0  501    0  0.00000000000E+00 -0.00000000000E+00 -0.10000409090E+03  0.10000409103E+03  0.50400000000E-02 0. -1.
         23    2    1    2    0    0  0.00000000000E+00  0.35527136788E-14 -0.79338576010E+02  0.12066960653E+03  0.90920538369E+02 0.  0.
    9000005    2    3    3    0    0 -0.28983606958E+02  0.29887279203E+02 -0.15480584191E+02  0.44438759432E+02  0.13623224421E+01 0.  0.
         22    1    3    3    0    0  0.28983606958E+02 -0.29887279203E+02 -0.63857991819E+02  0.76230847100E+02  0.00000000000E+00 0. -1.
         22    1    4    4    0    0 -0.50802883464E+01  0.57464839789E+01 -0.32727886579E+01  0.83392177931E+01  0.00000000000E+00 0. -1.
         22    1    4    4    0    0 -0.23903318612E+02  0.24140795224E+02 -0.12207795533E+02  0.36099541639E+02  0.00000000000E+00 0. -1.
<mgrwt>
<rscale>  0 0.90920538E+02</rscale>
<asrwt>0</asrwt>
<pdfrwt beam="2">  1        1 0.15385245E-01 0.90920538E+02</pdfrwt>
<pdfrwt beam="1">  1       -1 0.31793101E-02 0.90920538E+02</pdfrwt>
<totfact> 0.10525703E+05</totfact>
</mgrwt>
</event>
<event>
 7    1  0.3301067E-009  0.8773776E+02  0.7818608E-02  0.1308424E+00
          1   -1    0    0  501    0  0.00000000000E+00  0.00000000000E+00  0.71290788679E+02  0.71290788857E+02  0.50400000000E-02 0. -1.
         -1   -1    0    0    0  501 -0.00000000000E+00 -0.00000000000E+00 -0.26994771282E+02  0.26994771752E+02  0.50400000000E-02 0.  1.
         23    2    1    2    0    0  0.71054273576E-14  0.35527136788E-14  0.44296017397E+02  0.98285560610E+02  0.87737758503E+02 0.  0.
    9000005    2    3    3    0    0  0.36273138828E+02  0.15373522637E+02  0.41537742571E+02  0.58792600747E+02  0.13382826531E+02 0.  0.
         22    1    3    3    0    0 -0.36273138828E+02 -0.15373522637E+02  0.27582748259E+01  0.39492959863E+02  0.00000000000E+00 0. -1.
         22    1    4    4    0    0  0.39414433725E+01 -0.67990816394E+00  0.33479451772E+00  0.40136440225E+01  0.00000000000E+00 0.  1.
         22    1    4    4    0    0  0.32331695456E+02  0.16053430801E+02  0.41202948054E+02  0.54778956725E+02  0.00000000000E+00 0.  1.
<mgrwt>
<rscale>  0 0.87737759E+02</rscale>
<asrwt>0</asrwt>
<pdfrwt beam="1">  1        1 0.10967814E-01 0.87737759E+02</pdfrwt>
<pdfrwt beam="2">  1       -1 0.41530419E-02 0.87737759E+02</pdfrwt>
<totfact> 0.10996480E+05</totfact>
</mgrwt>
</event>
<event>
 7    1  0.3301067E-009  0.9241629E+02  0.7818608E-02  0.1297104E+00
          1   -1    0    0  501    0  0.00000000000E+00  0.00000000000E+00  0.54984018918E+02  0.54984019149E+02  0.50400000000E-02 0. -1.
         -1   -1    0    0    0  501 -0.00000000000E+00 -0.00000000000E+00 -0.38832969254E+02  0.38832969581E+02  0.50400000000E-02 0.  1.
         23    2    1    2    0    0  0.71054273576E-14  0.00000000000E+00  0.16151049665E+02  0.93816988730E+02  0.92416291687E+02 0.  0.
    9000005    2    3    3    0    0 -0.44540356376E+02  0.48338590225E+01  0.16522702116E+01  0.46727455447E+02  0.13172530378E+02 0.  0.
         22    1    3    3    0    0  0.44540356376E+02 -0.48338590225E+01  0.14498779453E+02  0.47089533283E+02  0.00000000000E+00 0. -1.
         22    1    4    4    0    0 -0.53887736770E+01  0.52052006041E+01 -0.54898382326E+00  0.75122818310E+01  0.00000000000E+00 0. -1.
         22    1    4    4    0    0 -0.39151582699E+02 -0.37134158155E+00  0.22012540348E+01  0.39215173616E+02  0.00000000000E+00 0. -1.
<mgrwt>
<rscale>  0 0.92416292E+02</rscale>
<asrwt>0</asrwt>
<pdfrwt beam="1">  1        1 0.84590798E-02 0.92416292E+02</pdfrwt>
<pdfrwt beam="2">  1       -1 0.59743031E-02 0.92416292E+02</pdfrwt>
<totfact> 0.91595737E+04</totfact>
</mgrwt>
</event>
<event>
 7    1  0.3301067E-009  0.9235641E+02  0.7818608E-02  0.1297244E+00
          1   -1    0    0  501    0  0.00000000000E+00  0.00000000000E+00  0.31033320974E+03  0.31033320978E+03  0.50400000000E-02 0. -1.
         -1   -1    0    0    0  501 -0.00000000000E+00 -0.00000000000E+00 -0.68714082848E+01  0.68714101331E+01  0.50400000000E-02 0.  1.
         23    2    1    2    0    0 -0.35527136788E-14  0.35527136788E-14  0.30346180145E+03  0.31720461991E+03  0.92356407207E+02 0.  0.
    9000005    2    3    3    0    0  0.17589853358E+02 -0.21437341029E+02  0.27742183643E+03  0.27916461058E+03  0.14178925896E+02 0.  0.
         22    1    3    3    0    0 -0.17589853358E+02  0.21437341029E+02  0.26039965017E+02  0.38040009328E+02  0.00000000000E+00 0.  1.
         22    1    4    4    0    0  0.71272702464E+00 -0.97683568531E+01  0.12231701220E+03  0.12270851742E+03  0.00000000000E+00 0.  1.
         22    1    4    4    0    0  0.16877126333E+02 -0.11668984176E+02  0.15510482424E+03  0.15645609316E+03  0.00000000000E+00 0.  1.
<mgrwt>
<rscale>  0 0.92356407E+02</rscale>
<asrwt>0</asrwt>
<pdfrwt beam="1">  1        1 0.47743572E-01 0.92356407E+02</pdfrwt>
<pdfrwt beam="2">  1       -1 0.10571398E-02 0.92356407E+02</pdfrwt>
<totfact> 0.12460212E+05</totfact>
</mgrwt>
</event>
<event>
 7    1  0.3301067E-009  0.9045246E+02  0.7818608E-02  0.1301760E+00
          1   -1    0    0  501    0  0.00000000000E+00  0.00000000000E+00  0.29041964745E+03  0.29041964749E+03  0.50400000000E-02 0. -1.
         -1   -1    0    0    0  501 -0.00000000000E+00 -0.00000000000E+00 -0.70429525367E+01  0.70429543400E+01  0.50400000000E-02 0.  1.
         23    2    1    2    0    0  0.00000000000E+00  0.00000000000E+00  0.28337669491E+03  0.29746260183E+03  0.90452464144E+02 0.  0.
    9000005    2    3    3    0    0 -0.29462778335E+02  0.48852873464E+01  0.25244552553E+03  0.25446657202E+03  0.11513973238E+02 0.  0.
         22    1    3    3    0    0  0.29462778335E+02 -0.48852873464E+01  0.30931169385E+02  0.42996029807E+02  0.00000000000E+00 0.  1.
         22    1    4    4    0    0 -0.14148898138E+02 -0.21716258508E+01  0.14516004420E+03  0.14586413442E+03  0.00000000000E+00 0. -1.
         22    1    4    4    0    0 -0.15313880197E+02  0.70569131973E+01  0.10728548133E+03  0.10860243761E+03  0.00000000000E+00 0. -1.
<mgrwt>
<rscale>  0 0.90452464E+02</rscale>
<asrwt>0</asrwt>
<pdfrwt beam="1">  1        1 0.44679932E-01 0.90452464E+02</pdfrwt>
<pdfrwt beam="2">  1       -1 0.10835316E-02 0.90452464E+02</pdfrwt>
<totfact> 0.13006224E+05</totfact>
</mgrwt>
</event>
<event>
 7    1  0.3301067E-009  0.8922443E+02  0.7818608E-02  0.1304741E+00
          1   -1    0    0  501    0  0.00000000000E+00  0.00000000000E+00  0.47689094470E+01  0.47689121103E+01  0.50400000000E-02 0. -1.
         -1   -1    0    0    0  501 -0.00000000000E+00 -0.00000000000E+00 -0.41733845214E+03  0.41733845217E+03  0.50400000000E-02 0.  1.
         23    2    1    2    0    0  0.00000000000E+00  0.17763568394E-14 -0.41256954269E+03  0.42210736428E+03  0.89224432876E+02 0.  0.
    9000005    2    3    3    0    0  0.42442269917E+02  0.63171335360E+01 -0.23887188649E+03  0.24318802988E+03  0.15472144973E+02 0.  0.
         22    1    3    3    0    0 -0.42442269917E+02 -0.63171335360E+01 -0.17369765620E+03  0.17891933440E+03  0.00000000000E+00 0. -1.
         22    1    4    4    0    0  0.14826976476E+02  0.90473295570E+01 -0.75157932489E+02  0.77138889152E+02  0.00000000000E+00 0.  1.
         22    1    4    4    0    0  0.27615293440E+02 -0.27301960210E+01 -0.16371395400E+03  0.16604914073E+03  0.00000000000E+00 0.  1.
<mgrwt>
<rscale>  0 0.89224433E+02</rscale>
<asrwt>0</asrwt>
<pdfrwt beam="1">  1        1 0.73367891E-03 0.89224433E+02</pdfrwt>
<pdfrwt beam="2">  1       -1 0.64205887E-01 0.89224433E+02</pdfrwt>
<totfact> 0.55177789E+04</totfact>
</mgrwt>
</event>
<event>
 7    1  0.3301067E-009  0.9472030E+02  0.7818608E-02  0.1291807E+00
         -1   -1    0    0    0  501 -0.00000000000E+00  0.00000000000E+00  0.28754585320E+01  0.28754629489E+01  0.50400000000E-02 0.  1.
          1   -1    0    0  501    0  0.00000000000E+00 -0.00000000000E+00 -0.78004326429E+03  0.78004326430E+03  0.50400000000E-02 0. -1.
         23    2    1    2    0    0  0.00000000000E+00  0.00000000000E+00 -0.77716780575E+03  0.78291872725E+03  0.94720299726E+02 0.  0.
    9000005    2    3    3    0    0 -0.28163973203E+02 -0.12534567151E+02 -0.68410995594E+03  0.68488767007E+03  0.10694112243E+02 0.  0.
         22    1    3    3    0    0  0.28163973203E+02  0.12534567151E+02 -0.93057849818E+02  0.98031057186E+02  0.00000000000E+00 0.  1.
         22    1    4    4    0    0 -0.28594892007E+01 -0.17528836758E+01 -0.27800391193E+02  0.28001982611E+02  0.00000000000E+00 0.  1.
         22    1    4    4    0    0 -0.25304484002E+02 -0.10781683475E+02 -0.65630956474E+03  0.65688568745E+03  0.00000000000E+00 0.  1.
<mgrwt>
<rscale>  0 0.94720300E+02</rscale>
<asrwt>0</asrwt>
<pdfrwt beam="2">  1        1 0.12000649E+00 0.94720300E+02</pdfrwt>
<pdfrwt beam="1">  1       -1 0.44237920E-03 0.94720300E+02</pdfrwt>
<totfact> 0.12798026E+05</totfact>
</mgrwt>
</event>
<event>
 7    1  0.3301067E-009  0.9015384E+02  0.7818608E-02  0.1302480E+00
          1   -1    0    0  501    0  0.00000000000E+00  0.00000000000E+00  0.18512108249E+01  0.18512176857E+01  0.50400000000E-02 0. -1.
         -1   -1    0    0    0  501 -0.00000000000E+00 -0.00000000000E+00 -0.10976193153E+04  0.10976193153E+04  0.50400000000E-02 0.  1.
         23    2    1    2    0    0  0.00000000000E+00  0.17763568394E-14 -0.10957681044E+04  0.10994705329E+04  0.90153835991E+02 0.  0.
    9000005    2    3    3    0    0 -0.20980096237E+02 -0.15121932560E+02 -0.99551634581E+03  0.99593671051E+03  0.12973021617E+02 0.  0.
         22    1    3    3    0    0  0.20980096237E+02  0.15121932560E+02 -0.10025175862E+03  0.10353382244E+03  0.00000000000E+00 0. -1.
         22    1    4    4    0    0 -0.18385776397E+02 -0.14244210468E+02 -0.96904413547E+03  0.96932320244E+03  0.00000000000E+00 0.  1.
         22    1    4    4    0    0 -0.25943198395E+01 -0.87772209182E+00 -0.26472210342E+02  0.26613508072E+02  0.00000000000E+00 0.  1.
<mgrwt>
<rscale>  0 0.90153836E+02</rscale>
<asrwt>0</asrwt>
<pdfrwt beam="1">  1        1 0.28480307E-03 0.90153836E+02</pdfrwt>
<pdfrwt beam="2">  1       -1 0.16886399E+00 0.90153836E+02</pdfrwt>
<totfact> 0.23464476E+04</totfact>
</mgrwt>
</event>
<event>
 7    1  0.3301067E-009  0.9157722E+02  0.7818608E-02  0.1299077E+00
          1   -1    0    0  501    0  0.00000000000E+00  0.00000000000E+00  0.31236378445E+03  0.31236378449E+03  0.50400000000E-02 0. -1.
         -1   -1    0    0    0  501 -0.00000000000E+00 -0.00000000000E+00 -0.67120340626E+01  0.67120359548E+01  0.50400000000E-02 0.  1.
         23    2    1    2    0    0  0.00000000000E+00 -0.35527136788E-14  0.30565175039E+03  0.31907582045E+03  0.91577217026E+02 0.  0.
    9000005    2    3    3    0    0  0.37118223728E+02 -0.22406799501E+02  0.19685692127E+03  0.20195988627E+03  0.12462785046E+02 0.  0.
         22    1    3    3    0    0 -0.37118223728E+02  0.22406799501E+02  0.10879482912E+03  0.11711593418E+03  0.00000000000E+00 0.  1.
         22    1    4    4    0    0  0.35820019884E+02 -0.21929733949E+02  0.17159802217E+03  0.17666314915E+03  0.00000000000E+00 0.  1.
         22    1    4    4    0    0  0.12982038443E+01 -0.47706555229E+00  0.25258899102E+02  0.25296737114E+02  0.00000000000E+00 0.  1.
<mgrwt>
<rscale>  0 0.91577217E+02</rscale>
<asrwt>0</asrwt>
<pdfrwt beam="1">  1        1 0.48055966E-01 0.91577217E+02</pdfrwt>
<pdfrwt beam="2">  1       -1 0.10326208E-02 0.91577217E+02</pdfrwt>
<totfact> 0.12760687E+05</totfact>
</mgrwt>
</event>
<event>
 7    1  0.3301067E-009  0.9868619E+02  0.7818608E-02  0.1283083E+00
         -1   -1    0    0    0  501 -0.00000000000E+00  0.00000000000E+00  0.10106623485E+02  0.10106624742E+02  0.50400000000E-02 0.  1.
          1   -1    0    0  501    0  0.00000000000E+00 -0.00000000000E+00 -0.24090547553E+03  0.24090547558E+03  0.50400000000E-02 0. -1.
         23    2    1    2    0    0 -0.71054273576E-14  0.88817841970E-15 -0.23079885204E+03  0.25101210032E+03  0.98686191558E+02 0.  0.
    9000005    2    3    3    0    0  0.48269978417E+02 -0.63821640440E+01 -0.10946493117E+03  0.12027326451E+03  0.10600196537E+02 0.  0.
         22    1    3    3    0    0 -0.48269978417E+02  0.63821640440E+01 -0.12133392088E+03  0.13073883581E+03  0.00000000000E+00 0. -1.
         22    1    4    4    0    0  0.43685581631E+02 -0.24126679124E+01 -0.97058628394E+02  0.10646421161E+03  0.00000000000E+00 0.  1.
         22    1    4    4    0    0  0.45843967855E+01 -0.39694961316E+01 -0.12406302773E+02  0.13809052897E+02  0.00000000000E+00 0.  1.
<mgrwt>
<rscale>  0 0.98686192E+02</rscale>
<asrwt>0</asrwt>
<pdfrwt beam="2">  1        1 0.37062377E-01 0.98686192E+02</pdfrwt>
<pdfrwt beam="1">  1       -1 0.15548654E-02 0.98686192E+02</pdfrwt>
<totfact> 0.99266590E+04</totfact>
</mgrwt>
</event>
<event>
 7    1  0.3301067E-009  0.8986074E+02  0.7818608E-02  0.1303189E+00
         -1   -1    0    0    0  501 -0.00000000000E+00  0.00000000000E+00  0.89975628967E+02  0.89975629108E+02  0.50400000000E-02 0.  1.
          1   -1    0    0  501    0  0.00000000000E+00 -0.00000000000E+00 -0.22436498090E+02  0.22436498656E+02  0.50400000000E-02 0. -1.
         23    2    1    2    0    0  0.35527136788E-14  0.00000000000E+00  0.67539130877E+02  0.11241212776E+03  0.89860738194E+02 0.  0.
    9000005    2    3    3    0    0  0.21428511414E+02  0.38462000858E+02  0.38609277186E+02  0.59729653960E+02  0.11766421121E+02 0.  0.
         22    1    3    3    0    0 -0.21428511414E+02 -0.38462000858E+02  0.28929853691E+02  0.52682473803E+02  0.00000000000E+00 0.  1.
         22    1    4    4    0    0  0.85158952749E+01  0.71603346862E+01  0.13939680903E+02  0.17835514258E+02  0.00000000000E+00 0. -1.
         22    1    4    4    0    0  0.12912616139E+02  0.31301666172E+02  0.24669596282E+02  0.41894139703E+02  0.00000000000E+00 0. -1.
<mgrwt>
<rscale>  0 0.89860738E+02</rscale>
<asrwt>0</asrwt>
<pdfrwt beam="2">  1        1 0.34517690E-02 0.89860738E+02</pdfrwt>
<pdfrwt beam="1">  1       -1 0.13842405E-01 0.89860738E+02</pdfrwt>
<totfact> 0.86098748E+04</totfact>
</mgrwt>
</event>
<event>
 7    1  0.3301067E-009  0.9177128E+02  0.7818608E-02  0.1298618E+00
          1   -1    0    0  501    0  0.00000000000E+00  0.00000000000E+00  0.39355683770E+01  0.39355716042E+01  0.50400000000E-02 0. -1.
         -1   -1    0    0    0  501 -0.00000000000E+00 -0.00000000000E+00 -0.53499030411E+03  0.53499030413E+03  0.50400000000E-02 0.  1.
         23    2    1    2    0    0  0.35527136788E-14  0.00000000000E+00 -0.53105473573E+03  0.53892587574E+03  0.91771276527E+02 0.  0.
    9000005    2    3    3    0    0 -0.23639430320E+02 -0.30535573864E+02 -0.41093143927E+03  0.41274802392E+03  0.22448896593E+01 0.  0.
         22    1    3    3    0    0  0.23639430320E+02  0.30535573864E+02 -0.12012329646E+03  0.12617785182E+03  0.00000000000E+00 0. -1.
         22    1    4    4    0    0 -0.10148967112E+02 -0.12092468202E+02 -0.15826846745E+03  0.15905388115E+03  0.00000000000E+00 0.  1.
         22    1    4    4    0    0 -0.13490463208E+02 -0.18443105662E+02 -0.25266297182E+03  0.25369414277E+03  0.00000000000E+00 0.  1.
<mgrwt>
<rscale>  0 0.91771277E+02</rscale>
<asrwt>0</asrwt>
<pdfrwt beam="1">  1        1 0.60547273E-03 0.91771277E+02</pdfrwt>
<pdfrwt beam="2">  1       -1 0.82306144E-01 0.91771277E+02</pdfrwt>
<totfact> 0.44298026E+04</totfact>
</mgrwt>
</event>
<event>
 7    1  0.3301067E-009  0.8701016E+02  0.7818608E-02  0.1310258E+00
         -1   -1    0    0    0  501 -0.00000000000E+00  0.00000000000E+00  0.22267342291E+03  0.22267342296E+03  0.50400000000E-02 0.  1.
          1   -1    0    0  501    0  0.00000000000E+00 -0.00000000000E+00 -0.84998559370E+01  0.84998574312E+01  0.50400000000E-02 0. -1.
         23    2    1    2    0    0  0.00000000000E+00  0.00000000000E+00  0.21417356697E+03  0.23117328039E+03  0.87010164808E+02 0.  0.
    9000005    2    3    3    0    0 -0.21581074338E+02  0.16736800339E+02  0.19664464305E+03  0.19872137091E+03  0.86720449082E+01 0.  0.
         22    1    3    3    0    0  0.21581074338E+02 -0.16736800339E+02  0.17528923922E+02  0.32451909482E+02  0.00000000000E+00 0. -1.
         22    1    4    4    0    0 -0.74405465694E+01  0.10583026674E+02  0.75695922562E+02  0.76793455967E+02  0.00000000000E+00 0. -1.
         22    1    4    4    0    0 -0.14140527769E+02  0.61537736651E+01  0.12094872048E+03  0.12192791494E+03  0.00000000000E+00 0. -1.
<mgrwt>
<rscale>  0 0.87010165E+02</rscale>
<asrwt>0</asrwt>
<pdfrwt beam="2">  1        1 0.13076702E-02 0.87010165E+02</pdfrwt>
<pdfrwt beam="1">  1       -1 0.34257452E-01 0.87010165E+02</pdfrwt>
<totfact> 0.75946062E+04</totfact>
</mgrwt>
</event>
<event>
 7    1  0.3301067E-009  0.8216442E+02  0.7818608E-02  0.1323019E+00
         -1   -1    0    0    0  501 -0.00000000000E+00  0.00000000000E+00  0.80784583631E+01  0.80784599352E+01  0.50400000000E-02 0.  1.
          1   -1    0    0  501    0  0.00000000000E+00 -0.00000000000E+00 -0.20891955844E+03  0.20891955850E+03  0.50400000000E-02 0. -1.
         23    2    1    2    0    0  0.00000000000E+00  0.00000000000E+00 -0.20084110008E+03  0.21699801844E+03  0.82164423719E+02 0.  0.
    9000005    2    3    3    0    0 -0.12867471376E+02  0.43511489965E+01 -0.20244183507E+03  0.20332078664E+03  0.13120265785E+02 0.  0.
         22    1    3    3    0    0  0.12867471376E+02 -0.43511489965E+01  0.16007349935E+01  0.13677231800E+02  0.00000000000E+00 0.  1.
         22    1    4    4    0    0 -0.10488343920E+02  0.88523966452E+01 -0.13960722160E+03  0.14028024311E+03  0.00000000000E+00 0.  1.
         22    1    4    4    0    0 -0.23791274558E+01 -0.45012476487E+01 -0.62834613476E+02  0.63040543530E+02  0.00000000000E+00 0.  1.
<mgrwt>
<rscale>  0 0.82164424E+02</rscale>
<asrwt>0</asrwt>
<pdfrwt beam="2">  1        1 0.32141466E-01 0.82164424E+02</pdfrwt>
<pdfrwt beam="1">  1       -1 0.12428400E-02 0.82164424E+02</pdfrwt>
<totfact> 0.15755485E+05</totfact>
</mgrwt>
</event>
<event>
 7    1  0.3301067E-009  0.1010991E+03  0.7818608E-02  0.1278002E+00
         -1   -1    0    0    0  501 -0.00000000000E+00  0.00000000000E+00  0.28111454655E+03  0.28111454659E+03  0.50400000000E-02 0.  1.
          1   -1    0    0  501    0  0.00000000000E+00 -0.00000000000E+00 -0.90897319730E+01  0.90897333703E+01  0.50400000000E-02 0. -1.
         23    2    1    2    0    0  0.00000000000E+00  0.00000000000E+00  0.27202481457E+03  0.29020427996E+03  0.10109908192E+03 0.  0.
    9000005    2    3    3    0    0 -0.13917430868E+02  0.33690701983E+02  0.23560943243E+03  0.23867915659E+03  0.11277271683E+02 0.  0.
         22    1    3    3    0    0  0.13917430868E+02 -0.33690701983E+02  0.36415382138E+02  0.51525123371E+02  0.00000000000E+00 0. -1.
         22    1    4    4    0    0 -0.76430563772E+01  0.11943972634E+02  0.62021793145E+02  0.63622147229E+02  0.00000000000E+00 0. -1.
         22    1    4    4    0    0 -0.62743744904E+01  0.21746729349E+02  0.17358763929E+03  0.17505700936E+03  0.00000000000E+00 0. -1.
<mgrwt>
<rscale>  0 0.10109908E+03</rscale>
<asrwt>0</asrwt>
<pdfrwt beam="2">  1        1 0.13984203E-02 0.10109908E+03</pdfrwt>
<pdfrwt beam="1">  1       -1 0.43248394E-01 0.10109908E+03</pdfrwt>
<totfact> 0.47368988E+04</totfact>
</mgrwt>
</event>
<event>
 7    1  0.3301067E-009  0.9593352E+02  0.7818608E-02  0.1289087E+00
         -1   -1    0    0    0  501 -0.00000000000E+00  0.00000000000E+00  0.36072170244E+02  0.36072170596E+02  0.50400000000E-02 0.  1.
          1   -1    0    0  501    0  0.00000000000E+00 -0.00000000000E+00 -0.63783523758E+02  0.63783523958E+02  0.50400000000E-02 0. -1.
         23    2    1    2    0    0  0.00000000000E+00 -0.22204460493E-15 -0.27711353514E+02  0.99855694554E+02  0.95933521885E+02 0.  0.
    9000005    2    3    3    0    0 -0.46694673997E+02  0.14832568635E+01 -0.18339808524E+02  0.52206786003E+02  0.14373840733E+02 0.  0.
         22    1    3    3    0    0  0.46694673997E+02 -0.14832568635E+01 -0.93715449904E+01  0.47648908551E+02  0.00000000000E+00 0. -1.
         22    1    4    4    0    0 -0.19616191092E+02  0.37887495382E+01 -0.10700906770E+01  0.20007365396E+02  0.00000000000E+00 0. -1.
         22    1    4    4    0    0 -0.27078482905E+02 -0.23054926747E+01 -0.17269717847E+02  0.32199420607E+02  0.00000000000E+00 0. -1.
<mgrwt>
<rscale>  0 0.95933522E+02</rscale>
<asrwt>0</asrwt>
<pdfrwt beam="2">  1        1 0.98128499E-02 0.95933522E+02</pdfrwt>
<pdfrwt beam="1">  1       -1 0.55495647E-02 0.95933522E+02</pdfrwt>
<totfact> 0.84446156E+04</totfact>
</mgrwt>
</event>
<event>
 7    1  0.3301067E-009  0.9719563E+02  0.7818608E-02  0.1286306E+00
         -1   -1    0    0    0  501 -0.00000000000E+00  0.00000000000E+00  0.96964725697E+01  0.96964738795E+01  0.50400000000E-02 0.  1.
          1   -1    0    0  501    0  0.00000000000E+00 -0.00000000000E+00 -0.24356768147E+03  0.24356768153E+03  0.50400000000E-02 0. -1.
         23    2    1    2    0    0  0.00000000000E+00  0.00000000000E+00 -0.23387120890E+03  0.25326415541E+03  0.97195627777E+02 0.  0.
    9000005    2    3    3    0    0 -0.35329582461E+02 -0.13763805845E+02 -0.38806589835E+02  0.54548712219E+02  0.56558679190E+01 0.  0.
         22    1    3    3    0    0  0.35329582461E+02  0.13763805845E+02 -0.19506461907E+03  0.19871544319E+03  0.00000000000E+00 0. -1.
         22    1    4    4    0    0 -0.18998830616E+02 -0.63838294334E+01 -0.16682450857E+02  0.26077059067E+02  0.00000000000E+00 0. -1.
         22    1    4    4    0    0 -0.16330751845E+02 -0.73799764115E+01 -0.22124138978E+02  0.28471653152E+02  0.00000000000E+00 0. -1.
<mgrwt>
<rscale>  0 0.97195628E+02</rscale>
<asrwt>0</asrwt>
<pdfrwt beam="2">  1        1 0.37471946E-01 0.97195628E+02</pdfrwt>
<pdfrwt beam="1">  1       -1 0.14917653E-02 0.97195628E+02</pdfrwt>
<totfact> 0.10364797E+05</totfact>
</mgrwt>
</event>
<event>
 7    1  0.3301067E-009  0.8699444E+02  0.7818608E-02  0.1310298E+00
          1   -1    0    0  501    0  0.00000000000E+00  0.00000000000E+00  0.16642149465E+03  0.16642149473E+03  0.50400000000E-02 0. -1.
         -1   -1    0    0    0  501 -0.00000000000E+00 -0.00000000000E+00 -0.11368772732E+02  0.11368773849E+02  0.50400000000E-02 0.  1.
         23    2    1    2    0    0  0.00000000000E+00  0.00000000000E+00  0.15505272192E+03  0.17779026857E+03  0.86994442499E+02 0.  0.
    9000005    2    3    3    0    0  0.77029415447E+01 -0.33243454533E+02  0.23267710695E+02  0.41658891733E+02  0.54419042375E+01 0.  0.
         22    1    3    3    0    0 -0.77029415447E+01  0.33243454533E+02  0.13178501122E+03  0.13613137684E+03  0.00000000000E+00 0. -1.
         22    1    4    4    0    0  0.81439756930E+01 -0.28997429898E+02  0.18936788511E+02  0.35577763279E+02  0.00000000000E+00 0.  1.
         22    1    4    4    0    0 -0.44103414832E+00 -0.42460246348E+01  0.43309221843E+01  0.60811284550E+01  0.00000000000E+00 0.  1.
<mgrwt>
<rscale>  0 0.86994442E+02</rscale>
<asrwt>0</asrwt>
<pdfrwt beam="1">  1        1 0.25603306E-01 0.86994442E+02</pdfrwt>
<pdfrwt beam="2">  1       -1 0.17490421E-02 0.86994442E+02</pdfrwt>
<totfact> 0.12966246E+05</totfact>
</mgrwt>
</event>
<event>
 7    1  0.3301067E-009  0.9074941E+02  0.7818608E-02  0.1301047E+00
          1   -1    0    0  501    0  0.00000000000E+00  0.00000000000E+00  0.83447519483E+02  0.83447519635E+02  0.50400000000E-02 0. -1.
         -1   -1    0    0    0  501 -0.00000000000E+00 -0.00000000000E+00 -0.24672560099E+02  0.24672560614E+02  0.50400000000E-02 0.  1.
         23    2    1    2    0    0  0.00000000000E+00  0.35527136788E-14  0.58774959384E+02  0.10812008025E+03  0.90749412684E+02 0.  0.
    9000005    2    3    3    0    0  0.38793602278E+02  0.17819230425E+02  0.11828825143E+02  0.44666096365E+02  0.57158122440E+01 0.  0.
         22    1    3    3    0    0 -0.38793602278E+02 -0.17819230425E+02  0.46946134241E+02  0.63453983884E+02  0.00000000000E+00 0.  1.
         22    1    4    4    0    0  0.30890977683E+02  0.12469938530E+02  0.73013442947E+01  0.34103687449E+02  0.00000000000E+00 0.  1.
         22    1    4    4    0    0  0.79026245948E+01  0.53492918956E+01  0.45274808484E+01  0.10562408916E+02  0.00000000000E+00 0.  1.
<mgrwt>
<rscale>  0 0.90749413E+02</rscale>
<asrwt>0</asrwt>
<pdfrwt beam="1">  1        1 0.12838080E-01 0.90749413E+02</pdfrwt>
<pdfrwt beam="2">  1       -1 0.37957785E-02 0.90749413E+02</pdfrwt>
<totfact> 0.10273412E+05</totfact>
</mgrwt>
</event>
<event>
 7    1  0.3301067E-009  0.9100457E+02  0.7818608E-02  0.1300437E+00
         -1   -1    0    0    0  501 -0.00000000000E+00  0.00000000000E+00  0.98786501510E+02  0.98786501639E+02  0.50400000000E-02 0.  1.
          1   -1    0    0  501    0  0.00000000000E+00 -0.00000000000E+00 -0.20958913877E+02  0.20958914483E+02  0.50400000000E-02 0. -1.
         23    2    1    2    0    0  0.35527136788E-14  0.00000000000E+00  0.77827587633E+02  0.11974541612E+03  0.91004567387E+02 0.  0.
    9000005    2    3    3    0    0 -0.18382998772E+02  0.92248888121E+01 -0.13213005982E+02  0.26410412489E+02  0.99946557379E+01 0.  0.
         22    1    3    3    0    0  0.18382998772E+02 -0.92248888121E+01  0.91040593615E+02  0.93335003633E+02  0.00000000000E+00 0.  1.
         22    1    4    4    0    0 -0.17013587657E+02  0.42269794771E+01 -0.11440330946E+02  0.20933482573E+02  0.00000000000E+00 0. -1.
         22    1    4    4    0    0 -0.13694111144E+01  0.49979093351E+01 -0.17726750353E+01  0.54769299158E+01  0.00000000000E+00 0. -1.
<mgrwt>
<rscale>  0 0.91004567E+02</rscale>
<asrwt>0</asrwt>
<pdfrwt beam="2">  1        1 0.32244483E-02 0.91004567E+02</pdfrwt>
<pdfrwt beam="1">  1       -1 0.15197924E-01 0.91004567E+02</pdfrwt>
<totfact> 0.81953347E+04</totfact>
</mgrwt>
</event>
<event>
 7    1  0.3301067E-009  0.9533098E+02  0.7818608E-02  0.1290432E+00
          1   -1    0    0  501    0  0.00000000000E+00  0.00000000000E+00  0.10517872788E+03  0.10517872800E+03  0.50400000000E-02 0. -1.
         -1   -1    0    0    0  501 -0.00000000000E+00 -0.00000000000E+00 -0.21601313377E+02  0.21601313965E+02  0.50400000000E-02 0.  1.
         23    2    1    2    0    0  0.00000000000E+00  0.00000000000E+00  0.83577414498E+02  0.12678004196E+03  0.95330975163E+02 0.  0.
    9000005    2    3    3    0    0  0.26691033464E+02 -0.23226034019E+02  0.83569720637E+02  0.91398408551E+02  0.10858681070E+02 0.  0.
         22    1    3    3    0    0 -0.26691033464E+02  0.23226034019E+02  0.76938610704E-02  0.35381633411E+02  0.00000000000E+00 0.  1.
         22    1    4    4    0    0  0.17836154870E+02 -0.16647992393E+02  0.68554778192E+02  0.72767037072E+02  0.00000000000E+00 0.  1.
         22    1    4    4    0    0  0.88548785935E+01 -0.65780416265E+01  0.15014942445E+02  0.18631371479E+02  0.00000000000E+00 0.  1.
<mgrwt>
<rscale>  0 0.95330975E+02</rscale>
<asrwt>0</asrwt>
<pdfrwt beam="1">  1        1 0.16181343E-01 0.95330975E+02</pdfrwt>
<pdfrwt beam="2">  1       -1 0.33232791E-02 0.95330975E+02</pdfrwt>
<totfact> 0.93264707E+04</totfact>
</mgrwt>
</event>
<event>
 7    1  0.3301067E-009  0.8949759E+02  0.7818608E-02  0.1304073E+00
         -1   -1    0    0    0  501 -0.00000000000E+00  0.00000000000E+00  0.15741940824E+02  0.15741941631E+02  0.50400000000E-02 0.  1.
          1   -1    0    0  501    0  0.00000000000E+00 -0.00000000000E+00 -0.12720507050E+03  0.12720507060E+03  0.50400000000E-02 0. -1.
         23    2    1    2    0    0  0.00000000000E+00  0.00000000000E+00 -0.11146312968E+03  0.14294701223E+03  0.89497592306E+02 0.  0.
    9000005    2    3    3    0    0 -0.24792492530E+02 -0.33434101296E+02 -0.81067019569E+02  0.91406442532E+02  0.71252550239E+01 0.  0.
         22    1    3    3    0    0  0.24792492530E+02  0.33434101296E+02 -0.30396110108E+02  0.51540569700E+02  0.00000000000E+00 0.  1.
         22    1    4    4    0    0 -0.14219530815E+02 -0.20511660444E+02 -0.40992380245E+02  0.47992692245E+02  0.00000000000E+00 0.  1.
         22    1    4    4    0    0 -0.10572961715E+02 -0.12922440852E+02 -0.40074639324E+02  0.43413750287E+02  0.00000000000E+00 0.  1.
<mgrwt>
<rscale>  0 0.89497592E+02</rscale>
<asrwt>0</asrwt>
<pdfrwt beam="2">  1        1 0.19570010E-01 0.89497592E+02</pdfrwt>
<pdfrwt beam="1">  1       -1 0.24218372E-02 0.89497592E+02</pdfrwt>
<totfact> 0.11445587E+05</totfact>
</mgrwt>
</event>
<event>
 7    1  0.3301067E-009  0.9597928E+02  0.7818608E-02  0.1288986E+00
         -1   -1    0    0    0  501 -0.00000000000E+00  0.00000000000E+00  0.37988684423E+01  0.37988717857E+01  0.50400000000E-02 0.  1.
          1   -1    0    0  501    0  0.00000000000E+00 -0.00000000000E+00 -0.60623432130E+03  0.60623432132E+03  0.50400000000E-02 0. -1.
         23    2    1    2    0    0  0.00000000000E+00  0.00000000000E+00 -0.60243545286E+03  0.61003319311E+03  0.95979278139E+02 0.  0.
    9000005    2    3    3    0    0  0.31774066402E+01 -0.37719851286E+02 -0.48393010526E+03  0.48562901109E+03  0.14639212455E+02 0.  0.
         22    1    3    3    0    0 -0.31774066402E+01  0.37719851286E+02 -0.11850534760E+03  0.12440418202E+03  0.00000000000E+00 0.  1.
         22    1    4    4    0    0  0.64653231302E+01 -0.13673014224E+02 -0.13216013504E+03  0.13302275375E+03  0.00000000000E+00 0. -1.
         22    1    4    4    0    0 -0.32879164899E+01 -0.24046837062E+02 -0.35176997022E+03  0.35260625734E+03  0.00000000000E+00 0. -1.
<mgrwt>
<rscale>  0 0.95979278E+02</rscale>
<asrwt>0</asrwt>
<pdfrwt beam="2">  1        1 0.93266742E-01 0.95979278E+02</pdfrwt>
<pdfrwt beam="1">  1       -1 0.58444204E-03 0.95979278E+02</pdfrwt>
<totfact> 0.12362969E+05</totfact>
</mgrwt>
</event>
<event>
 7    1  0.3301067E-009  0.9234933E+02  0.7818608E-02  0.1297260E+00
          1   -1    0    0  501    0  0.00000000000E+00  0.00000000000E+00  0.16698606976E+02  0.16698607736E+02  0.50400000000E-02 0. -1.
         -1   -1    0    0    0  501 -0.00000000000E+00 -0.00000000000E+00 -0.12768128280E+03  0.12768128289E+03  0.50400000000E-02 0.  1.
         23    2    1    2    0    0  0.35527136788E-14 -0.35527136788E-14 -0.11098267582E+03  0.14437989063E+03  0.92349328566E+02 0.  0.
    9000005    2    3    3    0    0 -0.24714764784E+02  0.30825293790E+02 -0.20905734460E+02  0.46018954786E+02  0.10939658621E+02 0.  0.
         22    1    3    3    0    0  0.24714764784E+02 -0.30825293790E+02 -0.90076941359E+02  0.98360935845E+02  0.00000000000E+00 0.  1.
         22    1    4    4    0    0 -0.13236177169E+02  0.99610298708E+01 -0.12548133608E+02  0.20781582210E+02  0.00000000000E+00 0.  1.
         22    1    4    4    0    0 -0.11478587616E+02  0.20864263919E+02 -0.83576008523E+01  0.25237372576E+02  0.00000000000E+00 0.  1.
<mgrwt>
<rscale>  0 0.92349329E+02</rscale>
<asrwt>0</asrwt>
<pdfrwt beam="1">  1        1 0.25690166E-02 0.92349329E+02</pdfrwt>
<pdfrwt beam="2">  1       -1 0.19643274E-01 0.92349329E+02</pdfrwt>
<totfact> 0.74996953E+04</totfact>
</mgrwt>
</event>
<event>
 7    1  0.3301067E-009  0.9304949E+02  0.7818608E-02  0.1295631E+00
          1   -1    0    0  501    0  0.00000000000E+00  0.00000000000E+00  0.11053675771E+03  0.11053675783E+03  0.50400000000E-02 0. -1.
         -1   -1    0    0    0  501 -0.00000000000E+00 -0.00000000000E+00 -0.19582188457E+02  0.19582189105E+02  0.50400000000E-02 0.  1.
         23    2    1    2    0    0 -0.71054273576E-14  0.17763568394E-14  0.90954569257E+02  0.13011894693E+03  0.93049485127E+02 0.  0.
    9000005    2    3    3    0    0  0.36665717686E+02 -0.12918043730E+02  0.12977291124E+02  0.42988546887E+02  0.12975144364E+02 0.  0.
         22    1    3    3    0    0 -0.36665717686E+02  0.12918043730E+02  0.77977278133E+02  0.87130400046E+02  0.00000000000E+00 0. -1.
         22    1    4    4    0    0  0.31182650659E+02 -0.15523402799E+02  0.10080570775E+02  0.36262261977E+02  0.00000000000E+00 0. -1.
         22    1    4    4    0    0  0.54830670274E+01  0.26053590687E+01  0.28967203493E+01  0.67262849097E+01  0.00000000000E+00 0. -1.
<mgrwt>
<rscale>  0 0.93049485E+02</rscale>
<asrwt>0</asrwt>
<pdfrwt beam="1">  1        1 0.17005655E-01 0.93049485E+02</pdfrwt>
<pdfrwt beam="2">  1       -1 0.30126445E-02 0.93049485E+02</pdfrwt>
<totfact> 0.10050415E+05</totfact>
</mgrwt>
</event>
<event>
 7    1  0.3301067E-009  0.9192988E+02  0.7818608E-02  0.1298244E+00
          1   -1    0    0  501    0  0.00000000000E+00  0.00000000000E+00  0.13449293038E+03  0.13449293047E+03  0.50400000000E-02 0. -1.
         -1   -1    0    0    0  501 -0.00000000000E+00 -0.00000000000E+00 -0.15709193500E+02  0.15709194308E+02  0.50400000000E-02 0.  1.
         23    2    1    2    0    0  0.35527136788E-14  0.00000000000E+00  0.11878373688E+03  0.15020212478E+03  0.91929876219E+02 0.  0.
    9000005    2    3    3    0    0 -0.27453234598E+02  0.33303373275E+02  0.79527372432E+02  0.91859542467E+02  0.15835965864E+02 0.  0.
         22    1    3    3    0    0  0.27453234598E+02 -0.33303373275E+02  0.39256364443E+02  0.58342582311E+02  0.00000000000E+00 0.  1.
         22    1    4    4    0    0 -0.10851964039E+02  0.13530452639E+02  0.48425820887E+02  0.51438297023E+02  0.00000000000E+00 0.  1.
         22    1    4    4    0    0 -0.16601270559E+02  0.19772920636E+02  0.31101551546E+02  0.40421245444E+02  0.00000000000E+00 0.  1.
<mgrwt>
<rscale>  0 0.91929876E+02</rscale>
<asrwt>0</asrwt>
<pdfrwt beam="1">  1        1 0.20691220E-01 0.91929876E+02</pdfrwt>
<pdfrwt beam="2">  1       -1 0.24167991E-02 0.91929876E+02</pdfrwt>
<totfact> 0.10751045E+05</totfact>
</mgrwt>
</event>
<event>
 7    1  0.3301067E-009  0.9378254E+02  0.7818608E-02  0.1293942E+00
          1   -1    0    0  501    0  0.00000000000E+00  0.00000000000E+00  0.12045861771E+03  0.12045861781E+03  0.50400000000E-02 0. -1.
         -1   -1    0    0    0  501 -0.00000000000E+00 -0.00000000000E+00 -0.18253499124E+02  0.18253499820E+02  0.50400000000E-02 0.  1.
         23    2    1    2    0    0  0.00000000000E+00 -0.71054273576E-14  0.10220511858E+03  0.13871211763E+03  0.93782542691E+02 0.  0.
    9000005    2    3    3    0    0  0.10628520762E+02  0.42969480965E+02  0.34840775785E+02  0.58106308732E+02  0.14252077361E+02 0.  0.
         22    1    3    3    0    0 -0.10628520762E+02 -0.42969480965E+02  0.67364342799E+02  0.80605808902E+02  0.00000000000E+00 0.  1.
         22    1    4    4    0    0  0.68291704122E+01  0.77992197365E+01  0.12617960742E+02  0.16330288739E+02  0.00000000000E+00 0.  1.
         22    1    4    4    0    0  0.37993503501E+01  0.35170261229E+02  0.22222815044E+02  0.41776019993E+02  0.00000000000E+00 0.  1.
<mgrwt>
<rscale>  0 0.93782543E+02</rscale>
<asrwt>0</asrwt>
<pdfrwt beam="1">  1        1 0.18532096E-01 0.93782543E+02</pdfrwt>
<pdfrwt beam="2">  1       -1 0.28082306E-02 0.93782543E+02</pdfrwt>
<totfact> 0.99859130E+04</totfact>
</mgrwt>
</event>
<event>
 7    1  0.3301067E-009  0.9137283E+02  0.7818608E-02  0.1299561E+00
         -1   -1    0    0    0  501 -0.00000000000E+00  0.00000000000E+00  0.36930749740E+02  0.36930750083E+02  0.50400000000E-02 0.  1.
          1   -1    0    0  501    0  0.00000000000E+00 -0.00000000000E+00 -0.56517902948E+02  0.56517903173E+02  0.50400000000E-02 0. -1.
         23    2    1    2    0    0  0.17763568394E-14  0.00000000000E+00 -0.19587153209E+02  0.93448653257E+02  0.91372830889E+02 0.  0.
    9000005    2    3    3    0    0 -0.13381064036E+02 -0.32886335842E+02 -0.39185341233E+02  0.52894332479E+02  0.13249456670E+01 0.  0.
         22    1    3    3    0    0  0.13381064036E+02  0.32886335842E+02  0.19598188024E+02  0.40554320777E+02  0.00000000000E+00 0.  1.
         22    1    4    4    0    0 -0.97002889418E+01 -0.22766475273E+02 -0.27975707373E+02  0.37350344107E+02  0.00000000000E+00 0.  1.
         22    1    4    4    0    0 -0.36807750941E+01 -0.10119860570E+02 -0.11209633860E+02  0.15543988372E+02  0.00000000000E+00 0.  1.
<mgrwt>
<rscale>  0 0.91372831E+02</rscale>
<asrwt>0</asrwt>
<pdfrwt beam="2">  1        1 0.86950621E-02 0.91372831E+02</pdfrwt>
<pdfrwt beam="1">  1       -1 0.56816538E-02 0.91372831E+02</pdfrwt>
<totfact> 0.94936350E+04</totfact>
</mgrwt>
</event>
<event>
 7    1  0.3301067E-009  0.9231624E+02  0.7818608E-02  0.1297338E+00
         -1   -1    0    0    0  501 -0.00000000000E+00  0.00000000000E+00  0.10206944844E+03  0.10206944856E+03  0.50400000000E-02 0.  1.
          1   -1    0    0  501    0  0.00000000000E+00 -0.00000000000E+00 -0.20873749752E+02  0.20873750360E+02  0.50400000000E-02 0. -1.
         23    2    1    2    0    0  0.35527136788E-14  0.00000000000E+00  0.81195698685E+02  0.12294319892E+03  0.92316242753E+02 0.  0.
    9000005    2    3    3    0    0 -0.31539566974E+02  0.25358221863E+02  0.16105436653E+02  0.46297743007E+02  0.15694337094E+02 0.  0.
         22    1    3    3    0    0  0.31539566974E+02 -0.25358221863E+02  0.65090262031E+02  0.76645455914E+02  0.00000000000E+00 0.  1.
         22    1    4    4    0    0 -0.44658444522E+01  0.11473058311E+01  0.77672662832E+01  0.90327461414E+01  0.00000000000E+00 0.  1.
         22    1    4    4    0    0 -0.27073722522E+02  0.24210916031E+02  0.83381703703E+01  0.37264996866E+02  0.00000000000E+00 0.  1.
<mgrwt>
<rscale>  0 0.92316243E+02</rscale>
<asrwt>0</asrwt>
<pdfrwt beam="2">  1        1 0.32113462E-02 0.92316243E+02</pdfrwt>
<pdfrwt beam="1">  1       -1 0.15702992E-01 0.92316243E+02</pdfrwt>
<totfact> 0.78504051E+04</totfact>
</mgrwt>
</event>
<event>
 7    1  0.3301067E-009  0.9217253E+02  0.7818608E-02  0.1297674E+00
          1   -1    0    0  501    0  0.00000000000E+00  0.00000000000E+00  0.68051523987E+02  0.68051524174E+02  0.50400000000E-02 0. -1.
         -1   -1    0    0    0  501 -0.00000000000E+00 -0.00000000000E+00 -0.31210821500E+02  0.31210821907E+02  0.50400000000E-02 0.  1.
         23    2    1    2    0    0  0.00000000000E+00  0.00000000000E+00  0.36840702488E+02  0.99262346080E+02  0.92172533814E+02 0.  0.
    9000005    2    3    3    0    0 -0.36422259868E+02 -0.26768538727E+02  0.18875374240E+02  0.50621944165E+02  0.12773636867E+02 0.  0.
         22    1    3    3    0    0  0.36422259868E+02  0.26768538727E+02  0.17965328247E+02  0.48640401916E+02  0.00000000000E+00 0. -1.
         22    1    4    4    0    0 -0.22395174856E+02 -0.15638678444E+02  0.45519047113E+01  0.27691730838E+02  0.00000000000E+00 0. -1.
         22    1    4    4    0    0 -0.14027085012E+02 -0.11129860284E+02  0.14323469529E+02  0.22930213327E+02  0.00000000000E+00 0. -1.
<mgrwt>
<rscale>  0 0.92172534E+02</rscale>
<asrwt>0</asrwt>
<pdfrwt beam="1">  1        1 0.10469465E-01 0.92172534E+02</pdfrwt>
<pdfrwt beam="2">  1       -1 0.48016650E-02 0.92172534E+02</pdfrwt>
<totfact> 0.95331958E+04</totfact>
</mgrwt>
</event>
<event>
 7    1  0.3301067E-009  0.9121280E+02  0.7818608E-02  0.1299941E+00
         -1   -1    0    0    0  501 -0.00000000000E+00  0.00000000000E+00  0.53934763940E+02  0.53934764176E+02  0.50400000000E-02 0.  1.
          1   -1    0    0  501    0  0.00000000000E+00 -0.00000000000E+00 -0.38564061315E+02  0.38564061645E+02  0.50400000000E-02 0. -1.
         23    2    1    2    0    0  0.00000000000E+00  0.00000000000E+00  0.15370702625E+02  0.92498825820E+02  0.91212796684E+02 0.  0.
    9000005    2    3    3    0    0 -0.26965753383E+01  0.35517187411E+02  0.35878745756E+02  0.51397463882E+02  0.92559589635E+01 0.  0.
         22    1    3    3    0    0  0.26965753383E+01 -0.35517187411E+02 -0.20508043131E+02  0.41101361938E+02  0.00000000000E+00 0. -1.
         22    1    4    4    0    0 -0.20038512772E+01  0.30242185120E+02  0.25004959034E+02  0.39291896837E+02  0.00000000000E+00 0.  1.
         22    1    4    4    0    0 -0.69272406114E+00  0.52750022905E+01  0.10873786722E+02  0.12105567044E+02  0.00000000000E+00 0.  1.
<mgrwt>
<rscale>  0 0.91212797E+02</rscale>
<asrwt>0</asrwt>
<pdfrwt beam="2">  1        1 0.59329325E-02 0.91212797E+02</pdfrwt>
<pdfrwt beam="1">  1       -1 0.82976561E-02 0.91212797E+02</pdfrwt>
<totfact> 0.90059456E+04</totfact>
</mgrwt>
</event>
<event>
 7    1  0.3301067E-009  0.9106117E+02  0.7818608E-02  0.1300302E+00
          1   -1    0    0  501    0  0.00000000000E+00  0.00000000000E+00  0.11428107881E+02  0.11428108992E+02  0.50400000000E-02 0. -1.
         -1   -1    0    0    0  501 -0.00000000000E+00 -0.00000000000E+00 -0.18139784505E+03  0.18139784512E+03  0.50400000000E-02 0.  1.
         23    2    1    2    0    0  0.00000000000E+00  0.17763568394E-14 -0.16996973717E+03  0.19282595411E+03  0.91061171891E+02 0.  0.
    9000005    2    3    3    0    0  0.21427414129E+02 -0.14656062754E+02 -0.16353886080E+03  0.16608104016E+03  0.12806976874E+02 0.  0.
         22    1    3    3    0    0 -0.21427414129E+02  0.14656062754E+02 -0.64308763728E+01  0.26744913958E+02  0.00000000000E+00 0. -1.
         22    1    4    4    0    0  0.79936718490E+01 -0.10466389584E+01 -0.78797254671E+02  0.79208595407E+02  0.00000000000E+00 0. -1.
         22    1    4    4    0    0  0.13433742279E+02 -0.13609423795E+02 -0.84741606128E+02  0.86872444750E+02  0.00000000000E+00 0. -1.
<mgrwt>
<rscale>  0 0.91061172E+02</rscale>
<asrwt>0</asrwt>
<pdfrwt beam="1">  1        1 0.17581707E-02 0.91061172E+02</pdfrwt>
<pdfrwt beam="2">  1       -1 0.27907359E-01 0.91061172E+02</pdfrwt>
<totfact> 0.71558599E+04</totfact>
</mgrwt>
</event>
<event>
 7    1  0.3301067E-009  0.7717396E+02  0.7818608E-02  0.1337268E+00
         -1   -1    0    0    0  501 -0.00000000000E+00  0.00000000000E+00  0.70220929661E+03  0.70220929663E+03  0.50400000000E-02 0.  1.
          1   -1    0    0  501    0  0.00000000000E+00 -0.00000000000E+00 -0.21203833411E+01  0.21203893310E+01  0.50400000000E-02 0. -1.
         23    2    1    2    0    0  0.17763568394E-14  0.00000000000E+00  0.70008891327E+03  0.70432968596E+03  0.77173959606E+02 0.  0.
    9000005    2    3    3    0    0  0.14877909770E+02 -0.45511222304E+01  0.67097888667E+03  0.67132273880E+03  0.14815139221E+02 0.  0.
         22    1    3    3    0    0 -0.14877909770E+02  0.45511222304E+01  0.29110026600E+02  0.33006947168E+02  0.00000000000E+00 0. -1.
         22    1    4    4    0    0  0.46090781241E+01 -0.23617518097E+01  0.49718762443E+03  0.49721459689E+03  0.00000000000E+00 0.  1.
         22    1    4    4    0    0  0.10268831646E+02 -0.21893704207E+01  0.17379126224E+03  0.17410814191E+03  0.00000000000E+00 0.  1.
<mgrwt>
<rscale>  0 0.77173960E+02</rscale>
<asrwt>0</asrwt>
<pdfrwt beam="2">  1        1 0.32621305E-03 0.77173960E+02</pdfrwt>
<pdfrwt beam="1">  1       -1 0.10803228E+00 0.77173960E+02</pdfrwt>
<totfact> 0.56766925E+04</totfact>
</mgrwt>
</event>
<event>
 7    1  0.3301067E-009  0.9145963E+02  0.7818608E-02  0.1299355E+00
          1   -1    0    0  501    0  0.00000000000E+00  0.00000000000E+00  0.20170275054E+03  0.20170275061E+03  0.50400000000E-02 0. -1.
         -1   -1    0    0    0  501 -0.00000000000E+00 -0.00000000000E+00 -0.10367810959E+02  0.10367812184E+02  0.50400000000E-02 0.  1.
         23    2    1    2    0    0  0.00000000000E+00  0.00000000000E+00  0.19133493958E+03  0.21207056279E+03  0.91459633154E+02 0.  0.
    9000005    2    3    3    0    0 -0.37104080259E+02  0.23602284013E+02  0.11619485057E+03  0.12500843808E+03  0.13859498879E+02 0.  0.
         22    1    3    3    0    0  0.37104080259E+02 -0.23602284013E+02  0.75140089012E+02  0.87062124711E+02  0.00000000000E+00 0.  1.
         22    1    4    4    0    0 -0.26123134108E+02  0.23467703555E+02  0.87444482501E+02  0.94232100505E+02  0.00000000000E+00 0. -1.
         22    1    4    4    0    0 -0.10980946151E+02  0.13458045773E+00  0.28750368070E+02  0.30776337574E+02  0.00000000000E+00 0. -1.
<mgrwt>
<rscale>  0 0.91459633E+02</rscale>
<asrwt>0</asrwt>
<pdfrwt beam="1">  1        1 0.31031192E-01 0.91459633E+02</pdfrwt>
<pdfrwt beam="2">  1       -1 0.15950479E-02 0.91459633E+02</pdfrwt>
<totfact> 0.11761923E+05</totfact>
</mgrwt>
</event>
<event>
 7    1  0.3301067E-009  0.9070389E+02  0.7818608E-02  0.1301156E+00
          1   -1    0    0  501    0  0.00000000000E+00  0.00000000000E+00  0.11754251017E+02  0.11754252098E+02  0.50400000000E-02 0. -1.
         -1   -1    0    0    0  501 -0.00000000000E+00 -0.00000000000E+00 -0.17498338526E+03  0.17498338533E+03  0.50400000000E-02 0.  1.
         23    2    1    2    0    0  0.00000000000E+00 -0.71054273576E-14 -0.16322913424E+03  0.18673763743E+03  0.90703886176E+02 0.  0.
    9000005    2    3    3    0    0 -0.19161401865E+02  0.33936752626E+02 -0.12833387499E+03  0.13442567304E+03  0.90451977057E+01 0.  0.
         22    1    3    3    0    0  0.19161401865E+02 -0.33936752626E+02 -0.34895259250E+02  0.52311964390E+02  0.00000000000E+00 0.  1.
         22    1    4    4    0    0 -0.14238408176E+01  0.36536656057E+00 -0.18339822184E+01  0.23503842611E+01  0.00000000000E+00 0.  1.
         22    1    4    4    0    0 -0.17737561047E+02  0.33571386065E+02 -0.12649989277E+03  0.13207528878E+03  0.00000000000E+00 0.  1.
<mgrwt>
<rscale>  0 0.90703886E+02</rscale>
<asrwt>0</asrwt>
<pdfrwt beam="1">  1        1 0.18083465E-02 0.90703886E+02</pdfrwt>
<pdfrwt beam="2">  1       -1 0.26920519E-01 0.90703886E+02</pdfrwt>
<totfact> 0.72981784E+04</totfact>
</mgrwt>
</event>
<event>
 7    1  0.3301067E-009  0.9100920E+02  0.7818608E-02  0.1300426E+00
          1   -1    0    0  501    0  0.00000000000E+00  0.00000000000E+00  0.24129582134E+03  0.24129582139E+03  0.50400000000E-02 0. -1.
         -1   -1    0    0    0  501 -0.00000000000E+00 -0.00000000000E+00 -0.85814513866E+01  0.85814528666E+01  0.50400000000E-02 0.  1.
         23    2    1    2    0    0 -0.17763568394E-14  0.00000000000E+00  0.23271436995E+03  0.24987727425E+03  0.91009198482E+02 0.  0.
    9000005    2    3    3    0    0 -0.10537892487E+02  0.41257827396E+02  0.15322015397E+03  0.15969642333E+03  0.14603990623E+02 0.  0.
         22    1    3    3    0    0  0.10537892487E+02 -0.41257827396E+02  0.79494215982E+02  0.90180850928E+02  0.00000000000E+00 0.  1.
         22    1    4    4    0    0 -0.81204500043E+00  0.16229077777E+02  0.81731058114E+02  0.83330716084E+02  0.00000000000E+00 0.  1.
         22    1    4    4    0    0 -0.97258474870E+01  0.25028749619E+02  0.71489095852E+02  0.76365707242E+02  0.00000000000E+00 0.  1.
<mgrwt>
<rscale>  0 0.91009198E+02</rscale>
<asrwt>0</asrwt>
<pdfrwt beam="1">  1        1 0.37122436E-01 0.91009198E+02</pdfrwt>
<pdfrwt beam="2">  1       -1 0.13202233E-02 0.91009198E+02</pdfrwt>
<totfact> 0.12342471E+05</totfact>
</mgrwt>
</event>
<event>
 7    1  0.3301067E-009  0.8811466E+02  0.7818608E-02  0.1307483E+00
          1   -1    0    0  501    0  0.00000000000E+00  0.00000000000E+00  0.42816675175E+02  0.42816675472E+02  0.50400000000E-02 0. -1.
         -1   -1    0    0    0  501 -0.00000000000E+00 -0.00000000000E+00 -0.45333934004E+02  0.45333934284E+02  0.50400000000E-02 0.  1.
         23    2    1    2    0    0  0.00000000000E+00  0.35527136788E-14 -0.25172588286E+01  0.88150609756E+02  0.88114660575E+02 0.  0.
    9000005    2    3    3    0    0  0.55673063744E+00  0.29342800241E+02  0.31306495609E+02  0.43369405671E+02  0.62848075498E+01 0.  0.
         22    1    3    3    0    0 -0.55673063744E+00 -0.29342800241E+02 -0.33823754438E+02  0.44781204085E+02  0.00000000000E+00 0.  1.
         22    1    4    4    0    0  0.52414883034E+00  0.18641426928E+02  0.15334799261E+02  0.24144017857E+02  0.00000000000E+00 0. -1.
         22    1    4    4    0    0  0.32581807104E-01  0.10701373314E+02  0.15971696348E+02  0.19225387814E+02  0.00000000000E+00 0. -1.
<mgrwt>
<rscale>  0 0.88114661E+02</rscale>
<asrwt>0</asrwt>
<pdfrwt beam="1">  1        1 0.65871808E-02 0.88114661E+02</pdfrwt>
<pdfrwt beam="2">  1       -1 0.69744514E-02 0.88114661E+02</pdfrwt>
<totfact> 0.10081436E+05</totfact>
</mgrwt>
</event>
<event>
 6    1  0.3301067E-009  0.2678255E+03  0.7818608E-02  0.1102531E+00
         -1   -1    0    0    0  501 -0.00000000000E+00  0.00000000000E+00  0.12745909215E+03  0.12745909225E+03  0.50400000000E-02 0.  1.
          1   -1    0    0  501    0  0.00000000000E+00 -0.00000000000E+00 -0.14069316212E+03  0.14069316221E+03  0.50400000000E-02 0. -1.
    9000005    2    1    2    0    0 -0.73303199538E+02 -0.22054342107E+02  0.10314265359E+03  0.12885654434E+03  0.10288292424E+02 0.  0.
         22    1    1    2    0    0  0.73303199538E+02  0.22054342107E+02 -0.11637672357E+03  0.13929571011E+03  0.00000000000E+00 0. -1.
         22    1    3    3    0    0 -0.94556281921E+01 -0.59729733645E+00  0.87574638735E+01  0.12901892966E+02  0.00000000000E+00 0. -1.
         22    1    3    3    0    0 -0.63847571346E+02 -0.21457044770E+02  0.94385189721E+02  0.11595465138E+03  0.00000000000E+00 0. -1.
<mgrwt>
<rscale>  0 0.26782549E+03</rscale>
<asrwt>0</asrwt>
<pdfrwt beam="2">  1        1 0.21645102E-01 0.26782549E+03</pdfrwt>
<pdfrwt beam="1">  1       -1 0.19609091E-01 0.26782549E+03</pdfrwt>
<totfact> 0.47611608E+03</totfact>
</mgrwt>
</event>
<event>
 7    1  0.3301067E-009  0.9141796E+02  0.7818608E-02  0.1299454E+00
          1   -1    0    0  501    0  0.00000000000E+00  0.00000000000E+00  0.15927955765E+02  0.15927956563E+02  0.50400000000E-02 0. -1.
         -1   -1    0    0    0  501 -0.00000000000E+00 -0.00000000000E+00 -0.13117256112E+03  0.13117256122E+03  0.50400000000E-02 0.  1.
         23    2    1    2    0    0 -0.71054273576E-14  0.00000000000E+00 -0.11524460536E+03  0.14710051778E+03  0.91417959220E+02 0.  0.
    9000005    2    3    3    0    0 -0.32962018701E+02 -0.21726398001E+02 -0.92927749690E+02  0.10175106251E+03  0.12616695755E+02 0.  0.
         22    1    3    3    0    0  0.32962018701E+02  0.21726398001E+02 -0.22316855667E+02  0.45349455276E+02  0.00000000000E+00 0. -1.
         22    1    4    4    0    0 -0.83243242012E+00 -0.40784627016E+01 -0.51187518922E+01  0.65976073448E+01  0.00000000000E+00 0.  1.
         22    1    4    4    0    0 -0.32129586281E+02 -0.17647935300E+02 -0.87808997798E+02  0.95153455162E+02  0.00000000000E+00 0.  1.
<mgrwt>
<rscale>  0 0.91417959E+02</rscale>
<asrwt>0</asrwt>
<pdfrwt beam="1">  1        1 0.24504549E-02 0.91417959E+02</pdfrwt>
<pdfrwt beam="2">  1       -1 0.20180393E-01 0.91417959E+02</pdfrwt>
<totfact> 0.76549959E+04</totfact>
</mgrwt>
</event>
<event>
 7    1  0.3301067E-009  0.9199114E+02  0.7818608E-02  0.1298100E+00
         -1   -1    0    0    0  501 -0.00000000000E+00  0.00000000000E+00  0.15721341813E+02  0.15721342621E+02  0.50400000000E-02 0. -1.
          1   -1    0    0  501    0  0.00000000000E+00 -0.00000000000E+00 -0.13456817190E+03  0.13456817199E+03  0.50400000000E-02 0.  1.
         23    2    1    2    0    0  0.17763568394E-14 -0.17763568394E-14 -0.11884683008E+03  0.15028951461E+03  0.91991136429E+02 0.  0.
    9000005    2    3    3    0    0  0.12570418628E+02 -0.14343414820E+02 -0.12750951945E+03  0.12934217205E+03  0.10342676054E+02 0.  0.
         22    1    3    3    0    0 -0.12570418628E+02  0.14343414820E+02  0.86626893672E+01  0.20947342558E+02  0.00000000000E+00 0. -1.
         22    1    4    4    0    0  0.99769328324E+01 -0.15826101712E+02 -0.10972713979E+03  0.11131060098E+03  0.00000000000E+00 0. -1.
         22    1    4    4    0    0  0.25934857956E+01  0.14826868917E+01 -0.17782379661E+02  0.18031571074E+02  0.00000000000E+00 0. -1.
<mgrwt>
<rscale>  0 0.91991136E+02</rscale>
<asrwt>0</asrwt>
<pdfrwt beam="2">  1        1 0.20702795E-01 0.91991136E+02</pdfrwt>
<pdfrwt beam="1">  1       -1 0.24186681E-02 0.91991136E+02</pdfrwt>
<totfact> 0.10732737E+05</totfact>
</mgrwt>
</event>
<event>
 7    1  0.3301067E-009  0.9333383E+02  0.7818608E-02  0.1294973E+00
          1   -1    0    0  501    0  0.00000000000E+00  0.00000000000E+00  0.24518262508E+03  0.24518262513E+03  0.50400000000E-02 0. -1.
         -1   -1    0    0    0  501 -0.00000000000E+00 -0.00000000000E+00 -0.88823626726E+01  0.88823641025E+01  0.50400000000E-02 0.  1.
         23    2    1    2    0    0  0.00000000000E+00  0.00000000000E+00  0.23630026241E+03  0.25406498923E+03  0.93333834920E+02 0.  0.
    9000005    2    3    3    0    0  0.82112942726E+01 -0.16321020979E+02  0.23486925649E+03  0.23573880967E+03  0.86843342811E+01 0.  0.
         22    1    3    3    0    0 -0.82112942726E+01  0.16321020979E+02  0.14310059176E+01  0.18326179563E+02  0.00000000000E+00 0.  1.
         22    1    4    4    0    0  0.10649492661E+01 -0.77864455497E+01  0.13967879797E+03  0.13989971213E+03  0.00000000000E+00 0.  1.
         22    1    4    4    0    0  0.71463450065E+01 -0.85345754293E+01  0.95190458517E+02  0.95839097540E+02  0.00000000000E+00 0.  1.
<mgrwt>
<rscale>  0 0.93333835E+02</rscale>
<asrwt>0</asrwt>
<pdfrwt beam="1">  1        1 0.37720401E-01 0.93333835E+02</pdfrwt>
<pdfrwt beam="2">  1       -1 0.13665176E-02 0.93333835E+02</pdfrwt>
<totfact> 0.11572570E+05</totfact>
</mgrwt>
</event>
<event>
 7    1  0.3301067E-009  0.9361637E+02  0.7818608E-02  0.1294323E+00
          1   -1    0    0  501    0  0.00000000000E+00  0.00000000000E+00  0.54991413521E+03  0.54991413523E+03  0.50400000000E-02 0. -1.
         -1   -1    0    0    0  501 -0.00000000000E+00 -0.00000000000E+00 -0.39842683163E+01  0.39842715041E+01  0.50400000000E-02 0.  1.
         23    2    1    2    0    0  0.00000000000E+00  0.22204460493E-15  0.54592986689E+03  0.55389840673E+03  0.93616373671E+02 0.  0.
    9000005    2    3    3    0    0 -0.45650304061E+02 -0.14170428265E+01  0.29771900325E+03  0.30152053310E+03  0.13858885706E+02 0.  0.
         22    1    3    3    0    0  0.45650304061E+02  0.14170428265E+01  0.24821086364E+03  0.25237787364E+03  0.00000000000E+00 0.  1.
         22    1    4    4    0    0 -0.19412817741E+02 -0.44439152357E+01  0.93255708115E+02  0.95358444677E+02  0.00000000000E+00 0.  1.
         22    1    4    4    0    0 -0.26237486321E+02  0.30268724092E+01  0.20446329513E+03  0.20616208842E+03  0.00000000000E+00 0.  1.
<mgrwt>
<rscale>  0 0.93616374E+02</rscale>
<asrwt>0</asrwt>
<pdfrwt beam="1">  1        1 0.84602234E-01 0.93616374E+02</pdfrwt>
<pdfrwt beam="2">  1       -1 0.61296417E-03 0.93616374E+02</pdfrwt>
<totfact> 0.13114486E+05</totfact>
</mgrwt>
</event>
<event>
 7    1  0.3301067E-009  0.9189486E+02  0.7818608E-02  0.1298327E+00
         -1   -1    0    0    0  501 -0.00000000000E+00  0.00000000000E+00  0.14895562413E+02  0.14895563265E+02  0.50400000000E-02 0.  1.
          1   -1    0    0  501    0  0.00000000000E+00 -0.00000000000E+00 -0.14173121797E+03  0.14173121806E+03  0.50400000000E-02 0. -1.
         23    2    1    2    0    0  0.00000000000E+00  0.00000000000E+00 -0.12683565556E+03  0.15662678132E+03  0.91894858982E+02 0.  0.
    9000005    2    3    3    0    0 -0.22614080799E+02  0.35190319039E+02 -0.94494508787E+02  0.10375235481E+03  0.92511477082E+01 0.  0.
         22    1    3    3    0    0  0.22614080799E+02 -0.35190319039E+02 -0.32341146768E+02  0.52874426509E+02  0.00000000000E+00 0.  1.
         22    1    4    4    0    0 -0.13518406745E+02  0.27737155862E+02 -0.63439149301E+02  0.70545182686E+02  0.00000000000E+00 0.  1.
         22    1    4    4    0    0 -0.90956740540E+01  0.74531631769E+01 -0.31055359487E+02  0.33207172127E+02  0.00000000000E+00 0.  1.
<mgrwt>
<rscale>  0 0.91894859E+02</rscale>
<asrwt>0</asrwt>
<pdfrwt beam="2">  1        1 0.21804802E-01 0.91894859E+02</pdfrwt>
<pdfrwt beam="1">  1       -1 0.22916252E-02 0.91894859E+02</pdfrwt>
<totfact> 0.10864718E+05</totfact>
</mgrwt>
</event>
<event>
 7    1  0.3301067E-009  0.9001009E+02  0.7818608E-02  0.1302827E+00
          1   -1    0    0  501    0  0.00000000000E+00  0.00000000000E+00  0.44188187547E+02  0.44188187834E+02  0.50400000000E-02 0. -1.
         -1   -1    0    0    0  501 -0.00000000000E+00 -0.00000000000E+00 -0.45837006353E+02  0.45837006630E+02  0.50400000000E-02 0.  1.
         23    2    1    2    0    0  0.00000000000E+00  0.00000000000E+00 -0.16488188062E+01  0.90025194464E+02  0.90010094072E+02 0.  0.
    9000005    2    3    3    0    0  0.25378463978E+02 -0.22430349879E+02  0.28746659521E+02  0.44516160940E+02  0.28515121610E+01 0.  0.
         22    1    3    3    0    0 -0.25378463978E+02  0.22430349879E+02 -0.30395478327E+02  0.45509033524E+02  0.00000000000E+00 0.  1.
         22    1    4    4    0    0  0.13162585392E+02 -0.11265363588E+02  0.12868740167E+02  0.21581625159E+02  0.00000000000E+00 0.  1.
         22    1    4    4    0    0  0.12215878586E+02 -0.11164986290E+02  0.15877919354E+02  0.22934535781E+02  0.00000000000E+00 0.  1.
<mgrwt>
<rscale>  0 0.90010094E+02</rscale>
<asrwt>0</asrwt>
<pdfrwt beam="1">  1        1 0.67981828E-02 0.90010094E+02</pdfrwt>
<pdfrwt beam="2">  1       -1 0.70518472E-02 0.90010094E+02</pdfrwt>
<totfact> 0.95426091E+04</totfact>
</mgrwt>
</event>
<event>
 7    1  0.3301067E-009  0.8963067E+02  0.7818608E-02  0.1303749E+00
         -1   -1    0    0    0  501 -0.00000000000E+00  0.00000000000E+00  0.23187954093E+02  0.23187954641E+02  0.50400000000E-02 0.  1.
          1   -1    0    0  501    0  0.00000000000E+00 -0.00000000000E+00 -0.86614541392E+02  0.86614541538E+02  0.50400000000E-02 0. -1.
         23    2    1    2    0    0  0.00000000000E+00  0.00000000000E+00 -0.63426587299E+02  0.10980249618E+03  0.89630665460E+02 0.  0.
    9000005    2    3    3    0    0 -0.17910709371E+02  0.21670707395E+02  0.10295207466E+02  0.30901823859E+02  0.76497288738E+01 0.  0.
         22    1    3    3    0    0  0.17910709371E+02 -0.21670707395E+02 -0.73721794765E+02  0.78900672320E+02  0.00000000000E+00 0. -1.
         22    1    4    4    0    0 -0.14133659328E+02  0.20492661360E+02  0.10312080011E+02  0.26945286967E+02  0.00000000000E+00 0.  1.
         22    1    4    4    0    0 -0.37770500436E+01  0.11780460355E+01 -0.16872544308E-01  0.39565368919E+01  0.00000000000E+00 0.  1.
<mgrwt>
<rscale>  0 0.89630665E+02</rscale>
<asrwt>0</asrwt>
<pdfrwt beam="2">  1        1 0.13325314E-01 0.89630665E+02</pdfrwt>
<pdfrwt beam="1">  1       -1 0.35673776E-02 0.89630665E+02</pdfrwt>
<totfact> 0.10690823E+05</totfact>
</mgrwt>
</event>
<event>
 7    1  0.3301067E-009  0.6366491E+02  0.7818608E-02  0.1383065E+00
          1   -1    0    0  501    0  0.00000000000E+00  0.00000000000E+00  0.11251790049E+02  0.11251791177E+02  0.50400000000E-02 0. -1.
         -1   -1    0    0    0  501 -0.00000000000E+00 -0.00000000000E+00 -0.90057245912E+02  0.90057246053E+02  0.50400000000E-02 0.  1.
         23    2    1    2    0    0  0.00000000000E+00 -0.35527136788E-14 -0.78805455864E+02  0.10130903723E+03  0.63664913027E+02 0.  0.
    9000005    2    3    3    0    0  0.49762205166E+01 -0.29548121749E+02 -0.43205863167E+02  0.54777485895E+02  0.15361382733E+02 0.  0.
         22    1    3    3    0    0 -0.49762205166E+01  0.29548121749E+02 -0.35599592697E+02  0.46531551336E+02  0.00000000000E+00 0.  1.
         22    1    4    4    0    0  0.10384500405E+02 -0.20855599133E+02 -0.27675031109E+02  0.36175975602E+02  0.00000000000E+00 0.  1.
         22    1    4    4    0    0 -0.54082798884E+01 -0.86925226157E+01 -0.15530832057E+02  0.18601510293E+02  0.00000000000E+00 0.  1.
<mgrwt>
<rscale>  0 0.63664913E+02</rscale>
<asrwt>0</asrwt>
<pdfrwt beam="1">  1        1 0.17310448E-02 0.63664913E+02</pdfrwt>
<pdfrwt beam="2">  1       -1 0.13854961E-01 0.63664913E+02</pdfrwt>
<totfact> 0.20705057E+05</totfact>
</mgrwt>
</event>
<event>
 7    1  0.3301067E-009  0.9136739E+02  0.7818608E-02  0.1299574E+00
         -1   -1    0    0    0  501 -0.00000000000E+00  0.00000000000E+00  0.14419017482E+03  0.14419017490E+03  0.50400000000E-02 0.  1.
          1   -1    0    0  501    0  0.00000000000E+00 -0.00000000000E+00 -0.14473940538E+02  0.14473941416E+02  0.50400000000E-02 0. -1.
         23    2    1    2    0    0  0.00000000000E+00  0.00000000000E+00  0.12971623428E+03  0.15866411632E+03  0.91367392282E+02 0.  0.
    9000005    2    3    3    0    0 -0.42575056703E+02  0.12198192508E+02  0.82172813499E+02  0.93688673166E+02  0.79852894501E+01 0.  0.
         22    1    3    3    0    0  0.42575056703E+02 -0.12198192508E+02  0.47543420779E+02  0.64975443154E+02  0.00000000000E+00 0.  1.
         22    1    4    4    0    0 -0.30939068035E+02  0.53943355976E+01  0.60509209005E+02  0.68173962492E+02  0.00000000000E+00 0. -1.
         22    1    4    4    0    0 -0.11635988667E+02  0.68038569101E+01  0.21663604494E+02  0.25514710675E+02  0.00000000000E+00 0. -1.
<mgrwt>
<rscale>  0 0.91367392E+02</rscale>
<asrwt>0</asrwt>
<pdfrwt beam="2">  1        1 0.22267600E-02 0.91367392E+02</pdfrwt>
<pdfrwt beam="1">  1       -1 0.22183105E-01 0.91367392E+02</pdfrwt>
<totfact> 0.75066719E+04</totfact>
</mgrwt>
</event>
<event>
 7    1  0.3301067E-009  0.8776252E+02  0.7818608E-02  0.1308362E+00
          1   -1    0    0  501    0  0.00000000000E+00  0.00000000000E+00  0.11179911454E+02  0.11179912590E+02  0.50400000000E-02 0. -1.
         -1   -1    0    0    0  501 -0.00000000000E+00 -0.00000000000E+00 -0.17223437354E+03  0.17223437361E+03  0.50400000000E-02 0.  1.
         23    2    1    2    0    0 -0.35527136788E-14  0.17763568394E-14 -0.16105446208E+03  0.18341428620E+03  0.87762524040E+02 0.  0.
    9000005    2    3    3    0    0  0.21504063978E+02  0.96537810378E+01 -0.15782055054E+03  0.15962188322E+03  0.40248195606E+01 0.  0.
         22    1    3    3    0    0 -0.21504063978E+02 -0.96537810378E+01 -0.32339115415E+01  0.23792402984E+02  0.00000000000E+00 0. -1.
         22    1    4    4    0    0  0.20662725677E+02  0.90646759155E+01 -0.14334876369E+03  0.14511369554E+03  0.00000000000E+00 0.  1.
         22    1    4    4    0    0  0.84133830185E+00  0.58910512225E+00 -0.14471786855E+02  0.14508187681E+02  0.00000000000E+00 0.  1.
<mgrwt>
<rscale>  0 0.87762524E+02</rscale>
<asrwt>0</asrwt>
<pdfrwt beam="1">  1        1 0.17199866E-02 0.87762524E+02</pdfrwt>
<pdfrwt beam="2">  1       -1 0.26497594E-01 0.87762524E+02</pdfrwt>
<totfact> 0.79826144E+04</totfact>
</mgrwt>
</event>
<event>
 7    1  0.3301067E-009  0.9198613E+02  0.7818608E-02  0.1298112E+00
          1   -1    0    0  501    0  0.00000000000E+00  0.00000000000E+00  0.85040360209E+02  0.85040360358E+02  0.50400000000E-02 0. -1.
         -1   -1    0    0    0  501 -0.00000000000E+00 -0.00000000000E+00 -0.24874800295E+02  0.24874800806E+02  0.50400000000E-02 0.  1.
         23    2    1    2    0    0  0.00000000000E+00  0.00000000000E+00  0.60165559914E+02  0.10991516116E+03  0.91986129682E+02 0.  0.
    9000005    2    3    3    0    0  0.68223075921E+00  0.43490915739E+02  0.16065806992E+02  0.47973951954E+02  0.12307100437E+02 0.  0.
         22    1    3    3    0    0 -0.68223075921E+00 -0.43490915739E+02  0.44099752922E+02  0.61941209210E+02  0.00000000000E+00 0. -1.
         22    1    4    4    0    0  0.36793756253E+01  0.41312196043E+02  0.14323038509E+02  0.43879206681E+02  0.00000000000E+00 0.  1.
         22    1    4    4    0    0 -0.29971448661E+01  0.21787196963E+01  0.17427684832E+01  0.40947452728E+01  0.00000000000E+00 0.  1.
<mgrwt>
<rscale>  0 0.91986130E+02</rscale>
<asrwt>0</asrwt>
<pdfrwt beam="1">  1        1 0.13083132E-01 0.91986130E+02</pdfrwt>
<pdfrwt beam="2">  1       -1 0.38268924E-02 0.91986130E+02</pdfrwt>
<totfact> 0.99290246E+04</totfact>
</mgrwt>
</event>
<event>
 7    1  0.3301067E-009  0.7039927E+02  0.7818608E-02  0.1358741E+00
         -1   -1    0    0    0  501 -0.00000000000E+00  0.00000000000E+00  0.11125327225E+03  0.11125327237E+03  0.50400000000E-02 0.  1.
          1   -1    0    0  501    0  0.00000000000E+00 -0.00000000000E+00 -0.11136877703E+02  0.11136878843E+02  0.50400000000E-02 0. -1.
         23    2    1    2    0    0  0.00000000000E+00  0.00000000000E+00  0.10011639455E+03  0.12239015121E+03  0.70399266017E+02 0.  0.
    9000005    2    3    3    0    0  0.23276705664E+02  0.94842617662E+01  0.92082477410E+02  0.96002652799E+02  0.10274748206E+02 0.  0.
         22    1    3    3    0    0 -0.23276705664E+02 -0.94842617662E+01  0.80339171398E+01  0.26387498411E+02  0.00000000000E+00 0. -1.
         22    1    4    4    0    0  0.94737057156E+01  0.52702268927E+01  0.57774098870E+02  0.58782419920E+02  0.00000000000E+00 0.  1.
         22    1    4    4    0    0  0.13802999948E+02  0.42140348735E+01  0.34308378540E+02  0.37220232879E+02  0.00000000000E+00 0.  1.
<mgrwt>
<rscale>  0 0.70399266E+02</rscale>
<asrwt>0</asrwt>
<pdfrwt beam="2">  1        1 0.17133659E-02 0.70399266E+02</pdfrwt>
<pdfrwt beam="1">  1       -1 0.17115888E-01 0.70399266E+02</pdfrwt>
<totfact> 0.15473975E+05</totfact>
</mgrwt>
</event>
<event>
 7    1  0.3301067E-009  0.9091222E+02  0.7818608E-02  0.1300658E+00
         -1   -1    0    0    0  501 -0.00000000000E+00  0.00000000000E+00  0.88569019566E+01  0.88569033906E+01  0.50400000000E-02 0.  1.
          1   -1    0    0  501    0  0.00000000000E+00 -0.00000000000E+00 -0.23329349475E+03  0.23329349481E+03  0.50400000000E-02 0. -1.
         23    2    1    2    0    0  0.17763568394E-14  0.00000000000E+00 -0.22443659280E+03  0.24215039820E+03  0.90912216789E+02 0.  0.
    9000005    2    3    3    0    0 -0.15269492788E+02 -0.17100530732E+02 -0.21635980612E+03  0.21784360811E+03  0.10894325583E+02 0.  0.
         22    1    3    3    0    0  0.15269492788E+02  0.17100530732E+02 -0.80767866789E+01  0.24306790088E+02  0.00000000000E+00 0.  1.
         22    1    4    4    0    0 -0.11032779409E+02 -0.51035518404E+01 -0.84230970506E+02  0.85103612469E+02  0.00000000000E+00 0. -1.
         22    1    4    4    0    0 -0.42367133797E+01 -0.11996978891E+02 -0.13212883561E+03  0.13273999564E+03  0.00000000000E+00 0. -1.
<mgrwt>
<rscale>  0 0.90912217E+02</rscale>
<asrwt>0</asrwt>
<pdfrwt beam="2">  1        1 0.35891302E-01 0.90912217E+02</pdfrwt>
<pdfrwt beam="1">  1       -1 0.13626006E-02 0.90912217E+02</pdfrwt>
<totfact> 0.12296522E+05</totfact>
</mgrwt>
</event>
<event>
 7    1  0.3301067E-009  0.9152342E+02  0.7818608E-02  0.1299204E+00
         -1   -1    0    0    0  501 -0.00000000000E+00  0.00000000000E+00  0.49999139224E+01  0.49999164626E+01  0.50400000000E-02 0.  1.
          1   -1    0    0  501    0  0.00000000000E+00 -0.00000000000E+00 -0.41883391032E+03  0.41883391035E+03  0.50400000000E-02 0. -1.
         23    2    1    2    0    0  0.00000000000E+00  0.88817841970E-15 -0.41383399640E+03  0.42383382681E+03  0.91523418733E+02 0.  0.
    9000005    2    3    3    0    0  0.45345603668E+02  0.49780061855E+01 -0.19596876903E+03  0.20124393123E+03  0.37890771986E+01 0.  0.
         22    1    3    3    0    0 -0.45345603668E+02 -0.49780061855E+01 -0.21786522737E+03  0.22258989558E+03  0.00000000000E+00 0. -1.
         22    1    4    4    0    0  0.69075989754E+01 -0.52862780857E+00 -0.31679437988E+02  0.32428092176E+02  0.00000000000E+00 0.  1.
         22    1    4    4    0    0  0.38438004693E+02  0.55066339940E+01 -0.16428933104E+03  0.16881583906E+03  0.00000000000E+00 0.  1.
<mgrwt>
<rscale>  0 0.91523419E+02</rscale>
<asrwt>0</asrwt>
<pdfrwt beam="2">  1        1 0.64435959E-01 0.91523419E+02</pdfrwt>
<pdfrwt beam="1">  1       -1 0.76921805E-03 0.91523419E+02</pdfrwt>
<totfact> 0.13452653E+05</totfact>
</mgrwt>
</event>
<event>
 7    1  0.3301067E-009  0.9010773E+02  0.7818608E-02  0.1302591E+00
         -1   -1    0    0    0  501 -0.00000000000E+00  0.00000000000E+00  0.39455553489E+03  0.39455553492E+03  0.50400000000E-02 0.  1.
          1   -1    0    0  501    0  0.00000000000E+00 -0.00000000000E+00 -0.51446497400E+01  0.51446522088E+01  0.50400000000E-02 0. -1.
         23    2    1    2    0    0  0.00000000000E+00  0.00000000000E+00  0.38941088515E+03  0.39970018713E+03  0.90107725081E+02 0.  0.
    9000005    2    3    3    0    0  0.17931406955E+02 -0.40929654285E+02  0.20853008899E+03  0.21338155045E+03  0.70792727661E+01 0.  0.
         22    1    3    3    0    0 -0.17931406955E+02  0.40929654285E+02  0.18088079616E+03  0.18631863668E+03  0.00000000000E+00 0.  1.
         22    1    4    4    0    0  0.16931882611E+02 -0.34810821574E+02  0.16965972648E+03  0.17401984007E+03  0.00000000000E+00 0.  1.
         22    1    4    4    0    0  0.99952434379E+00 -0.61188327110E+01  0.38870362509E+02  0.39361710382E+02  0.00000000000E+00 0.  1.
<mgrwt>
<rscale>  0 0.90107725E+02</rscale>
<asrwt>0</asrwt>
<pdfrwt beam="2">  1        1 0.79148447E-03 0.90107725E+02</pdfrwt>
<pdfrwt beam="1">  1       -1 0.60700874E-01 0.90107725E+02</pdfrwt>
<totfact> 0.55340293E+04</totfact>
</mgrwt>
</event>
<event>
 7    1  0.3301067E-009  0.9550457E+02  0.7818608E-02  0.1290044E+00
          1   -1    0    0  501    0  0.00000000000E+00  0.00000000000E+00  0.82848764123E+01  0.82848779453E+01  0.50400000000E-02 0. -1.
         -1   -1    0    0    0  501 -0.00000000000E+00 -0.00000000000E+00 -0.27523410310E+03  0.27523410315E+03  0.50400000000E-02 0.  1.
         23    2    1    2    0    0  0.17763568394E-14  0.71054273576E-14 -0.26694922669E+03  0.28351898110E+03  0.95504570624E+02 0.  0.
    9000005    2    3    3    0    0  0.61502431575E+01  0.40042024771E+02 -0.66426202054E+02  0.78944611615E+02  0.13364959596E+02 0.  0.
         22    1    3    3    0    0 -0.61502431575E+01 -0.40042024771E+02 -0.20052302464E+03  0.20457436948E+03  0.00000000000E+00 0.  1.
         22    1    4    4    0    0  0.10366263988E+02  0.29454396569E+02 -0.50107766165E+02  0.59040741327E+02  0.00000000000E+00 0. -1.
         22    1    4    4    0    0 -0.42160208307E+01  0.10587628202E+02 -0.16318435889E+02  0.19903870288E+02  0.00000000000E+00 0. -1.
<mgrwt>
<rscale>  0 0.95504571E+02</rscale>
<asrwt>0</asrwt>
<pdfrwt beam="1">  1        1 0.12745967E-02 0.95504571E+02</pdfrwt>
<pdfrwt beam="2">  1       -1 0.42343701E-01 0.95504571E+02</pdfrwt>
<totfact> 0.55444092E+04</totfact>
</mgrwt>
</event>
<event>
 7    1  0.3301067E-009  0.9306287E+02  0.7818608E-02  0.1295600E+00
          1   -1    0    0  501    0  0.00000000000E+00  0.00000000000E+00  0.82741369214E+01  0.82741384564E+01  0.50400000000E-02 0. -1.
         -1   -1    0    0    0  501 -0.00000000000E+00 -0.00000000000E+00 -0.26167979086E+03  0.26167979091E+03  0.50400000000E-02 0.  1.
         23    2    1    2    0    0  0.00000000000E+00  0.00000000000E+00 -0.25340565394E+03  0.26995392937E+03  0.93062874078E+02 0.  0.
    9000005    2    3    3    0    0 -0.79844735361E+01 -0.95226981423E+01 -0.25645413356E+03  0.25715835101E+03  0.14396571716E+02 0.  0.
         22    1    3    3    0    0  0.79844735361E+01  0.95226981423E+01  0.30484796167E+01  0.12795578359E+02  0.00000000000E+00 0. -1.
         22    1    4    4    0    0 -0.72334116140E+01 -0.10632920303E+02 -0.25427484186E+03  0.25459983590E+03  0.00000000000E+00 0.  1.
         22    1    4    4    0    0 -0.75106192209E+00  0.11102221611E+01 -0.21792917021E+01  0.25585151125E+01  0.00000000000E+00 0.  1.
<mgrwt>
<rscale>  0 0.93062874E+02</rscale>
<asrwt>0</asrwt>
<pdfrwt beam="1">  1        1 0.12729445E-02 0.93062874E+02</pdfrwt>
<pdfrwt beam="2">  1       -1 0.40258423E-01 0.93062874E+02</pdfrwt>
<totfact> 0.60426656E+04</totfact>
</mgrwt>
</event>
<event>
 7    1  0.3301067E-009  0.9153436E+02  0.7818608E-02  0.1299178E+00
          1   -1    0    0  501    0  0.00000000000E+00  0.00000000000E+00  0.10115045702E+03  0.10115045714E+03  0.50400000000E-02 0. -1.
         -1   -1    0    0    0  501 -0.00000000000E+00 -0.00000000000E+00 -0.20708107819E+02  0.20708108432E+02  0.50400000000E-02 0.  1.
         23    2    1    2    0    0  0.00000000000E+00  0.35527136788E-14  0.80442349197E+02  0.12185856557E+03  0.91534356716E+02 0.  0.
    9000005    2    3    3    0    0  0.33961133084E+02 -0.28742666722E+02  0.30730584742E+02  0.55144556731E+02  0.10819142660E+02 0.  0.
         22    1    3    3    0    0 -0.33961133084E+02  0.28742666722E+02  0.49711764455E+02  0.66714008843E+02  0.00000000000E+00 0. -1.
         22    1    4    4    0    0  0.27301561085E+02 -0.27344622294E+02  0.23548615167E+02  0.45250866095E+02  0.00000000000E+00 0. -1.
         22    1    4    4    0    0  0.66595719985E+01 -0.13980444280E+01  0.71819695750E+01  0.98936906361E+01  0.00000000000E+00 0. -1.
<mgrwt>
<rscale>  0 0.91534357E+02</rscale>
<asrwt>0</asrwt>
<pdfrwt beam="1">  1        1 0.15561609E-01 0.91534357E+02</pdfrwt>
<pdfrwt beam="2">  1       -1 0.31858628E-02 0.91534357E+02</pdfrwt>
<totfact> 0.10353935E+05</totfact>
</mgrwt>
</event>
<event>
 7    1  0.3301067E-009  0.9236159E+02  0.7818608E-02  0.1297231E+00
          1   -1    0    0  501    0  0.00000000000E+00  0.00000000000E+00  0.32095044397E+02  0.32095044792E+02  0.50400000000E-02 0. -1.
         -1   -1    0    0    0  501 -0.00000000000E+00 -0.00000000000E+00 -0.66448446165E+02  0.66448446357E+02  0.50400000000E-02 0.  1.
         23    2    1    2    0    0  0.44408920985E-15  0.00000000000E+00 -0.34353401769E+02  0.98543491149E+02  0.92361590690E+02 0.  0.
    9000005    2    3    3    0    0 -0.24955422292E+01  0.22618510315E+02 -0.59891659093E+02  0.64337828942E+02  0.58754288478E+01 0.  0.
         22    1    3    3    0    0  0.24955422292E+01 -0.22618510315E+02  0.25538257324E+02  0.34205662207E+02  0.00000000000E+00 0. -1.
         22    1    4    4    0    0  0.14118200384E+01  0.80761953174E+01 -0.25730343612E+02  0.27004976375E+02  0.00000000000E+00 0.  1.
         22    1    4    4    0    0 -0.39073622677E+01  0.14542314997E+02 -0.34161315481E+02  0.37332852567E+02  0.00000000000E+00 0.  1.
<mgrwt>
<rscale>  0 0.92361591E+02</rscale>
<asrwt>0</asrwt>
<pdfrwt beam="1">  1        1 0.49376992E-02 0.92361591E+02</pdfrwt>
<pdfrwt beam="2">  1       -1 0.10222838E-01 0.92361591E+02</pdfrwt>
<totfact> 0.84442334E+04</totfact>
</mgrwt>
</event>
<event>
 7    1  0.3301067E-009  0.9810197E+02  0.7818608E-02  0.1284339E+00
          1   -1    0    0  501    0  0.00000000000E+00  0.00000000000E+00  0.37691343367E+03  0.37691343370E+03  0.50400000000E-02 0. -1.
         -1   -1    0    0    0  501 -0.00000000000E+00 -0.00000000000E+00 -0.63834250813E+01  0.63834270709E+01  0.50400000000E-02 0.  1.
         23    2    1    2    0    0  0.00000000000E+00  0.00000000000E+00  0.37053000859E+03  0.38329686077E+03  0.98101968455E+02 0.  0.
    9000005    2    3    3    0    0 -0.26797042218E+02  0.39420375624E+02  0.20572612918E+03  0.21173822312E+03  0.15420357206E+02 0.  0.
         22    1    3    3    0    0  0.26797042218E+02 -0.39420375624E+02  0.16480387941E+03  0.17155863765E+03  0.00000000000E+00 0.  1.
         22    1    4    4    0    0 -0.25773097365E+02  0.35268606882E+02  0.16141364985E+03  0.16721989576E+03  0.00000000000E+00 0. -1.
         22    1    4    4    0    0 -0.10239448529E+01  0.41517687422E+01  0.44312479326E+02  0.44518327358E+02  0.00000000000E+00 0. -1.
<mgrwt>
<rscale>  0 0.98101968E+02</rscale>
<asrwt>0</asrwt>
<pdfrwt beam="1">  1        1 0.57986709E-01 0.98101968E+02</pdfrwt>
<pdfrwt beam="2">  1       -1 0.98206510E-03 0.98101968E+02</pdfrwt>
<totfact> 0.10985728E+05</totfact>
</mgrwt>
</event>
<event>
 7    1  0.3301067E-009  0.9309422E+02  0.7818608E-02  0.1295527E+00
          1   -1    0    0  501    0  0.00000000000E+00  0.00000000000E+00  0.72802785977E+01  0.72802803423E+01  0.50400000000E-02 0. -1.
         -1   -1    0    0    0  501 -0.00000000000E+00 -0.00000000000E+00 -0.29760303655E+03  0.29760303659E+03  0.50400000000E-02 0.  1.
         23    2    1    2    0    0  0.00000000000E+00  0.88817841970E-15 -0.29032275795E+03  0.30488331694E+03  0.93094216578E+02 0.  0.
    9000005    2    3    3    0    0  0.24420441748E+02  0.44039165905E+01 -0.27412271281E+03  0.27524898011E+03  0.17282696411E+01 0.  0.
         22    1    3    3    0    0 -0.24420441748E+02 -0.44039165905E+01 -0.16200045141E+02  0.29634336825E+02  0.00000000000E+00 0. -1.
         22    1    4    4    0    0  0.27382163114E+01  0.90330799790E+00 -0.27852243874E+02  0.28001094313E+02  0.00000000000E+00 0.  1.
         22    1    4    4    0    0  0.21682225436E+02  0.35006085926E+01 -0.24627046894E+03  0.24724788580E+03  0.00000000000E+00 0.  1.
<mgrwt>
<rscale>  0 0.93094217E+02</rscale>
<asrwt>0</asrwt>
<pdfrwt beam="1">  1        1 0.11200432E-02 0.93094217E+02</pdfrwt>
<pdfrwt beam="2">  1       -1 0.45785073E-01 0.93094217E+02</pdfrwt>
<totfact> 0.57553869E+04</totfact>
</mgrwt>
</event>
<event>
 7    1  0.3301067E-009  0.1026986E+03  0.7818608E-02  0.1274721E+00
         -1   -1    0    0    0  501 -0.00000000000E+00  0.00000000000E+00  0.14542764888E+03  0.14542764896E+03  0.50400000000E-02 0.  1.
          1   -1    0    0  501    0  0.00000000000E+00 -0.00000000000E+00 -0.18131014348E+02  0.18131015048E+02  0.50400000000E-02 0. -1.
         23    2    1    2    0    0  0.00000000000E+00  0.00000000000E+00  0.12729663453E+03  0.16355866401E+03  0.10269860472E+03 0.  0.
    9000005    2    3    3    0    0  0.21957544491E+02  0.43605786411E+02  0.85214089402E+02  0.99102950744E+02  0.13279888743E+02 0.  0.
         22    1    3    3    0    0 -0.21957544491E+02 -0.43605786411E+02  0.42082545126E+02  0.64455713267E+02  0.00000000000E+00 0. -1.
         22    1    4    4    0    0  0.15362362970E+01  0.14101686404E+02  0.30982021452E+02  0.34074964926E+02  0.00000000000E+00 0. -1.
         22    1    4    4    0    0  0.20421308194E+02  0.29504100007E+02  0.54232067950E+02  0.65027985819E+02  0.00000000000E+00 0. -1.
<mgrwt>
<rscale>  0 0.10269860E+03</rscale>
<asrwt>0</asrwt>
<pdfrwt beam="2">  1        1 0.27893868E-02 0.10269860E+03</pdfrwt>
<pdfrwt beam="1">  1       -1 0.22373485E-01 0.10269860E+03</pdfrwt>
<totfact> 0.55266346E+04</totfact>
</mgrwt>
</event>
<event>
 7    1  0.3301067E-009  0.9220065E+02  0.7818608E-02  0.1297608E+00
         -1   -1    0    0    0  501 -0.00000000000E+00  0.00000000000E+00  0.39507658724E+02  0.39507659046E+02  0.50400000000E-02 0.  1.
          1   -1    0    0  501    0  0.00000000000E+00 -0.00000000000E+00 -0.53793111446E+02  0.53793111682E+02  0.50400000000E-02 0. -1.
         23    2    1    2    0    0 -0.71054273576E-14  0.00000000000E+00 -0.14285452721E+02  0.93300770728E+02  0.92200648908E+02 0.  0.
    9000005    2    3    3    0    0  0.34371023771E+02 -0.45092806058E+01 -0.37469610180E+02  0.51596981407E+02  0.75216963964E+01 0.  0.
         22    1    3    3    0    0 -0.34371023771E+02  0.45092806058E+01  0.23184157458E+02  0.41703789321E+02  0.00000000000E+00 0.  1.
         22    1    4    4    0    0  0.25636619245E+02 -0.66271348304E+01 -0.27581487134E+02  0.38234717141E+02  0.00000000000E+00 0.  1.
         22    1    4    4    0    0  0.87344045260E+01  0.21178542246E+01 -0.98881230461E+01  0.13362264266E+02  0.00000000000E+00 0.  1.
<mgrwt>
<rscale>  0 0.92200649E+02</rscale>
<asrwt>0</asrwt>
<pdfrwt beam="2">  1        1 0.82758633E-02 0.92200649E+02</pdfrwt>
<pdfrwt beam="1">  1       -1 0.60781014E-02 0.92200649E+02</pdfrwt>
<totfact> 0.91889585E+04</totfact>
</mgrwt>
</event>
<event>
 7    1  0.3301067E-009  0.8475892E+02  0.7818608E-02  0.1316064E+00
         -1   -1    0    0    0  501 -0.00000000000E+00  0.00000000000E+00  0.12510241934E+03  0.12510241944E+03  0.50400000000E-02 0.  1.
          1   -1    0    0  501    0  0.00000000000E+00 -0.00000000000E+00 -0.14356386383E+02  0.14356387268E+02  0.50400000000E-02 0. -1.
         23    2    1    2    0    0  0.00000000000E+00  0.17763568394E-14  0.11074603296E+03  0.13945880671E+03  0.84758922557E+02 0.  0.
    9000005    2    3    3    0    0 -0.38232246359E+02  0.13313264213E+02  0.74016367826E+02  0.84796059190E+02  0.85440787892E+01 0.  0.
         22    1    3    3    0    0  0.38232246359E+02 -0.13313264213E+02  0.36729665130E+02  0.54662747518E+02  0.00000000000E+00 0.  1.
         22    1    4    4    0    0 -0.21794895698E+02  0.11836844591E+02  0.41995883031E+02  0.48772764530E+02  0.00000000000E+00 0.  1.
         22    1    4    4    0    0 -0.16437350661E+02  0.14764196220E+01  0.32020484795E+02  0.36023294660E+02  0.00000000000E+00 0.  1.
<mgrwt>
<rscale>  0 0.84758923E+02</rscale>
<asrwt>0</asrwt>
<pdfrwt beam="2">  1        1 0.22086749E-02 0.84758923E+02</pdfrwt>
<pdfrwt beam="1">  1       -1 0.19246526E-01 0.84758923E+02</pdfrwt>
<totfact> 0.93997247E+04</totfact>
</mgrwt>
</event>
<event>
 7    1  0.4364752E-009  0.8951495E+02  0.7818608E-02  0.1304031E+00
         -1   -1    0    0    0  501 -0.00000000000E+00  0.00000000000E+00  0.34051971272E+01  0.34052008570E+01  0.50400000000E-02 0.  1.
          1   -1    0    0  501    0  0.00000000000E+00 -0.00000000000E+00 -0.58828623878E+03  0.58828623880E+03  0.50400000000E-02 0. -1.
         23    2    1    2    0    0 -0.35527136788E-14  0.35527136788E-14 -0.58488104165E+03  0.59169143966E+03  0.89514953390E+02 0.  0.
    9000005    2    3    3    0    0  0.30594175246E+02  0.24835942937E+02 -0.42368846950E+03  0.42575207441E+03  0.14145036581E+02 0.  0.
         22    1    3    3    0    0 -0.30594175246E+02 -0.24835942937E+02 -0.16119257215E+03  0.16593936524E+03  0.00000000000E+00 0.  1.
         22    1    4    4    0    0  0.21838016278E+02  0.24850530172E+02 -0.32838107625E+03  0.33004329874E+03  0.00000000000E+00 0.  1.
         22    1    4    4    0    0  0.87561589681E+01 -0.14587235385E-01 -0.95307393254E+02  0.95708775676E+02  0.00000000000E+00 0.  1.
<mgrwt>
<rscale>  0 0.89514953E+02</rscale>
<asrwt>0</asrwt>
<pdfrwt beam="2">  1        1 0.90505495E-01 0.89514953E+02</pdfrwt>
<pdfrwt beam="1">  1       -1 0.52387724E-03 0.89514953E+02</pdfrwt>
<totfact> 0.14845813E+05</totfact>
</mgrwt>
</event>
<event>
 7    1  0.3301067E-009  0.9068531E+02  0.7818608E-02  0.1301201E+00
          1   -1    0    0  501    0  0.00000000000E+00  0.00000000000E+00  0.13546065083E+02  0.13546066020E+02  0.50400000000E-02 0. -1.
         -1   -1    0    0    0  501 -0.00000000000E+00 -0.00000000000E+00 -0.15177516406E+03  0.15177516414E+03  0.50400000000E-02 0.  1.
         23    2    1    2    0    0  0.00000000000E+00  0.00000000000E+00 -0.13822909898E+03  0.16532123016E+03  0.90685309388E+02 0.  0.
    9000005    2    3    3    0    0 -0.25925719687E+01  0.42402358453E+02 -0.96077076986E+02  0.10547580937E+03  0.94689074650E+01 0.  0.
         22    1    3    3    0    0  0.25925719687E+01 -0.42402358453E+02 -0.42152021991E+02  0.59845420792E+02  0.00000000000E+00 0. -1.
         22    1    4    4    0    0 -0.31793735886E+01  0.30165195630E+02 -0.57644905790E+02  0.65138180873E+02  0.00000000000E+00 0.  1.
         22    1    4    4    0    0  0.58680161991E+00  0.12237162823E+02 -0.38432171195E+02  0.40337628499E+02  0.00000000000E+00 0.  1.
<mgrwt>
<rscale>  0 0.90685309E+02</rscale>
<asrwt>0</asrwt>
<pdfrwt beam="1">  1        1 0.20840102E-02 0.90685309E+02</pdfrwt>
<pdfrwt beam="2">  1       -1 0.23350024E-01 0.90685309E+02</pdfrwt>
<totfact> 0.75635401E+04</totfact>
</mgrwt>
</event>
<event>
 7    1  0.3301067E-009  0.9346303E+02  0.7818608E-02  0.1294676E+00
         -1   -1    0    0    0  501 -0.00000000000E+00  0.00000000000E+00  0.69697170583E+01  0.69697188806E+01  0.50400000000E-02 0.  1.
          1   -1    0    0  501    0  0.00000000000E+00 -0.00000000000E+00 -0.31333184335E+03  0.31333184339E+03  0.50400000000E-02 0. -1.
         23    2    1    2    0    0  0.00000000000E+00  0.00000000000E+00 -0.30636212629E+03  0.32030156227E+03  0.93463032089E+02 0.  0.
    9000005    2    3    3    0    0 -0.64582103253E+00 -0.46587998218E+02 -0.14724793133E+03  0.15450594803E+03  0.43904479701E+01 0.  0.
         22    1    3    3    0    0  0.64582103253E+00  0.46587998218E+02 -0.15911419496E+03  0.16579561423E+03  0.00000000000E+00 0. -1.
         22    1    4    4    0    0 -0.15003727259E+01 -0.11741062030E+02 -0.32987351546E+02  0.35046669141E+02  0.00000000000E+00 0.  1.
         22    1    4    4    0    0  0.85455169342E+00 -0.34846936188E+02 -0.11426057979E+03  0.11945927889E+03  0.00000000000E+00 0.  1.
<mgrwt>
<rscale>  0 0.93463032E+02</rscale>
<asrwt>0</asrwt>
<pdfrwt beam="2">  1        1 0.48204888E-01 0.93463032E+02</pdfrwt>
<pdfrwt beam="1">  1       -1 0.10722646E-02 0.93463032E+02</pdfrwt>
<totfact> 0.12092167E+05</totfact>
</mgrwt>
</event>
<event>
 7    1  0.3301067E-009  0.9034447E+02  0.7818608E-02  0.1302020E+00
         -1   -1    0    0    0  501 -0.00000000000E+00  0.00000000000E+00  0.51609165591E+01  0.51609190201E+01  0.50400000000E-02 0.  1.
          1   -1    0    0  501    0  0.00000000000E+00 -0.00000000000E+00 -0.39538140440E+03  0.39538140443E+03  0.50400000000E-02 0. -1.
         23    2    1    2    0    0  0.17763568394E-14 -0.71054273576E-14 -0.39022048784E+03  0.40054232345E+03  0.90344472690E+02 0.  0.
    9000005    2    3    3    0    0 -0.14393655574E+02  0.39525675734E+02 -0.26635553540E+03  0.26972954576E+03  0.62689917530E+01 0.  0.
         22    1    3    3    0    0  0.14393655574E+02 -0.39525675734E+02 -0.12386495244E+03  0.13081277769E+03  0.00000000000E+00 0.  1.
         22    1    4    4    0    0 -0.32193433828E+01  0.32706604548E+01 -0.29608707033E+02  0.29962258322E+02  0.00000000000E+00 0.  1.
         22    1    4    4    0    0 -0.11174312191E+02  0.36255015279E+02 -0.23674682836E+03  0.23976728744E+03  0.00000000000E+00 0.  1.
<mgrwt>
<rscale>  0 0.90344473E+02</rscale>
<asrwt>0</asrwt>
<pdfrwt beam="2">  1        1 0.60827885E-01 0.90344473E+02</pdfrwt>
<pdfrwt beam="1">  1       -1 0.79398766E-03 0.90344473E+02</pdfrwt>
<totfact> 0.13795048E+05</totfact>
</mgrwt>
</event>
<event>
 7    1  0.3301067E-009  0.9137392E+02  0.7818608E-02  0.1299558E+00
         -1   -1    0    0    0  501 -0.00000000000E+00  0.00000000000E+00  0.80422769064E+01  0.80422784857E+01  0.50400000000E-02 0.  1.
          1   -1    0    0  501    0  0.00000000000E+00 -0.00000000000E+00 -0.25954067376E+03  0.25954067380E+03  0.50400000000E-02 0. -1.
         23    2    1    2    0    0  0.17763568394E-14  0.00000000000E+00 -0.25149839685E+03  0.26758295229E+03  0.91373917168E+02 0.  0.
    9000005    2    3    3    0    0 -0.10062207022E+02 -0.37010002486E+02 -0.19583748666E+03  0.19998764759E+03  0.13105331506E+02 0.  0.
         22    1    3    3    0    0  0.10062207022E+02  0.37010002486E+02 -0.55660910188E+02  0.67595304698E+02  0.00000000000E+00 0.  1.
         22    1    4    4    0    0 -0.64971241884E+01 -0.36234529369E+02 -0.17452879175E+03  0.17836886749E+03  0.00000000000E+00 0. -1.
         22    1    4    4    0    0 -0.35650828333E+01 -0.77547311743E+00 -0.21308694914E+02  0.21618780102E+02  0.00000000000E+00 0. -1.
<mgrwt>
<rscale>  0 0.91373917E+02</rscale>
<asrwt>0</asrwt>
<pdfrwt beam="2">  1        1 0.39929328E-01 0.91373917E+02</pdfrwt>
<pdfrwt beam="1">  1       -1 0.12372737E-02 0.91373917E+02</pdfrwt>
<totfact> 0.12385990E+05</totfact>
</mgrwt>
</event>
<event>
 7    1  0.3301067E-009  0.9434157E+02  0.7818608E-02  0.1292666E+00
         -1   -1    0    0    0  501 -0.00000000000E+00  0.00000000000E+00  0.55577093313E+01  0.55577116166E+01  0.50400000000E-02 0.  1.
          1   -1    0    0  501    0  0.00000000000E+00 -0.00000000000E+00 -0.40035967456E+03  0.40035967460E+03  0.50400000000E-02 0. -1.
         23    2    1    2    0    0  0.11102230246E-15  0.00000000000E+00 -0.39480196523E+03  0.40591738621E+03  0.94341574493E+02 0.  0.
    9000005    2    3    3    0    0  0.81055268874E+00  0.45828906331E+02 -0.16838320206E+03  0.17490569394E+03  0.11753866789E+02 0.  0.
         22    1    3    3    0    0 -0.81055268874E+00 -0.45828906331E+02 -0.22641876317E+03  0.23101169227E+03  0.00000000000E+00 0.  1.
         22    1    4    4    0    0  0.22725142557E+01  0.44876261517E+02 -0.15413551211E+03  0.16055154706E+03  0.00000000000E+00 0.  1.
         22    1    4    4    0    0 -0.14619615669E+01  0.95264481397E+00 -0.14247689948E+02  0.14354146879E+02  0.00000000000E+00 0.  1.
<mgrwt>
<rscale>  0 0.94341574E+02</rscale>
<asrwt>0</asrwt>
<pdfrwt beam="2">  1        1 0.61593773E-01 0.94341574E+02</pdfrwt>
<pdfrwt beam="1">  1       -1 0.85503270E-03 0.94341574E+02</pdfrwt>
<totfact> 0.12320151E+05</totfact>
</mgrwt>
</event>
<event>
 7    1  0.3301067E-009  0.9036400E+02  0.7818608E-02  0.1301973E+00
          1   -1    0    0  501    0  0.00000000000E+00  0.00000000000E+00  0.23379166250E+02  0.23379166793E+02  0.50400000000E-02 0.  1.
         -1   -1    0    0    0  501 -0.00000000000E+00 -0.00000000000E+00 -0.87317612188E+02  0.87317612333E+02  0.50400000000E-02 0. -1.
         23    2    1    2    0    0  0.00000000000E+00  0.00000000000E+00 -0.63938445938E+02  0.11069677913E+03  0.90363997476E+02 0.  0.
    9000005    2    3    3    0    0  0.20248141457E+02  0.20848551655E+02 -0.73130933195E+02  0.80214798211E+02  0.15544488521E+02 0.  0.
         22    1    3    3    0    0 -0.20248141457E+02 -0.20848551655E+02  0.91924872570E+01  0.30481980916E+02  0.00000000000E+00 0.  1.
         22    1    4    4    0    0  0.17910548891E+02  0.18788970154E+02 -0.45301211394E+02  0.52211233607E+02  0.00000000000E+00 0. -1.
         22    1    4    4    0    0  0.23375925666E+01  0.20595815010E+01 -0.27829721801E+02  0.28003564603E+02  0.00000000000E+00 0. -1.
<mgrwt>
<rscale>  0 0.90363997E+02</rscale>
<asrwt>0</asrwt>
<pdfrwt beam="1">  1        1 0.35967949E-02 0.90363997E+02</pdfrwt>
<pdfrwt beam="2">  1       -1 0.13433479E-01 0.90363997E+02</pdfrwt>
<totfact> 0.85322420E+04</totfact>
</mgrwt>
</event>
<event>
 7    1  0.3301067E-009  0.9296771E+02  0.7818608E-02  0.1295820E+00
          1   -1    0    0  501    0  0.00000000000E+00  0.00000000000E+00  0.27037674175E+03  0.27037674179E+03  0.50400000000E-02 0. -1.
         -1   -1    0    0    0  501 -0.00000000000E+00 -0.00000000000E+00 -0.79916220408E+01  0.79916236300E+01  0.50400000000E-02 0.  1.
         23    2    1    2    0    0  0.00000000000E+00  0.00000000000E+00  0.26238511971E+03  0.27836836542E+03  0.92967713888E+02 0.  0.
    9000005    2    3    3    0    0 -0.27471595966E+02 -0.34149642552E+02  0.91383503786E+02  0.10183950286E+03  0.99726078263E+01 0.  0.
         22    1    3    3    0    0  0.27471595966E+02  0.34149642552E+02  0.17100161592E+03  0.17652886256E+03  0.00000000000E+00 0. -1.
         22    1    4    4    0    0 -0.19800859956E+02 -0.26776723331E+02  0.77465391947E+02  0.84320542674E+02  0.00000000000E+00 0. -1.
         22    1    4    4    0    0 -0.76707360096E+01 -0.73729192213E+01  0.13918111839E+02  0.17518960184E+02  0.00000000000E+00 0. -1.
<mgrwt>
<rscale>  0 0.92967714E+02</rscale>
<asrwt>0</asrwt>
<pdfrwt beam="1">  1        1 0.41596424E-01 0.92967714E+02</pdfrwt>
<pdfrwt beam="2">  1       -1 0.12294804E-02 0.92967714E+02</pdfrwt>
<totfact> 0.11921455E+05</totfact>
</mgrwt>
</event>
<event>
 7    1  0.3301067E-009  0.9125855E+02  0.7818608E-02  0.1299832E+00
         -1   -1    0    0    0  501 -0.00000000000E+00  0.00000000000E+00  0.13511787870E+04  0.13511787870E+04  0.50400000000E-02 0.  1.
          1   -1    0    0  501    0  0.00000000000E+00 -0.00000000000E+00 -0.15408954847E+01  0.15409037271E+01  0.50400000000E-02 0. -1.
         23    2    1    2    0    0  0.88817841970E-15  0.00000000000E+00  0.13496378915E+04  0.13527196908E+04  0.91258552983E+02 0.  0.
    9000005    2    3    3    0    0  0.48524733405E+01 -0.17585594646E+02  0.12930301048E+04  0.12932449806E+04  0.14930777809E+02 0.  0.
         22    1    3    3    0    0 -0.48524733405E+01  0.17585594646E+02  0.56607786705E+02  0.59474710190E+02  0.00000000000E+00 0. -1.
         22    1    4    4    0    0 -0.45728270085E+01 -0.11285292580E+02  0.71563414949E+03  0.71573773443E+03  0.00000000000E+00 0.  1.
         22    1    4    4    0    0  0.94253003490E+01 -0.63003020659E+01  0.57739595535E+03  0.57750724614E+03  0.00000000000E+00 0.  1.
<mgrwt>
<rscale>  0 0.91258553E+02</rscale>
<asrwt>0</asrwt>
<pdfrwt beam="2">  1        1 0.23706237E-03 0.91258553E+02</pdfrwt>
<pdfrwt beam="1">  1       -1 0.20787288E+00 0.91258553E+02</pdfrwt>
<totfact> 0.16620373E+04</totfact>
</mgrwt>
</event>
<event>
 7    1  0.3301067E-009  0.8655015E+02  0.7818608E-02  0.1311428E+00
          1   -1    0    0  501    0  0.00000000000E+00  0.00000000000E+00  0.11007632172E+02  0.11007633325E+02  0.50400000000E-02 0. -1.
         -1   -1    0    0    0  501 -0.00000000000E+00 -0.00000000000E+00 -0.17013031010E+03  0.17013031017E+03  0.50400000000E-02 0.  1.
         23    2    1    2    0    0 -0.88817841970E-15  0.00000000000E+00 -0.15912267793E+03  0.18113794350E+03  0.86550146991E+02 0.  0.
    9000005    2    3    3    0    0 -0.14299756466E+01 -0.12935123140E+02 -0.16566849893E+03  0.16657051361E+03  0.11415875983E+02 0.  0.
         22    1    3    3    0    0  0.14299756466E+01  0.12935123140E+02  0.65458210043E+01  0.14567429891E+02  0.00000000000E+00 0. -1.
         22    1    4    4    0    0  0.41352768020E+01 -0.16179455754E+01 -0.31660304591E+02  0.31970191569E+02  0.00000000000E+00 0. -1.
         22    1    4    4    0    0 -0.55652524486E+01 -0.11317177565E+02 -0.13400819434E+03  0.13460032204E+03  0.00000000000E+00 0. -1.
<mgrwt>
<rscale>  0 0.86550147E+02</rscale>
<asrwt>0</asrwt>
<pdfrwt beam="1">  1        1 0.16934821E-02 0.86550147E+02</pdfrwt>
<pdfrwt beam="2">  1       -1 0.26173892E-01 0.86550147E+02</pdfrwt>
<totfact> 0.83015937E+04</totfact>
</mgrwt>
</event>
<event>
 7    1  0.3301067E-009  0.9206255E+02  0.7818608E-02  0.1297932E+00
          1   -1    0    0  501    0  0.00000000000E+00  0.00000000000E+00  0.38658196741E+02  0.38658197069E+02  0.50400000000E-02 0. -1.
         -1   -1    0    0    0  501 -0.00000000000E+00 -0.00000000000E+00 -0.54810577735E+02  0.54810577967E+02  0.50400000000E-02 0.  1.
         23    2    1    2    0    0  0.00000000000E+00  0.00000000000E+00 -0.16152380994E+02  0.93468775036E+02  0.92062546646E+02 0.  0.
    9000005    2    3    3    0    0 -0.40095306303E+02 -0.14291815789E+02  0.93445521936E+01  0.43850399528E+02  0.48628486445E+01 0.  0.
         22    1    3    3    0    0  0.40095306303E+02  0.14291815789E+02 -0.25496933188E+02  0.49618375508E+02  0.00000000000E+00 0.  1.
         22    1    4    4    0    0 -0.13430045991E+02 -0.35436532269E+01  0.10573030915E+01  0.13929878081E+02  0.00000000000E+00 0. -1.
         22    1    4    4    0    0 -0.26665260312E+02 -0.10748162562E+02  0.82872491021E+01  0.29920521447E+02  0.00000000000E+00 0. -1.
<mgrwt>
<rscale>  0 0.92062547E+02</rscale>
<asrwt>0</asrwt>
<pdfrwt beam="1">  1        1 0.59474149E-02 0.92062547E+02</pdfrwt>
<pdfrwt beam="2">  1       -1 0.84323967E-02 0.92062547E+02</pdfrwt>
<totfact> 0.87755449E+04</totfact>
</mgrwt>
</event>
<event>
 7    1  0.3301067E-009  0.9086616E+02  0.7818608E-02  0.1300768E+00
          1   -1    0    0  501    0  0.00000000000E+00  0.00000000000E+00  0.28159810164E+02  0.28159810615E+02  0.50400000000E-02 0. -1.
         -1   -1    0    0    0  501 -0.00000000000E+00 -0.00000000000E+00 -0.73301804597E+02  0.73301804770E+02  0.50400000000E-02 0.  1.
         23    2    1    2    0    0  0.00000000000E+00  0.00000000000E+00 -0.45141994433E+02  0.10146161538E+03  0.90866163863E+02 0.  0.
    9000005    2    3    3    0    0 -0.42386386338E+02 -0.10276002442E+02 -0.33265428959E+02  0.56259239557E+02  0.12502451705E+02 0.  0.
         22    1    3    3    0    0  0.42386386338E+02  0.10276002442E+02 -0.11876565474E+02  0.45202375828E+02  0.00000000000E+00 0. -1.
         22    1    4    4    0    0 -0.13372534185E+02 -0.77718662883E+01 -0.16672834986E+02  0.22742251485E+02  0.00000000000E+00 0. -1.
         22    1    4    4    0    0 -0.29013852153E+02 -0.25041361542E+01 -0.16592593973E+02  0.33516988072E+02  0.00000000000E+00 0. -1.
<mgrwt>
<rscale>  0 0.90866164E+02</rscale>
<asrwt>0</asrwt>
<pdfrwt beam="1">  1        1 0.43322786E-02 0.90866164E+02</pdfrwt>
<pdfrwt beam="2">  1       -1 0.11277201E-01 0.90866164E+02</pdfrwt>
<totfact> 0.86643791E+04</totfact>
</mgrwt>
</event>
<event>
 7    1  0.3301067E-009  0.9036667E+02  0.7818608E-02  0.1301966E+00
          1   -1    0    0  501    0  0.00000000000E+00  0.00000000000E+00  0.16740428073E+03  0.16740428081E+03  0.50400000000E-02 0. -1.
         -1   -1    0    0    0  501 -0.00000000000E+00 -0.00000000000E+00 -0.12195229724E+02  0.12195230765E+02  0.50400000000E-02 0.  1.
         23    2    1    2    0    0  0.00000000000E+00 -0.17763568394E-14  0.15520905101E+03  0.17959951157E+03  0.90366669974E+02 0.  0.
    9000005    2    3    3    0    0  0.36949144978E+02  0.15639131593E+02  0.41771159768E+02  0.59275046394E+02  0.12604744543E+02 0.  0.
         22    1    3    3    0    0 -0.36949144978E+02 -0.15639131593E+02  0.11343789124E+03  0.12032446518E+03  0.00000000000E+00 0. -1.
         22    1    4    4    0    0  0.23712024885E+01 -0.15422630164E+01  0.72016892373E+00  0.29188730243E+01  0.00000000000E+00 0. -1.
         22    1    4    4    0    0  0.34577942490E+02  0.17181394609E+02  0.41050990845E+02  0.56356173370E+02  0.00000000000E+00 0. -1.
<mgrwt>
<rscale>  0 0.90366670E+02</rscale>
<asrwt>0</asrwt>
<pdfrwt beam="1">  1        1 0.25754506E-01 0.90366670E+02</pdfrwt>
<pdfrwt beam="2">  1       -1 0.18761892E-02 0.90366670E+02</pdfrwt>
<totfact> 0.11722305E+05</totfact>
</mgrwt>
</event>
<event>
 7    1  0.3301067E-009  0.9394664E+02  0.7818608E-02  0.1293566E+00
         -1   -1    0    0    0  501 -0.00000000000E+00  0.00000000000E+00  0.34132533751E+01  0.34132570961E+01  0.50400000000E-02 0.  1.
          1   -1    0    0  501    0  0.00000000000E+00 -0.00000000000E+00 -0.64644817464E+03  0.64644817466E+03  0.50400000000E-02 0. -1.
         23    2    1    2    0    0  0.00000000000E+00  0.00000000000E+00 -0.64303492126E+03  0.64986143175E+03  0.93946636541E+02 0.  0.
    9000005    2    3    3    0    0 -0.31215137101E+01  0.37115014756E+02 -0.51667358712E+03  0.51812512342E+03  0.10713529710E+02 0.  0.
         22    1    3    3    0    0  0.31215137101E+01 -0.37115014756E+02 -0.12636133414E+03  0.13173630834E+03  0.00000000000E+00 0.  1.
         22    1    4    4    0    0  0.39439171852E+01  0.13947591533E+02 -0.20509480154E+03  0.20560634088E+03  0.00000000000E+00 0. -1.
         22    1    4    4    0    0 -0.70654308953E+01  0.23167423222E+02 -0.31157878558E+03  0.31251878253E+03  0.00000000000E+00 0. -1.
<mgrwt>
<rscale>  0 0.93946637E+02</rscale>
<asrwt>0</asrwt>
<pdfrwt beam="2">  1        1 0.99453469E-01 0.93946637E+02</pdfrwt>
<pdfrwt beam="1">  1       -1 0.52511670E-03 0.93946637E+02</pdfrwt>
<totfact> 0.13122923E+05</totfact>
</mgrwt>
</event>
<event>
 7    1  0.3301067E-009  0.8384220E+02  0.7818608E-02  0.1318488E+00
          1   -1    0    0  501    0  0.00000000000E+00  0.00000000000E+00  0.21974604101E+02  0.21974604679E+02  0.50400000000E-02 0. -1.
         -1   -1    0    0    0  501 -0.00000000000E+00 -0.00000000000E+00 -0.79973166400E+02  0.79973166559E+02  0.50400000000E-02 0.  1.
         23    2    1    2    0    0  0.00000000000E+00 -0.35527136788E-14 -0.57998562299E+02  0.10194777124E+03  0.83842201973E+02 0.  0.
    9000005    2    3    3    0    0 -0.20892152949E+02 -0.30615540041E+02 -0.80807147142E+01  0.39773943510E+02  0.11953045017E+02 0.  0.
         22    1    3    3    0    0  0.20892152949E+02  0.30615540041E+02 -0.49917847585E+02  0.62173827728E+02  0.00000000000E+00 0.  1.
         22    1    4    4    0    0 -0.14988720887E+02 -0.17949968143E+02 -0.10427222358E+02  0.25604493283E+02  0.00000000000E+00 0.  1.
         22    1    4    4    0    0 -0.59034320614E+01 -0.12665571898E+02  0.23465076436E+01  0.14169450227E+02  0.00000000000E+00 0.  1.
<mgrwt>
<rscale>  0 0.83842202E+02</rscale>
<asrwt>0</asrwt>
<pdfrwt beam="1">  1        1 0.33807084E-02 0.83842202E+02</pdfrwt>
<pdfrwt beam="2">  1       -1 0.12303564E-01 0.83842202E+02</pdfrwt>
<totfact> 0.10488682E+05</totfact>
</mgrwt>
</event>
<event>
 7    1  0.3301067E-009  0.9188793E+02  0.7818608E-02  0.1298343E+00
          1   -1    0    0  501    0  0.00000000000E+00  0.00000000000E+00  0.46303726902E+03  0.46303726905E+03  0.50400000000E-02 0. -1.
         -1   -1    0    0    0  501 -0.00000000000E+00 -0.00000000000E+00 -0.45586981567E+01  0.45587009427E+01  0.50400000000E-02 0.  1.
         23    2    1    2    0    0  0.00000000000E+00  0.00000000000E+00  0.45847857087E+03  0.46759596999E+03  0.91887927445E+02 0.  0.
    9000005    2    3    3    0    0 -0.14497827269E+02 -0.97252249527E+01  0.44534002916E+03  0.44574675321E+03  0.75933806141E+01 0.  0.
         22    1    3    3    0    0  0.14497827269E+02  0.97252249527E+01  0.13138541708E+02  0.21849216785E+02  0.00000000000E+00 0.  1.
         22    1    4    4    0    0 -0.12504178010E+01  0.87220612333E+00  0.16212527472E+02  0.16284051560E+02  0.00000000000E+00 0.  1.
         22    1    4    4    0    0 -0.13247409468E+02 -0.10597431076E+02  0.42912750169E+03  0.42946270165E+03  0.00000000000E+00 0.  1.
<mgrwt>
<rscale>  0 0.91887927E+02</rscale>
<asrwt>0</asrwt>
<pdfrwt beam="1">  1        1 0.71236539E-01 0.91887927E+02</pdfrwt>
<pdfrwt beam="2">  1       -1 0.70133805E-03 0.91887927E+02</pdfrwt>
<totfact> 0.13509265E+05</totfact>
</mgrwt>
</event>
<event>
 7    1  0.3301067E-009  0.9090864E+02  0.7818608E-02  0.1300666E+00
          1   -1    0    0  501    0  0.00000000000E+00  0.00000000000E+00  0.28836976922E+02  0.28836977363E+02  0.50400000000E-02 0. -1.
         -1   -1    0    0    0  501 -0.00000000000E+00 -0.00000000000E+00 -0.71647423845E+02  0.71647424022E+02  0.50400000000E-02 0.  1.
         23    2    1    2    0    0  0.00000000000E+00  0.00000000000E+00 -0.42810446923E+02  0.10048440139E+03  0.90908638511E+02 0.  0.
    9000005    2    3    3    0    0 -0.18441002714E+02  0.40251451283E+02 -0.28182580917E+02  0.53855822430E+02  0.12080638684E+02 0.  0.
         22    1    3    3    0    0  0.18441002714E+02 -0.40251451283E+02 -0.14627866006E+02  0.46628578955E+02  0.00000000000E+00 0. -1.
         22    1    4    4    0    0 -0.42926577995E+01  0.13468059202E+02 -0.15611126199E+02  0.21059980789E+02  0.00000000000E+00 0. -1.
         22    1    4    4    0    0 -0.14148344915E+02  0.26783392081E+02 -0.12571454718E+02  0.32795841641E+02  0.00000000000E+00 0. -1.
<mgrwt>
<rscale>  0 0.90908639E+02</rscale>
<asrwt>0</asrwt>
<pdfrwt beam="1">  1        1 0.44364581E-02 0.90908639E+02</pdfrwt>
<pdfrwt beam="2">  1       -1 0.11022681E-01 0.90908639E+02</pdfrwt>
<totfact> 0.86863612E+04</totfact>
</mgrwt>
</event>
<event>
 6    1  0.3301067E-009  0.3213619E+03  0.7818608E-02  0.1075024E+00
          1   -1    0    0  501    0  0.00000000000E+00  0.00000000000E+00  0.97055783091E+03  0.97055783092E+03  0.50400000000E-02 0. -1.
         -1   -1    0    0    0  501 -0.00000000000E+00 -0.00000000000E+00 -0.26601575541E+02  0.26601576018E+02  0.50400000000E-02 0.  1.
    9000005    2    1    2    0    0 -0.36892166320E+02  0.10366826354E+03  0.83495027347E+03  0.84227091515E+03  0.13045862854E+02 0.  0.
         22    1    1    2    0    0  0.36892166320E+02 -0.10366826354E+03  0.10900598190E+03  0.15488849180E+03  0.00000000000E+00 0.  1.
         22    1    3    3    0    0 -0.98011855861E+01  0.34099911917E+02  0.22751029995E+03  0.23026029578E+03  0.00000000000E+00 0. -1.
         22    1    3    3    0    0 -0.27090980734E+02  0.69568351619E+02  0.60743997352E+03  0.61201061936E+03  0.00000000000E+00 0. -1.
<mgrwt>
<rscale>  0 0.32136190E+03</rscale>
<asrwt>0</asrwt>
<pdfrwt beam="1">  1        1 0.14931657E+00 0.32136190E+03</pdfrwt>
<pdfrwt beam="2">  1       -1 0.40925505E-02 0.32136190E+03</pdfrwt>
<totfact> 0.40102687E+03</totfact>
</mgrwt>
</event>
<event>
 7    1  0.3301067E-009  0.9199561E+02  0.7818608E-02  0.1298090E+00
         -1   -1    0    0    0  501 -0.00000000000E+00  0.00000000000E+00  0.48148848773E+02  0.48148849037E+02  0.50400000000E-02 0.  1.
          1   -1    0    0  501    0  0.00000000000E+00 -0.00000000000E+00 -0.43942862386E+02  0.43942862675E+02  0.50400000000E-02 0. -1.
         23    2    1    2    0    0  0.00000000000E+00  0.00000000000E+00  0.42059863875E+01  0.92091711712E+02  0.91995614268E+02 0.  0.
    9000005    2    3    3    0    0 -0.14375045758E+02  0.30156938480E+02 -0.29475898628E+02  0.44651725864E+02  0.29774391082E+01 0.  0.
         22    1    3    3    0    0  0.14375045758E+02 -0.30156938480E+02  0.33681885016E+02  0.47439985848E+02  0.00000000000E+00 0.  1.
         22    1    4    4    0    0 -0.13115619815E+02  0.28632392682E+02 -0.26999025561E+02  0.41482294718E+02  0.00000000000E+00 0. -1.
         22    1    4    4    0    0 -0.12594259432E+01  0.15245457979E+01 -0.24768730677E+01  0.31694311461E+01  0.00000000000E+00 0. -1.
<mgrwt>
<rscale>  0 0.91995614E+02</rscale>
<asrwt>0</asrwt>
<pdfrwt beam="2">  1        1 0.67604403E-02 0.91995614E+02</pdfrwt>
<pdfrwt beam="1">  1       -1 0.74075153E-02 0.91995614E+02</pdfrwt>
<totfact> 0.89675288E+04</totfact>
</mgrwt>
</event>
<event>
 7    1  0.3301067E-009  0.9214522E+02  0.7818608E-02  0.1297738E+00
          1   -1    0    0  501    0  0.00000000000E+00  0.00000000000E+00  0.18191982758E+02  0.18191983456E+02  0.50400000000E-02 0. -1.
         -1   -1    0    0    0  501 -0.00000000000E+00 -0.00000000000E+00 -0.11668245772E+03  0.11668245783E+03  0.50400000000E-02 0.  1.
         23    2    1    2    0    0  0.00000000000E+00  0.00000000000E+00 -0.98490474966E+02  0.13487444129E+03  0.92145218292E+02 0.  0.
    9000005    2    3    3    0    0 -0.26616397845E+02  0.35738438069E+02 -0.59970611399E+02  0.75972416883E+02  0.13771902763E+02 0.  0.
         22    1    3    3    0    0  0.26616397845E+02 -0.35738438069E+02 -0.38519863568E+02  0.58902024406E+02  0.00000000000E+00 0. -1.
         22    1    4    4    0    0 -0.17827181577E+02  0.32277326561E+02 -0.43897761428E+02  0.57329291565E+02  0.00000000000E+00 0. -1.
         22    1    4    4    0    0 -0.87892162672E+01  0.34611115080E+01 -0.16072849970E+02  0.18643125318E+02  0.00000000000E+00 0. -1.
<mgrwt>
<rscale>  0 0.92145218E+02</rscale>
<asrwt>0</asrwt>
<pdfrwt beam="1">  1        1 0.27987667E-02 0.92145218E+02</pdfrwt>
<pdfrwt beam="2">  1       -1 0.17951147E-01 0.92145218E+02</pdfrwt>
<totfact> 0.76849554E+04</totfact>
</mgrwt>
</event>
<event>
 7    1  0.3301067E-009  0.9779103E+02  0.7818608E-02  0.1285011E+00
          1   -1    0    0  501    0  0.00000000000E+00  0.00000000000E+00  0.59162390804E+03  0.59162390807E+03  0.50400000000E-02 0. -1.
         -1   -1    0    0    0  501 -0.00000000000E+00 -0.00000000000E+00 -0.40410309729E+01  0.40410341158E+01  0.50400000000E-02 0.  1.
         23    2    1    2    0    0 -0.71054273576E-14 -0.27755575616E-16  0.58758287707E+03  0.59566494218E+03  0.97791031883E+02 0.  0.
    9000005    2    3    3    0    0 -0.46962152358E+02 -0.17247420446E+00  0.36810128187E+03  0.37121529497E+03  0.98370729200E+01 0.  0.
         22    1    3    3    0    0  0.46962152358E+02  0.17247420446E+00  0.21948159520E+03  0.22444964721E+03  0.00000000000E+00 0.  1.
         22    1    4    4    0    0 -0.30556538624E+02  0.85006847310E+00  0.20156067470E+03  0.20386547097E+03  0.00000000000E+00 0.  1.
         22    1    4    4    0    0 -0.16405613734E+02 -0.10225426776E+01  0.16654060717E+03  0.16734982400E+03  0.00000000000E+00 0.  1.
<mgrwt>
<rscale>  0 0.97791032E+02</rscale>
<asrwt>0</asrwt>
<pdfrwt beam="1">  1        1 0.91018968E-01 0.97791032E+02</pdfrwt>
<pdfrwt beam="2">  1       -1 0.62169797E-03 0.97791032E+02</pdfrwt>
<totfact> 0.11744826E+05</totfact>
</mgrwt>
</event>
<event>
 7    1  0.3301067E-009  0.8540590E+02  0.7818608E-02  0.1314374E+00
         -1   -1    0    0    0  501 -0.00000000000E+00  0.00000000000E+00  0.23239483109E+02  0.23239483655E+02  0.50400000000E-02 0. -1.
          1   -1    0    0  501    0  0.00000000000E+00 -0.00000000000E+00 -0.78467410186E+02  0.78467410348E+02  0.50400000000E-02 0.  1.
         23    2    1    2    0    0  0.00000000000E+00  0.00000000000E+00 -0.55227927077E+02  0.10170689400E+03  0.85405903535E+02 0.  0.
    9000005    2    3    3    0    0  0.23882027735E+02  0.19975028820E+02  0.60333650392E+01  0.32987908731E+02  0.90800662791E+01 0.  0.
         22    1    3    3    0    0 -0.23882027735E+02 -0.19975028820E+02 -0.61261292117E+02  0.68718985273E+02  0.00000000000E+00 0.  1.
         22    1    4    4    0    0  0.29803534482E+01  0.44807072852E+01 -0.20257052135E+01  0.57500196577E+01  0.00000000000E+00 0.  1.
         22    1    4    4    0    0  0.20901674287E+02  0.15494321535E+02  0.80590702528E+01  0.27237889073E+02  0.00000000000E+00 0.  1.
<mgrwt>
<rscale>  0 0.85405904E+02</rscale>
<asrwt>0</asrwt>
<pdfrwt beam="2">  1        1 0.12071909E-01 0.85405904E+02</pdfrwt>
<pdfrwt beam="1">  1       -1 0.35753052E-02 0.85405904E+02</pdfrwt>
<totfact> 0.12008246E+05</totfact>
</mgrwt>
</event>
<event>
 7    1  0.3301067E-009  0.8992760E+02  0.7818608E-02  0.1303027E+00
         -1   -1    0    0    0  501 -0.00000000000E+00  0.00000000000E+00  0.88483267225E+01  0.88483281579E+01  0.50400000000E-02 0.  1.
          1   -1    0    0  501    0  0.00000000000E+00 -0.00000000000E+00 -0.22848873033E+03  0.22848873038E+03  0.50400000000E-02 0. -1.
         23    2    1    2    0    0  0.00000000000E+00  0.00000000000E+00 -0.21964040360E+03  0.23733705854E+03  0.89927595660E+02 0.  0.
    9000005    2    3    3    0    0 -0.84815184084E+01 -0.42416099908E+02 -0.14151431544E+03  0.14803561769E+03  0.41449903105E+01 0.  0.
         22    1    3    3    0    0  0.84815184084E+01  0.42416099908E+02 -0.78126088164E+02  0.89301440850E+02  0.00000000000E+00 0. -1.
         22    1    4    4    0    0 -0.79761959325E+01 -0.42105110536E+02 -0.13986150138E+03  0.14627952558E+03  0.00000000000E+00 0.  1.
         22    1    4    4    0    0 -0.50532247589E+00 -0.31098937227E+00 -0.16528140582E+01  0.17560921118E+01  0.00000000000E+00 0.  1.
<mgrwt>
<rscale>  0 0.89927596E+02</rscale>
<asrwt>0</asrwt>
<pdfrwt beam="2">  1        1 0.35152108E-01 0.89927596E+02</pdfrwt>
<pdfrwt beam="1">  1       -1 0.13612813E-02 0.89927596E+02</pdfrwt>
<totfact> 0.12608141E+05</totfact>
</mgrwt>
</event>
<event>
 7    1  0.3301067E-009  0.9251545E+02  0.7818608E-02  0.1296872E+00
         -1   -1    0    0    0  501 -0.00000000000E+00  0.00000000000E+00  0.45563856021E+02  0.45563856300E+02  0.50400000000E-02 0.  1.
          1   -1    0    0  501    0  0.00000000000E+00 -0.00000000000E+00 -0.46962158585E+02  0.46962158855E+02  0.50400000000E-02 0. -1.
         23    2    1    2    0    0  0.11102230246E-15 -0.71054273576E-14 -0.13983025637E+01  0.92526015155E+02  0.92515448604E+02 0.  0.
    9000005    2    3    3    0    0 -0.45008998017E+00  0.45448145788E+02  0.78323167812E+01  0.46147778125E+02  0.15923891392E+01 0.  0.
         22    1    3    3    0    0  0.45008998017E+00 -0.45448145788E+02 -0.92306193449E+01  0.46378237030E+02  0.00000000000E+00 0. -1.
         22    1    4    4    0    0 -0.89319033332E-01  0.43233194238E+02  0.73851446243E+01  0.43859519184E+02  0.00000000000E+00 0. -1.
         22    1    4    4    0    0 -0.36077094684E+00  0.22149515500E+01  0.44717215685E+00  0.22882589414E+01  0.00000000000E+00 0. -1.
<mgrwt>
<rscale>  0 0.92515449E+02</rscale>
<asrwt>0</asrwt>
<pdfrwt beam="2">  1        1 0.72249475E-02 0.92515449E+02</pdfrwt>
<pdfrwt beam="1">  1       -1 0.70098240E-02 0.92515449E+02</pdfrwt>
<totfact> 0.89159601E+04</totfact>
</mgrwt>
</event>
<event>
 7    1  0.3301067E-009  0.9692103E+02  0.7818608E-02  0.1286907E+00
         -1   -1    0    0    0  501 -0.00000000000E+00  0.00000000000E+00  0.32624706596E+01  0.32624745526E+01  0.50400000000E-02 0.  1.
          1   -1    0    0  501    0  0.00000000000E+00 -0.00000000000E+00 -0.71982867849E+03  0.71982867851E+03  0.50400000000E-02 0. -1.
         23    2    1    2    0    0  0.35527136788E-14  0.35527136788E-14 -0.71656620783E+03  0.72309115306E+03  0.96921026767E+02 0.  0.
    9000005    2    3    3    0    0 -0.27317061657E+02 -0.17957017301E+02 -0.62285664416E+03  0.62384318759E+03  0.12698314563E+02 0.  0.
         22    1    3    3    0    0  0.27317061657E+02  0.17957017301E+02 -0.93709563670E+02  0.99247965476E+02  0.00000000000E+00 0.  1.
         22    1    4    4    0    0 -0.20322280652E+02 -0.18536224096E+02 -0.53500465977E+03  0.53571127734E+03  0.00000000000E+00 0. -1.
         22    1    4    4    0    0 -0.69947810051E+01  0.57920679561E+00 -0.87851984390E+02  0.88131910243E+02  0.00000000000E+00 0. -1.
<mgrwt>
<rscale>  0 0.96921027E+02</rscale>
<asrwt>0</asrwt>
<pdfrwt beam="2">  1        1 0.11074275E+00 0.96921027E+02</pdfrwt>
<pdfrwt beam="1">  1       -1 0.50191944E-03 0.96921027E+02</pdfrwt>
<totfact> 0.12084799E+05</totfact>
</mgrwt>
</event>
<event>
 7    1  0.3301067E-009  0.9587723E+02  0.7818608E-02  0.1289212E+00
         -1   -1    0    0    0  501 -0.00000000000E+00  0.00000000000E+00  0.20998299720E+02  0.20998300325E+02  0.50400000000E-02 0.  1.
          1   -1    0    0  501    0  0.00000000000E+00 -0.00000000000E+00 -0.10944270639E+03  0.10944270651E+03  0.50400000000E-02 0. -1.
         23    2    1    2    0    0  0.00000000000E+00  0.00000000000E+00 -0.88444406670E+02  0.13044100683E+03  0.95877229788E+02 0.  0.
    9000005    2    3    3    0    0  0.84667980523E+01 -0.32987393971E+02  0.41609232821E+00  0.35277762285E+02  0.91919828549E+01 0.  0.
         22    1    3    3    0    0 -0.84667980523E+01  0.32987393971E+02 -0.88860498999E+02  0.95163244546E+02  0.00000000000E+00 0. -1.
         22    1    4    4    0    0  0.73630092445E+01 -0.26810041804E+02  0.39404719158E+01  0.28080590550E+02  0.00000000000E+00 0. -1.
         22    1    4    4    0    0  0.11037888078E+01 -0.61773521663E+01 -0.35243795876E+01  0.71971717359E+01  0.00000000000E+00 0. -1.
<mgrwt>
<rscale>  0 0.95877230E+02</rscale>
<asrwt>0</asrwt>
<pdfrwt beam="2">  1        1 0.16837339E-01 0.95877230E+02</pdfrwt>
<pdfrwt beam="1">  1       -1 0.32305078E-02 0.95877230E+02</pdfrwt>
<totfact> 0.92449304E+04</totfact>
</mgrwt>
</event>
<event>
 7    1  0.3301067E-009  0.9726469E+02  0.7818608E-02  0.1286155E+00
         -1   -1    0    0    0  501 -0.00000000000E+00  0.00000000000E+00  0.16749280410E+02  0.16749281168E+02  0.50400000000E-02 0.  1.
          1   -1    0    0  501    0  0.00000000000E+00 -0.00000000000E+00 -0.14120637094E+03  0.14120637103E+03  0.50400000000E-02 0. -1.
         23    2    1    2    0    0  0.00000000000E+00 -0.71054273576E-14 -0.12445709054E+03  0.15795565220E+03  0.97264693894E+02 0.  0.
    9000005    2    3    3    0    0 -0.29574163561E+02  0.37667732785E+02 -0.70262522595E+02  0.85633176873E+02  0.10135563949E+02 0.  0.
         22    1    3    3    0    0  0.29574163561E+02 -0.37667732785E+02 -0.54194567941E+02  0.72322475329E+02  0.00000000000E+00 0. -1.
         22    1    4    4    0    0 -0.43237533203E+01  0.25222226393E+01 -0.12442737782E+02  0.13411866885E+02  0.00000000000E+00 0.  1.
         22    1    4    4    0    0 -0.25250410241E+02  0.35145510145E+02 -0.57819784812E+02  0.72221309989E+02  0.00000000000E+00 0.  1.
<mgrwt>
<rscale>  0 0.97264694E+02</rscale>
<asrwt>0</asrwt>
<pdfrwt beam="2">  1        1 0.21724056E-01 0.97264694E+02</pdfrwt>
<pdfrwt beam="1">  1       -1 0.25768125E-02 0.97264694E+02</pdfrwt>
<totfact> 0.93059858E+04</totfact>
</mgrwt>
</event>
<event>
 7    1  0.3301067E-009  0.9071774E+02  0.7818608E-02  0.1301123E+00
          1   -1    0    0  501    0  0.00000000000E+00  0.00000000000E+00  0.52960450376E+02  0.52960450616E+02  0.50400000000E-02 0. -1.
         -1   -1    0    0    0  501 -0.00000000000E+00 -0.00000000000E+00 -0.38848367025E+02  0.38848367352E+02  0.50400000000E-02 0.  1.
         23    2    1    2    0    0  0.00000000000E+00 -0.71054273576E-14  0.14112083352E+02  0.91808817968E+02  0.90717738950E+02 0.  0.
    9000005    2    3    3    0    0  0.18568768014E+02 -0.35307091270E+02  0.28541143179E+02  0.49387271473E+02  0.57546407491E+01 0.  0.
         22    1    3    3    0    0 -0.18568768014E+02  0.35307091270E+02 -0.14429059827E+02  0.42421546494E+02  0.00000000000E+00 0.  1.
         22    1    4    4    0    0  0.16962172294E+02 -0.31939626449E+02  0.27722476557E+02  0.45567430617E+02  0.00000000000E+00 0.  1.
         22    1    4    4    0    0  0.16065957200E+01 -0.33674648211E+01  0.81866662189E+00  0.38198408562E+01  0.00000000000E+00 0.  1.
<mgrwt>
<rscale>  0 0.90717739E+02</rscale>
<asrwt>0</asrwt>
<pdfrwt beam="1">  1        1 0.81477616E-02 0.90717739E+02</pdfrwt>
<pdfrwt beam="2">  1       -1 0.59766719E-02 0.90717739E+02</pdfrwt>
<totfact> 0.95916309E+04</totfact>
</mgrwt>
</event>
<event>
 7    1  0.3301067E-009  0.9123462E+02  0.7818608E-02  0.1299889E+00
          1   -1    0    0  501    0  0.00000000000E+00  0.00000000000E+00  0.28240008590E+02  0.28240009040E+02  0.50400000000E-02 0. -1.
         -1   -1    0    0    0  501 -0.00000000000E+00 -0.00000000000E+00 -0.73687611671E+02  0.73687611843E+02  0.50400000000E-02 0.  1.
         23    2    1    2    0    0  0.00000000000E+00  0.00000000000E+00 -0.45447603081E+02  0.10192762088E+03  0.91234616638E+02 0.  0.
    9000005    2    3    3    0    0  0.17503743185E+02 -0.40853182543E+02 -0.12924706338E+02  0.46854012304E+02  0.72723370128E+01 0.  0.
         22    1    3    3    0    0 -0.17503743185E+02  0.40853182543E+02 -0.32522896743E+02  0.55073608579E+02  0.00000000000E+00 0. -1.
         22    1    4    4    0    0  0.34886915225E+01 -0.28916828238E+01 -0.72446768655E+00  0.45888616804E+01  0.00000000000E+00 0.  1.
         22    1    4    4    0    0  0.14015051662E+02 -0.37961499720E+02 -0.12200238652E+02  0.42265150623E+02  0.00000000000E+00 0.  1.
<mgrwt>
<rscale>  0 0.91234617E+02</rscale>
<asrwt>0</asrwt>
<pdfrwt beam="1">  1        1 0.43446168E-02 0.91234617E+02</pdfrwt>
<pdfrwt beam="2">  1       -1 0.11336556E-01 0.91234617E+02</pdfrwt>
<totfact> 0.85679234E+04</totfact>
</mgrwt>
</event>
<event>
 7    1  0.3301067E-009  0.8036218E+02  0.7818608E-02  0.1328027E+00
         -1   -1    0    0    0  501 -0.00000000000E+00  0.00000000000E+00  0.31174099580E+02  0.31174099988E+02  0.50400000000E-02 0.  1.
          1   -1    0    0  501    0  0.00000000000E+00 -0.00000000000E+00 -0.51790423945E+02  0.51790424190E+02  0.50400000000E-02 0. -1.
         23    2    1    2    0    0  0.00000000000E+00 -0.88817841970E-15 -0.20616324364E+02  0.82964524178E+02  0.80362176686E+02 0.  0.
    9000005    2    3    3    0    0  0.14816060673E+02 -0.42825838740E+01 -0.47474847739E+02  0.51992981492E+02  0.14544854006E+02 0.  0.
         22    1    3    3    0    0 -0.14816060673E+02  0.42825838740E+01  0.26858523375E+02  0.30971542686E+02  0.00000000000E+00 0.  1.
         22    1    4    4    0    0  0.82452865629E+01 -0.96605808305E+01 -0.29121351509E+02  0.31770500251E+02  0.00000000000E+00 0.  1.
         22    1    4    4    0    0  0.65707741096E+01  0.53779969565E+01 -0.18353496230E+02  0.20222481240E+02  0.00000000000E+00 0.  1.
<mgrwt>
<rscale>  0 0.80362177E+02</rscale>
<asrwt>0</asrwt>
<pdfrwt beam="2">  1        1 0.79677576E-02 0.80362177E+02</pdfrwt>
<pdfrwt beam="1">  1       -1 0.47960154E-02 0.80362177E+02</pdfrwt>
<totfact> 0.13358907E+05</totfact>
</mgrwt>
</event>
<event>
 6    1  0.3301067E-009  0.1578305E+03  0.7818608E-02  0.1191168E+00
          1   -1    0    0  501    0  0.00000000000E+00  0.00000000000E+00  0.18439047589E+03  0.18439047596E+03  0.50400000000E-02 0. -1.
         -1   -1    0    0    0  501 -0.00000000000E+00 -0.00000000000E+00 -0.33774067577E+02  0.33774067953E+02  0.50400000000E-02 0.  1.
    9000005    2    1    2    0    0  0.25707768370E+02 -0.43778349995E+02  0.15813526745E+03  0.16684236035E+03  0.15880085476E+02 0.  0.
         22    1    1    2    0    0 -0.25707768370E+02  0.43778349995E+02 -0.75188591311E+01  0.51322183561E+02  0.00000000000E+00 0.  1.
         22    1    3    3    0    0  0.25247569401E+02 -0.29407490473E+02  0.11870270556E+03  0.12487022288E+03  0.00000000000E+00 0.  1.
         22    1    3    3    0    0  0.46019896908E+00 -0.14370859522E+02  0.39432561891E+02  0.41972137470E+02  0.00000000000E+00 0.  1.
<mgrwt>
<rscale>  0 0.15783050E+03</rscale>
<asrwt>0</asrwt>
<pdfrwt beam="1">  1        1 0.28367766E-01 0.15783050E+03</pdfrwt>
<pdfrwt beam="2">  1       -1 0.51960104E-02 0.15783050E+03</pdfrwt>
<totfact> 0.25392212E+04</totfact>
</mgrwt>
</event>
<event>
 7    1  0.3301067E-009  0.9633757E+02  0.7818608E-02  0.1288192E+00
         -1   -1    0    0    0  501 -0.00000000000E+00  0.00000000000E+00  0.99289812984E+02  0.99289813112E+02  0.50400000000E-02 0.  1.
          1   -1    0    0  501    0  0.00000000000E+00 -0.00000000000E+00 -0.23368274241E+02  0.23368274784E+02  0.50400000000E-02 0. -1.
         23    2    1    2    0    0  0.00000000000E+00  0.00000000000E+00  0.75921538744E+02  0.12265808790E+03  0.96337565265E+02 0.  0.
    9000005    2    3    3    0    0 -0.25690988308E+02 -0.34664240503E+02  0.64633015512E+02  0.78059128193E+02  0.73596433517E+01 0.  0.
         22    1    3    3    0    0  0.25690988308E+02  0.34664240503E+02  0.11288523232E+02  0.44598959703E+02  0.00000000000E+00 0. -1.
         22    1    4    4    0    0 -0.25836864513E+02 -0.32248725548E+02  0.60384070844E+02  0.73169391681E+02  0.00000000000E+00 0. -1.
         22    1    4    4    0    0  0.14587620534E+00 -0.24155149550E+01  0.42489446677E+01  0.48897365117E+01  0.00000000000E+00 0. -1.
<mgrwt>
<rscale>  0 0.96337565E+02</rscale>
<asrwt>0</asrwt>
<pdfrwt beam="2">  1        1 0.35951191E-02 0.96337565E+02</pdfrwt>
<pdfrwt beam="1">  1       -1 0.15275356E-01 0.96337565E+02</pdfrwt>
<totfact> 0.70692922E+04</totfact>
</mgrwt>
</event>
<event>
 7    1  0.3301067E-009  0.9298276E+02  0.7818608E-02  0.1295785E+00
          1   -1    0    0  501    0  0.00000000000E+00  0.00000000000E+00  0.16960459600E+03  0.16960459608E+03  0.50400000000E-02 0. -1.
         -1   -1    0    0    0  501 -0.00000000000E+00 -0.00000000000E+00 -0.12744042670E+02  0.12744043666E+02  0.50400000000E-02 0.  1.
         23    2    1    2    0    0  0.00000000000E+00  0.00000000000E+00  0.15686055333E+03  0.18234863974E+03  0.92982757673E+02 0.  0.
    9000005    2    3    3    0    0  0.23450857063E+02 -0.32971085012E+02  0.33692710924E+02  0.52705465810E+02  0.23732283995E+01 0.  0.
         22    1    3    3    0    0 -0.23450857063E+02  0.32971085012E+02  0.12316784241E+03  0.12964317393E+03  0.00000000000E+00 0.  1.
         22    1    4    4    0    0  0.15353923378E+02 -0.21006541522E+02  0.23061681651E+02  0.34768648383E+02  0.00000000000E+00 0. -1.
         22    1    4    4    0    0  0.80969336847E+01 -0.11964543490E+02  0.10631029273E+02  0.17936817427E+02  0.00000000000E+00 0. -1.
<mgrwt>
<rscale>  0 0.92982758E+02</rscale>
<asrwt>0</asrwt>
<pdfrwt beam="1">  1        1 0.26093012E-01 0.92982758E+02</pdfrwt>
<pdfrwt beam="2">  1       -1 0.19606223E-02 0.92982758E+02</pdfrwt>
<totfact> 0.10881753E+05</totfact>
</mgrwt>
</event>
<event>
 7    1  0.3301067E-009  0.9207032E+02  0.7818608E-02  0.1297914E+00
          1   -1    0    0  501    0  0.00000000000E+00  0.00000000000E+00  0.63380243067E+02  0.63380243267E+02  0.50400000000E-02 0. -1.
         -1   -1    0    0    0  501 -0.00000000000E+00 -0.00000000000E+00 -0.33436855117E+02  0.33436855497E+02  0.50400000000E-02 0.  1.
         23    2    1    2    0    0 -0.35527136788E-14  0.00000000000E+00  0.29943387950E+02  0.96817098764E+02  0.92070321663E+02 0.  0.
    9000005    2    3    3    0    0  0.16051103866E+02 -0.32142937141E+02  0.44987494642E+02  0.57866726629E+02  0.58203980323E+01 0.  0.
         22    1    3    3    0    0 -0.16051103866E+02  0.32142937141E+02 -0.15044106692E+02  0.38950372135E+02  0.00000000000E+00 0.  1.
         22    1    4    4    0    0  0.50525863492E+01 -0.51198559970E+01  0.98139667198E+01  0.12167805760E+02  0.00000000000E+00 0. -1.
         22    1    4    4    0    0  0.10998517517E+02 -0.27023081144E+02  0.35173527922E+02  0.45698920868E+02  0.00000000000E+00 0. -1.
<mgrwt>
<rscale>  0 0.92070322E+02</rscale>
<asrwt>0</asrwt>
<pdfrwt beam="1">  1        1 0.97508066E-02 0.92070322E+02</pdfrwt>
<pdfrwt beam="2">  1       -1 0.51441316E-02 0.92070322E+02</pdfrwt>
<totfact> 0.94583987E+04</totfact>
</mgrwt>
</event>
<event>
 7    1  0.3301067E-009  0.8983372E+02  0.7818608E-02  0.1303255E+00
          1   -1    0    0  501    0  0.00000000000E+00  0.00000000000E+00  0.17459301931E+03  0.17459301939E+03  0.50400000000E-02 0. -1.
         -1   -1    0    0    0  501 -0.00000000000E+00 -0.00000000000E+00 -0.11555582433E+02  0.11555583532E+02  0.50400000000E-02 0.  1.
         23    2    1    2    0    0  0.00000000000E+00  0.00000000000E+00  0.16303743688E+03  0.18614860292E+03  0.89833716074E+02 0.  0.
    9000005    2    3    3    0    0  0.18844155939E+02 -0.30438373649E+02  0.30891308534E+02  0.49239158245E+02  0.13734080178E+02 0.  0.
         22    1    3    3    0    0 -0.18844155939E+02  0.30438373649E+02  0.13214612835E+03  0.13690944467E+03  0.00000000000E+00 0. -1.
         22    1    4    4    0    0  0.18194039744E+02 -0.19441391755E+02  0.17340754759E+02  0.31775660043E+02  0.00000000000E+00 0.  1.
         22    1    4    4    0    0  0.65011619476E+00 -0.10996981894E+02  0.13550553775E+02  0.17463498202E+02  0.00000000000E+00 0.  1.
<mgrwt>
<rscale>  0 0.89833716E+02</rscale>
<asrwt>0</asrwt>
<pdfrwt beam="1">  1        1 0.26860465E-01 0.89833716E+02</pdfrwt>
<pdfrwt beam="2">  1       -1 0.17777820E-02 0.89833716E+02</pdfrwt>
<totfact> 0.12004345E+05</totfact>
</mgrwt>
</event>
<event>
 7    1  0.3301067E-009  0.9080119E+02  0.7818608E-02  0.1300923E+00
          1   -1    0    0  501    0  0.00000000000E+00  0.00000000000E+00  0.44729607768E+02  0.44729608052E+02  0.50400000000E-02 0. -1.
         -1   -1    0    0    0  501 -0.00000000000E+00 -0.00000000000E+00 -0.46081646724E+02  0.46081647000E+02  0.50400000000E-02 0.  1.
         23    2    1    2    0    0  0.00000000000E+00  0.00000000000E+00 -0.13520389562E+01  0.90811255052E+02  0.90801189611E+02 0.  0.
    9000005    2    3    3    0    0 -0.29870320107E+02 -0.42840719494E+01  0.32922993681E+02  0.45145434594E+02  0.66028369662E+01 0.  0.
         22    1    3    3    0    0  0.29870320107E+02  0.42840719494E+01 -0.34275032637E+02  0.45665820458E+02  0.00000000000E+00 0.  1.
         22    1    4    4    0    0 -0.68579297792E+01 -0.27128870428E+01  0.11524030709E+02  0.13681894633E+02  0.00000000000E+00 0.  1.
         22    1    4    4    0    0 -0.23012390328E+02 -0.15711849066E+01  0.21398962972E+02  0.31463539961E+02  0.00000000000E+00 0.  1.
<mgrwt>
<rscale>  0 0.90801190E+02</rscale>
<asrwt>0</asrwt>
<pdfrwt beam="1">  1        1 0.68814782E-02 0.90801190E+02</pdfrwt>
<pdfrwt beam="2">  1       -1 0.70894841E-02 0.90801190E+02</pdfrwt>
<totfact> 0.93283215E+04</totfact>
</mgrwt>
</event>
<event>
 7    1  0.3301067E-009  0.8954258E+02  0.7818608E-02  0.1303963E+00
         -1   -1    0    0    0  501 -0.00000000000E+00  0.00000000000E+00  0.24911239198E+01  0.24911290182E+01  0.50400000000E-02 0.  1.
          1   -1    0    0  501    0  0.00000000000E+00 -0.00000000000E+00 -0.80464332332E+03  0.80464332333E+03  0.50400000000E-02 0. -1.
         23    2    1    2    0    0  0.35527136788E-14 -0.17763568394E-14 -0.80215219940E+03  0.80713445235E+03  0.89542577437E+02 0.  0.
    9000005    2    3    3    0    0  0.30334932003E+02 -0.11298223100E+02 -0.67804051160E+03  0.67887078255E+03  0.88738984669E+01 0.  0.
         22    1    3    3    0    0 -0.30334932003E+02  0.11298223100E+02 -0.12411168779E+03  0.12826366980E+03  0.00000000000E+00 0.  1.
         22    1    4    4    0    0  0.10932786153E+02 -0.16875606655E+01 -0.16271346415E+03  0.16308907103E+03  0.00000000000E+00 0. -1.
         22    1    4    4    0    0  0.19402145851E+02 -0.96106624340E+01 -0.51532704745E+03  0.51578171152E+03  0.00000000000E+00 0. -1.
<mgrwt>
<rscale>  0 0.89542577E+02</rscale>
<asrwt>0</asrwt>
<pdfrwt beam="2">  1        1 0.12379107E+00 0.89542577E+02</pdfrwt>
<pdfrwt beam="1">  1       -1 0.38325087E-03 0.89542577E+02</pdfrwt>
<totfact> 0.14813631E+05</totfact>
</mgrwt>
</event>
<event>
 7    1  0.3650740E-009  0.9205769E+02  0.7818608E-02  0.1297944E+00
         -1   -1    0    0    0  501 -0.00000000000E+00  0.00000000000E+00  0.17916435659E+01  0.17916506548E+01  0.50400000000E-02 0.  1.
          1   -1    0    0  501    0  0.00000000000E+00 -0.00000000000E+00 -0.11825177397E+04  0.11825177397E+04  0.50400000000E-02 0. -1.
         23    2    1    2    0    0  0.00000000000E+00 -0.35527136788E-14 -0.11807260961E+04  0.11843093904E+04  0.92057688522E+02 0.  0.
    9000005    2    3    3    0    0  0.34276204210E+01 -0.26460119568E+02 -0.10705303502E+04  0.10709295468E+04  0.11957297278E+02 0.  0.
         22    1    3    3    0    0 -0.34276204210E+01  0.26460119568E+02 -0.11019574591E+03  0.11337984356E+03  0.00000000000E+00 0.  1.
         22    1    4    4    0    0 -0.30710135643E+01 -0.14502818228E+01 -0.12781368574E+03  0.12785879987E+03  0.00000000000E+00 0.  1.
         22    1    4    4    0    0  0.64986339853E+01 -0.25009837745E+02 -0.94271666450E+03  0.94307074695E+03  0.00000000000E+00 0.  1.
<mgrwt>
<rscale>  0 0.92057689E+02</rscale>
<asrwt>0</asrwt>
<pdfrwt beam="2">  1        1 0.18192518E+00 0.92057689E+02</pdfrwt>
<pdfrwt beam="1">  1       -1 0.27563896E-03 0.92057689E+02</pdfrwt>
<totfact> 0.12494788E+05</totfact>
</mgrwt>
</event>
<event>
 7    1  0.3301067E-009  0.9067531E+02  0.7818608E-02  0.1301225E+00
          1   -1    0    0  501    0  0.00000000000E+00  0.00000000000E+00  0.10231714130E+03  0.10231714142E+03  0.50400000000E-02 0. -1.
         -1   -1    0    0    0  501 -0.00000000000E+00 -0.00000000000E+00 -0.20089527718E+02  0.20089528350E+02  0.50400000000E-02 0.  1.
         23    2    1    2    0    0  0.00000000000E+00  0.00000000000E+00  0.82227613578E+02  0.12240666977E+03  0.90675312901E+02 0.  0.
    9000005    2    3    3    0    0  0.15408196006E+02 -0.21043834956E+02 -0.83086381487E+01  0.28188474232E+02  0.67306105106E+01 0.  0.
         22    1    3    3    0    0 -0.15408196006E+02  0.21043834956E+02  0.90536251727E+02  0.94218195539E+02  0.00000000000E+00 0. -1.
         22    1    4    4    0    0  0.48428480993E+01 -0.45336236110E+01  0.59359088899E+00  0.66602755876E+01  0.00000000000E+00 0.  1.
         22    1    4    4    0    0  0.10565347906E+02 -0.16510211345E+02 -0.89022290377E+01  0.21528198645E+02  0.00000000000E+00 0.  1.
<mgrwt>
<rscale>  0 0.90675313E+02</rscale>
<asrwt>0</asrwt>
<pdfrwt beam="1">  1        1 0.15741098E-01 0.90675313E+02</pdfrwt>
<pdfrwt beam="2">  1       -1 0.30906967E-02 0.90675313E+02</pdfrwt>
<totfact> 0.10643763E+05</totfact>
</mgrwt>
</event>
<event>
 7    1  0.3301067E-009  0.9220726E+02  0.7818608E-02  0.1297593E+00
         -1   -1    0    0    0  501 -0.00000000000E+00  0.00000000000E+00  0.13170316286E+02  0.13170317251E+02  0.50400000000E-02 0.  1.
          1   -1    0    0  501    0  0.00000000000E+00 -0.00000000000E+00 -0.16138904151E+03  0.16138904159E+03  0.50400000000E-02 0. -1.
         23    2    1    2    0    0  0.00000000000E+00  0.00000000000E+00 -0.14821872523E+03  0.17455935884E+03  0.92207262467E+02 0.  0.
    9000005    2    3    3    0    0  0.14548093720E+02  0.34609865355E+02 -0.12286360959E+03  0.12925624968E+03  0.14220467962E+02 0.  0.
         22    1    3    3    0    0 -0.14548093720E+02 -0.34609865355E+02 -0.25355115636E+02  0.45303109162E+02  0.00000000000E+00 0. -1.
         22    1    4    4    0    0  0.58024123501E+01  0.12992940976E+02 -0.70697915396E+02  0.72115738544E+02  0.00000000000E+00 0.  1.
         22    1    4    4    0    0  0.87456813699E+01  0.21616924379E+02 -0.52165694196E+02  0.57140511138E+02  0.00000000000E+00 0.  1.
<mgrwt>
<rscale>  0 0.92207262E+02</rscale>
<asrwt>0</asrwt>
<pdfrwt beam="2">  1        1 0.24829082E-01 0.92207262E+02</pdfrwt>
<pdfrwt beam="1">  1       -1 0.20262027E-02 0.92207262E+02</pdfrwt>
<totfact> 0.11026938E+05</totfact>
</mgrwt>
</event>
<event>
 7    1  0.3301067E-009  0.9030018E+02  0.7818608E-02  0.1302126E+00
          1   -1    0    0  501    0  0.00000000000E+00  0.00000000000E+00  0.63943889252E+02  0.63943889450E+02  0.50400000000E-02 0. -1.
         -1   -1    0    0    0  501 -0.00000000000E+00 -0.00000000000E+00 -0.31879993688E+02  0.31879994087E+02  0.50400000000E-02 0.  1.
         23    2    1    2    0    0  0.35527136788E-14 -0.17763568394E-14  0.32063895563E+02  0.95823883537E+02  0.90300184150E+02 0.  0.
    9000005    2    3    3    0    0 -0.27451643421E+02 -0.15780988946E+02 -0.16022496916E+02  0.38248424527E+02  0.14268469880E+02 0.  0.
         22    1    3    3    0    0  0.27451643421E+02  0.15780988946E+02  0.48086392479E+02  0.57575459011E+02  0.00000000000E+00 0. -1.
         22    1    4    4    0    0 -0.23249923026E+02 -0.11436514365E+02 -0.60819582798E+01  0.26614713939E+02  0.00000000000E+00 0. -1.
         22    1    4    4    0    0 -0.42017203950E+01 -0.43444745810E+01 -0.99405386362E+01  0.11633710588E+02  0.00000000000E+00 0. -1.
<mgrwt>
<rscale>  0 0.90300184E+02</rscale>
<asrwt>0</asrwt>
<pdfrwt beam="1">  1        1 0.98375214E-02 0.90300184E+02</pdfrwt>
<pdfrwt beam="2">  1       -1 0.49046145E-02 0.90300184E+02</pdfrwt>
<totfact> 0.99940150E+04</totfact>
</mgrwt>
</event>
<event>
 7    1  0.3301067E-009  0.9189721E+02  0.7818608E-02  0.1298321E+00
         -1   -1    0    0    0  501 -0.00000000000E+00  0.00000000000E+00  0.16492253076E+02  0.16492253846E+02  0.50400000000E-02 0.  1.
          1   -1    0    0  501    0  0.00000000000E+00 -0.00000000000E+00 -0.12801611038E+03  0.12801611048E+03  0.50400000000E-02 0. -1.
         23    2    1    2    0    0  0.00000000000E+00  0.00000000000E+00 -0.11152385731E+03  0.14450836433E+03  0.91897206770E+02 0.  0.
    9000005    2    3    3    0    0 -0.21496832661E+02 -0.40007082743E+02 -0.52513052100E+02  0.70043905589E+02  0.92653972013E+01 0.  0.
         22    1    3    3    0    0  0.21496832661E+02  0.40007082743E+02 -0.59010805209E+02  0.74464458740E+02  0.00000000000E+00 0. -1.
         22    1    4    4    0    0  0.95378756139E+00 -0.14985653207E+01 -0.20926954700E+01  0.27449559310E+01  0.00000000000E+00 0.  1.
         22    1    4    4    0    0 -0.22450620223E+02 -0.38508517422E+02 -0.50420356630E+02  0.67298949658E+02  0.00000000000E+00 0.  1.
<mgrwt>
<rscale>  0 0.91897207E+02</rscale>
<asrwt>0</asrwt>
<pdfrwt beam="2">  1        1 0.19694786E-01 0.91897207E+02</pdfrwt>
<pdfrwt beam="1">  1       -1 0.25372699E-02 0.91897207E+02</pdfrwt>
<totfact> 0.10666865E+05</totfact>
</mgrwt>
</event>
<event>
 7    1  0.3301067E-009  0.9947223E+02  0.7818608E-02  0.1281410E+00
         -1   -1    0    0    0  501 -0.00000000000E+00  0.00000000000E+00  0.67425244162E+01  0.67425262999E+01  0.50400000000E-02 0.  1.
          1   -1    0    0  501    0  0.00000000000E+00 -0.00000000000E+00 -0.36687754841E+03  0.36687754844E+03  0.50400000000E-02 0. -1.
         23    2    1    2    0    0  0.00000000000E+00  0.00000000000E+00 -0.36013502399E+03  0.37362007474E+03  0.99472231025E+02 0.  0.
    9000005    2    3    3    0    0 -0.13922082630E+02 -0.28197392085E+02 -0.32451802598E+03  0.32610704650E+03  0.67036771490E+01 0.  0.
         22    1    3    3    0    0  0.13922082630E+02  0.28197392085E+02 -0.35616998009E+02  0.47513028237E+02  0.00000000000E+00 0.  1.
         22    1    4    4    0    0 -0.28675575777E+01 -0.11776914052E+02 -0.10459746426E+03  0.10529742695E+03  0.00000000000E+00 0. -1.
         22    1    4    4    0    0 -0.11054525052E+02 -0.16420478032E+02 -0.21992056172E+03  0.22080961956E+03  0.00000000000E+00 0. -1.
<mgrwt>
<rscale>  0 0.99472231E+02</rscale>
<asrwt>0</asrwt>
<pdfrwt beam="2">  1        1 0.56442684E-01 0.99472231E+02</pdfrwt>
<pdfrwt beam="1">  1       -1 0.10373119E-02 0.99472231E+02</pdfrwt>
<totfact> 0.10534915E+05</totfact>
</mgrwt>
</event>
<event>
 7    1  0.3301067E-009  0.9171156E+02  0.7818608E-02  0.1298759E+00
         -1   -1    0    0    0  501 -0.00000000000E+00  0.00000000000E+00  0.11987921192E+03  0.11987921203E+03  0.50400000000E-02 0.  1.
          1   -1    0    0  501    0  0.00000000000E+00 -0.00000000000E+00 -0.17540593302E+02  0.17540594026E+02  0.50400000000E-02 0. -1.
         23    2    1    2    0    0  0.00000000000E+00  0.00000000000E+00  0.10233861862E+03  0.13741980605E+03  0.91711559985E+02 0.  0.
    9000005    2    3    3    0    0  0.44389952222E+02  0.66461825716E+00  0.36757279432E+02  0.58224972728E+02  0.82547127315E+01 0.  0.
         22    1    3    3    0    0 -0.44389952222E+02 -0.66461825716E+00  0.65581339187E+02  0.79194833324E+02  0.00000000000E+00 0. -1.
         22    1    4    4    0    0  0.13773782438E+02 -0.14307945844E+01  0.16080260022E+02  0.21221192666E+02  0.00000000000E+00 0. -1.
         22    1    4    4    0    0  0.30616169784E+02  0.20954128416E+01  0.20677019410E+02  0.37003780062E+02  0.00000000000E+00 0. -1.
<mgrwt>
<rscale>  0 0.91711560E+02</rscale>
<asrwt>0</asrwt>
<pdfrwt beam="2">  1        1 0.26985529E-02 0.91711560E+02</pdfrwt>
<pdfrwt beam="1">  1       -1 0.18442955E-01 0.91711560E+02</pdfrwt>
<totfact> 0.77367143E+04</totfact>
</mgrwt>
</event>
<event>
 7    1  0.3301067E-009  0.9123362E+02  0.7818608E-02  0.1299892E+00
          1   -1    0    0  501    0  0.00000000000E+00  0.00000000000E+00  0.54216057734E+02  0.54216057968E+02  0.50400000000E-02 0. -1.
         -1   -1    0    0    0  501 -0.00000000000E+00 -0.00000000000E+00 -0.38381496496E+02  0.38381496827E+02  0.50400000000E-02 0.  1.
         23    2    1    2    0    0  0.00000000000E+00  0.00000000000E+00  0.15834561238E+02  0.92597554795E+02  0.91233622226E+02 0.  0.
    9000005    2    3    3    0    0  0.45162990805E+02 -0.35700043411E+01  0.73866464556E+01  0.46512764098E+02  0.75122572354E+01 0.  0.
         22    1    3    3    0    0 -0.45162990805E+02  0.35700043411E+01  0.84479147823E+01  0.46084790697E+02  0.00000000000E+00 0. -1.
         22    1    4    4    0    0  0.13707845764E+02 -0.15947078187E+01 -0.11843264030E+01  0.13851020091E+02  0.00000000000E+00 0. -1.
         22    1    4    4    0    0  0.31455145040E+02 -0.19752965224E+01  0.85709728586E+01  0.32661744007E+02  0.00000000000E+00 0. -1.
<mgrwt>
<rscale>  0 0.91233622E+02</rscale>
<asrwt>0</asrwt>
<pdfrwt beam="1">  1        1 0.83409320E-02 0.91233622E+02</pdfrwt>
<pdfrwt beam="2">  1       -1 0.59048457E-02 0.91233622E+02</pdfrwt>
<totfact> 0.94745616E+04</totfact>
</mgrwt>
</event>
<event>
 7    1  0.3301067E-009  0.7581085E+02  0.7818608E-02  0.1341378E+00
         -1   -1    0    0    0  501 -0.00000000000E+00  0.00000000000E+00  0.57304131150E+03  0.57304131152E+03  0.50400000000E-02 0.  1.
          1   -1    0    0  501    0  0.00000000000E+00 -0.00000000000E+00 -0.25073579522E+01  0.25073630176E+01  0.50400000000E-02 0. -1.
         23    2    1    2    0    0  0.00000000000E+00  0.00000000000E+00  0.57053395355E+03  0.57554867454E+03  0.75810847598E+02 0.  0.
    9000005    2    3    3    0    0  0.18443896929E+02 -0.31397426416E+02  0.35440377221E+03  0.35637241897E+03  0.85610471327E+01 0.  0.
         22    1    3    3    0    0 -0.18443896929E+02  0.31397426416E+02  0.21613018134E+03  0.21917625557E+03  0.00000000000E+00 0.  1.
         22    1    4    4    0    0  0.13176881527E+02 -0.23062287778E+02  0.21787340901E+03  0.21948649543E+03  0.00000000000E+00 0.  1.
         22    1    4    4    0    0  0.52670154017E+01 -0.83351386377E+01  0.13653036320E+03  0.13688592354E+03  0.00000000000E+00 0.  1.
<mgrwt>
<rscale>  0 0.75810848E+02</rscale>
<asrwt>0</asrwt>
<pdfrwt beam="2">  1        1 0.38574767E-03 0.75810848E+02</pdfrwt>
<pdfrwt beam="1">  1       -1 0.88160226E-01 0.75810848E+02</pdfrwt>
<totfact> 0.69551811E+04</totfact>
</mgrwt>
</event>
<event>
 7    1  0.3301067E-009  0.9086290E+02  0.7818608E-02  0.1300775E+00
         -1   -1    0    0    0  501 -0.00000000000E+00  0.00000000000E+00  0.25354918009E+02  0.25354918510E+02  0.50400000000E-02 0.  1.
          1   -1    0    0  501    0  0.00000000000E+00 -0.00000000000E+00 -0.81404975864E+02  0.81404976020E+02  0.50400000000E-02 0. -1.
         23    2    1    2    0    0  0.71054273576E-14  0.35527136788E-14 -0.56050057854E+02  0.10675989453E+03  0.90862897239E+02 0.  0.
    9000005    2    3    3    0    0  0.38408396355E+02  0.23162910811E+02 -0.31713043996E+02  0.55730338473E+02  0.94036226543E+01 0.  0.
         22    1    3    3    0    0 -0.38408396355E+02 -0.23162910811E+02 -0.24337013858E+02  0.51029556057E+02  0.00000000000E+00 0.  1.
         22    1    4    4    0    0  0.11182195130E+02  0.11243154448E+02 -0.83200893604E+01  0.17907369902E+02  0.00000000000E+00 0.  1.
         22    1    4    4    0    0  0.27226201225E+02  0.11919756364E+02 -0.23392954636E+02  0.37822968571E+02  0.00000000000E+00 0.  1.
<mgrwt>
<rscale>  0 0.90862897E+02</rscale>
<asrwt>0</asrwt>
<pdfrwt beam="2">  1        1 0.12523842E-01 0.90862897E+02</pdfrwt>
<pdfrwt beam="1">  1       -1 0.39007567E-02 0.90862897E+02</pdfrwt>
<totfact> 0.10198197E+05</totfact>
</mgrwt>
</event>
<event>
 7    1  0.3301067E-009  0.9020050E+02  0.7818608E-02  0.1302367E+00
         -1   -1    0    0    0  501 -0.00000000000E+00  0.00000000000E+00  0.55985308455E+02  0.55985308682E+02  0.50400000000E-02 0.  1.
          1   -1    0    0  501    0  0.00000000000E+00 -0.00000000000E+00 -0.36331542232E+02  0.36331542582E+02  0.50400000000E-02 0. -1.
         23    2    1    2    0    0 -0.49960036108E-15 -0.71054273576E-14  0.19653766223E+02  0.92316851264E+02  0.90200501665E+02 0.  0.
    9000005    2    3    3    0    0 -0.22433500027E+00  0.42311430762E+02  0.22392610975E+02  0.49916276151E+02  0.14138532425E+02 0.  0.
         22    1    3    3    0    0  0.22433500027E+00 -0.42311430762E+02 -0.27388447527E+01  0.42400575113E+02  0.00000000000E+00 0. -1.
         22    1    4    4    0    0 -0.48855566182E+01  0.10079784922E+02  0.16953592994E+01  0.11328943936E+02  0.00000000000E+00 0. -1.
         22    1    4    4    0    0  0.46612216179E+01  0.32231645840E+02  0.20697251676E+02  0.38587332215E+02  0.00000000000E+00 0. -1.
<mgrwt>
<rscale>  0 0.90200502E+02</rscale>
<asrwt>0</asrwt>
<pdfrwt beam="2">  1        1 0.55894681E-02 0.90200502E+02</pdfrwt>
<pdfrwt beam="1">  1       -1 0.86131244E-02 0.90200502E+02</pdfrwt>
<totfact> 0.92107003E+04</totfact>
</mgrwt>
</event>
<event>
 7    1  0.3301067E-009  0.9101392E+02  0.7818608E-02  0.1300415E+00
          1   -1    0    0  501    0  0.00000000000E+00  0.00000000000E+00  0.12670967296E+03  0.12670967306E+03  0.50400000000E-02 0. -1.
         -1   -1    0    0    0  501 -0.00000000000E+00 -0.00000000000E+00 -0.16343529505E+02  0.16343530282E+02  0.50400000000E-02 0.  1.
         23    2    1    2    0    0  0.00000000000E+00  0.00000000000E+00  0.11036614346E+03  0.14305320335E+03  0.91013918527E+02 0.  0.
    9000005    2    3    3    0    0  0.40041470784E+02  0.66261105680E+01  0.87501744563E+02  0.96469885938E+02  0.16306034238E+01 0.  0.
         22    1    3    3    0    0 -0.40041470784E+02 -0.66261105680E+01  0.22864398895E+02  0.46583317407E+02  0.00000000000E+00 0.  1.
         22    1    4    4    0    0  0.31878923536E+02  0.46257445889E+01  0.69016971693E+02  0.76164333257E+02  0.00000000000E+00 0. -1.
         22    1    4    4    0    0  0.81625472486E+01  0.20003659792E+01  0.18484772870E+02  0.20305552682E+02  0.00000000000E+00 0. -1.
<mgrwt>
<rscale>  0 0.91013919E+02</rscale>
<asrwt>0</asrwt>
<pdfrwt beam="1">  1        1 0.19493795E-01 0.91013919E+02</pdfrwt>
<pdfrwt beam="2">  1       -1 0.25143893E-02 0.91013919E+02</pdfrwt>
<totfact> 0.10930013E+05</totfact>
</mgrwt>
</event>
<event>
 7    1  0.3301067E-009  0.9111067E+02  0.7818608E-02  0.1300184E+00
         -1   -1    0    0    0  501 -0.00000000000E+00  0.00000000000E+00  0.99421135248E+01  0.99421148023E+01  0.50400000000E-02 0.  1.
          1   -1    0    0  501    0  0.00000000000E+00 -0.00000000000E+00 -0.20873714013E+03  0.20873714019E+03  0.50400000000E-02 0. -1.
         23    2    1    2    0    0  0.00000000000E+00  0.00000000000E+00 -0.19879502661E+03  0.21867925500E+03  0.91110668758E+02 0.  0.
    9000005    2    3    3    0    0 -0.33865157892E+02 -0.11705805362E+02 -0.16656856008E+03  0.17048776256E+03  0.60923868898E+01 0.  0.
         22    1    3    3    0    0  0.33865157892E+02  0.11705805362E+02 -0.32226466531E+02  0.48191492437E+02  0.00000000000E+00 0.  1.
         22    1    4    4    0    0 -0.23200218935E+02 -0.49903327872E+01 -0.10673542327E+03  0.10934168538E+03  0.00000000000E+00 0.  1.
         22    1    4    4    0    0 -0.10664938957E+02 -0.67154725744E+01 -0.59833136807E+02  0.61146077184E+02  0.00000000000E+00 0.  1.
<mgrwt>
<rscale>  0 0.91110669E+02</rscale>
<asrwt>0</asrwt>
<pdfrwt beam="2">  1        1 0.32113403E-01 0.91110669E+02</pdfrwt>
<pdfrwt beam="1">  1       -1 0.15295562E-02 0.91110669E+02</pdfrwt>
<totfact> 0.11962656E+05</totfact>
</mgrwt>
</event>
<event>
 7    1  0.3301067E-009  0.9248045E+02  0.7818608E-02  0.1296954E+00
          1   -1    0    0  501    0  0.00000000000E+00  0.00000000000E+00  0.14338122640E+02  0.14338123526E+02  0.50400000000E-02 0. -1.
         -1   -1    0    0    0  501 -0.00000000000E+00 -0.00000000000E+00 -0.14912401852E+03  0.14912401861E+03  0.50400000000E-02 0.  1.
         23    2    1    2    0    0  0.00000000000E+00  0.00000000000E+00 -0.13478589588E+03  0.16346214213E+03  0.92480452974E+02 0.  0.
    9000005    2    3    3    0    0  0.33256177295E+02 -0.31314742940E+02 -0.56462496527E+02  0.72791632374E+02  0.49012014755E+01 0.  0.
         22    1    3    3    0    0 -0.33256177295E+02  0.31314742940E+02 -0.78323399353E+02  0.90670509759E+02  0.00000000000E+00 0.  1.
         22    1    4    4    0    0  0.10480998153E+01 -0.25431888033E+01 -0.35860134248E+01  0.45194927586E+01  0.00000000000E+00 0.  1.
         22    1    4    4    0    0  0.32208077480E+02 -0.28771554136E+02 -0.52876483103E+02  0.68272139615E+02  0.00000000000E+00 0.  1.
<mgrwt>
<rscale>  0 0.92480453E+02</rscale>
<asrwt>0</asrwt>
<pdfrwt beam="1">  1        1 0.22058652E-02 0.92480453E+02</pdfrwt>
<pdfrwt beam="2">  1       -1 0.22942156E-01 0.92480453E+02</pdfrwt>
<totfact> 0.72178561E+04</totfact>
</mgrwt>
</event>
<event>
 7    1  0.3301067E-009  0.9014418E+02  0.7818608E-02  0.1302503E+00
          1   -1    0    0  501    0  0.00000000000E+00  0.00000000000E+00  0.35911122854E+02  0.35911123208E+02  0.50400000000E-02 0. -1.
         -1   -1    0    0    0  501 -0.00000000000E+00 -0.00000000000E+00 -0.56570029407E+02  0.56570029631E+02  0.50400000000E-02 0.  1.
         23    2    1    2    0    0 -0.88817841970E-15  0.00000000000E+00 -0.20658906553E+02  0.92481152839E+02  0.90144180125E+02 0.  0.
    9000005    2    3    3    0    0 -0.51901912095E+01  0.37403836397E+02  0.13144150889E+02  0.41799482045E+02  0.12183715963E+02 0.  0.
         22    1    3    3    0    0  0.51901912095E+01 -0.37403836397E+02 -0.33803057442E+02  0.50681670793E+02  0.00000000000E+00 0.  1.
         22    1    4    4    0    0  0.39245490231E+01  0.14377183642E+02  0.54126701371E+01  0.15855676981E+02  0.00000000000E+00 0.  1.
         22    1    4    4    0    0 -0.91147402326E+01  0.23026652755E+02  0.77314807523E+01  0.25943805064E+02  0.00000000000E+00 0.  1.
<mgrwt>
<rscale>  0 0.90144180E+02</rscale>
<asrwt>0</asrwt>
<pdfrwt beam="1">  1        1 0.55247882E-02 0.90144180E+02</pdfrwt>
<pdfrwt beam="2">  1       -1 0.87030815E-02 0.90144180E+02</pdfrwt>
<totfact> 0.92106264E+04</totfact>
</mgrwt>
</event>
<event>
 7    1  0.3301067E-009  0.7902153E+02  0.7818608E-02  0.1331851E+00
          1   -1    0    0  501    0  0.00000000000E+00  0.00000000000E+00  0.89348698188E+02  0.89348698330E+02  0.50400000000E-02 0. -1.
         -1   -1    0    0    0  501 -0.00000000000E+00 -0.00000000000E+00 -0.17472000569E+02  0.17472001296E+02  0.50400000000E-02 0.  1.
         23    2    1    2    0    0  0.00000000000E+00  0.00000000000E+00  0.71876697619E+02  0.10682069963E+03  0.79021530028E+02 0.  0.
    9000005    2    3    3    0    0  0.10932355712E+02  0.11494388151E+02 -0.11100232985E+02  0.22341066738E+02  0.11147678247E+02 0.  0.
         22    1    3    3    0    0 -0.10932355712E+02 -0.11494388151E+02  0.82976930604E+02  0.84479632888E+02  0.00000000000E+00 0. -1.
         22    1    4    4    0    0  0.79732231492E+01  0.12636889409E+02 -0.55328981939E+01  0.15933493771E+02  0.00000000000E+00 0.  1.
         22    1    4    4    0    0  0.29591325628E+01 -0.11425012584E+01 -0.55673347911E+01  0.64075729669E+01  0.00000000000E+00 0.  1.
<mgrwt>
<rscale>  0 0.79021530E+02</rscale>
<asrwt>0</asrwt>
<pdfrwt beam="1">  1        1 0.13745953E-01 0.79021530E+02</pdfrwt>
<pdfrwt beam="2">  1       -1 0.26880002E-02 0.79021530E+02</pdfrwt>
<totfact> 0.15106582E+05</totfact>
</mgrwt>
</event>
<event>
 7    1  0.3301067E-009  0.9673938E+02  0.7818608E-02  0.1287306E+00
         -1   -1    0    0    0  501 -0.00000000000E+00  0.00000000000E+00  0.16776402047E+02  0.16776402804E+02  0.50400000000E-02 0.  1.
          1   -1    0    0  501    0  0.00000000000E+00 -0.00000000000E+00 -0.13945940449E+03  0.13945940458E+03  0.50400000000E-02 0. -1.
         23    2    1    2    0    0  0.00000000000E+00  0.00000000000E+00 -0.12268300244E+03  0.15623580738E+03  0.96739384021E+02 0.  0.
    9000005    2    3    3    0    0  0.24798035667E+02 -0.47543471433E+01 -0.12725333970E+03  0.13057583130E+03  0.14801650830E+02 0.  0.
         22    1    3    3    0    0 -0.24798035667E+02  0.47543471433E+01  0.45703372555E+01  0.25659976078E+02  0.00000000000E+00 0.  1.
         22    1    4    4    0    0  0.93329186818E+01 -0.81464303423E+01 -0.73595480424E+02  0.74630841060E+02  0.00000000000E+00 0.  1.
         22    1    4    4    0    0  0.15465116985E+02  0.33920831990E+01 -0.53657859272E+02  0.55944990245E+02  0.00000000000E+00 0.  1.
<mgrwt>
<rscale>  0 0.96739384E+02</rscale>
<asrwt>0</asrwt>
<pdfrwt beam="2">  1        1 0.21455292E-01 0.96739384E+02</pdfrwt>
<pdfrwt beam="1">  1       -1 0.25809851E-02 0.96739384E+02</pdfrwt>
<totfact> 0.94225033E+04</totfact>
</mgrwt>
</event>
<event>
 7    1  0.3301067E-009  0.9173759E+02  0.7818608E-02  0.1298698E+00
         -1   -1    0    0    0  501 -0.00000000000E+00  0.00000000000E+00  0.13220655127E+02  0.13220656088E+02  0.50400000000E-02 0.  1.
          1   -1    0    0  501    0  0.00000000000E+00 -0.00000000000E+00 -0.15914086122E+03  0.15914086130E+03  0.50400000000E-02 0. -1.
         23    2    1    2    0    0 -0.71054273576E-14  0.55511151231E-16 -0.14592020609E+03  0.17236151738E+03  0.91737593874E+02 0.  0.
    9000005    2    3    3    0    0 -0.38831572226E+02 -0.45489882633E+00 -0.32047572120E+02  0.52049112780E+02  0.13189591651E+02 0.  0.
         22    1    3    3    0    0  0.38831572226E+02  0.45489882633E+00 -0.11387263397E+03  0.12031240460E+03  0.00000000000E+00 0. -1.
         22    1    4    4    0    0 -0.73886042718E+00 -0.25776917609E+00 -0.56487251617E+01  0.57026709208E+01  0.00000000000E+00 0.  1.
         22    1    4    4    0    0 -0.38092711799E+02 -0.19712965023E+00 -0.26398846959E+02  0.46346441860E+02  0.00000000000E+00 0.  1.
<mgrwt>
<rscale>  0 0.91737594E+02</rscale>
<asrwt>0</asrwt>
<pdfrwt beam="2">  1        1 0.24483208E-01 0.91737594E+02</pdfrwt>
<pdfrwt beam="1">  1       -1 0.20339471E-02 0.91737594E+02</pdfrwt>
<totfact> 0.11150690E+05</totfact>
</mgrwt>
</event>
<event>
 7    1  0.3301067E-009  0.9362175E+02  0.7818608E-02  0.1294311E+00
         -1   -1    0    0    0  501 -0.00000000000E+00  0.00000000000E+00  0.16391036019E+02  0.16391036794E+02  0.50400000000E-02 0.  1.
          1   -1    0    0  501    0  0.00000000000E+00 -0.00000000000E+00 -0.13368635653E+03  0.13368635663E+03  0.50400000000E-02 0. -1.
         23    2    1    2    0    0  0.71054273576E-14 -0.88817841970E-15 -0.11729532051E+03  0.15007739342E+03  0.93621748551E+02 0.  0.
    9000005    2    3    3    0    0 -0.41919195022E+02  0.69920151104E+01 -0.33104452772E+02  0.55768277225E+02  0.14425282138E+02 0.  0.
         22    1    3    3    0    0  0.41919195022E+02 -0.69920151104E+01 -0.84190867742E+02  0.94309116197E+02  0.00000000000E+00 0. -1.
         22    1    4    4    0    0 -0.35074503874E+02  0.39916548026E+01 -0.32955985567E+02  0.48293385828E+02  0.00000000000E+00 0.  1.
         22    1    4    4    0    0 -0.68446911478E+01  0.30003603078E+01 -0.14846720505E+00  0.74748913969E+01  0.00000000000E+00 0.  1.
<mgrwt>
<rscale>  0 0.93621749E+02</rscale>
<asrwt>0</asrwt>
<pdfrwt beam="2">  1        1 0.20567131E-01 0.93621749E+02</pdfrwt>
<pdfrwt beam="1">  1       -1 0.25216980E-02 0.93621749E+02</pdfrwt>
<totfact> 0.10221060E+05</totfact>
</mgrwt>
</event>
<event>
 7    1  0.3301067E-009  0.9119472E+02  0.7818608E-02  0.1299984E+00
          1   -1    0    0  501    0  0.00000000000E+00  0.00000000000E+00  0.67019833089E+01  0.67019852040E+01  0.50400000000E-02 0. -1.
         -1   -1    0    0    0  501 -0.00000000000E+00 -0.00000000000E+00 -0.31022441688E+03  0.31022441692E+03  0.50400000000E-02 0.  1.
         23    2    1    2    0    0  0.00000000000E+00 -0.88817841970E-15 -0.30352243357E+03  0.31692640213E+03  0.91194718504E+02 0.  0.
    9000005    2    3    3    0    0 -0.44283474516E+02 -0.55242818169E+01 -0.15537868977E+03  0.16220693783E+03  0.13304496994E+02 0.  0.
         22    1    3    3    0    0  0.44283474516E+02  0.55242818169E+01 -0.14814374380E+03  0.15471946430E+03  0.00000000000E+00 0.  1.
         22    1    4    4    0    0  0.13557445627E+00 -0.20033248626E+01 -0.69637900207E+01  0.72474866258E+01  0.00000000000E+00 0.  1.
         22    1    4    4    0    0 -0.44419048972E+02 -0.35209569543E+01 -0.14841489975E+03  0.15495945120E+03  0.00000000000E+00 0.  1.
<mgrwt>
<rscale>  0 0.91194719E+02</rscale>
<asrwt>0</asrwt>
<pdfrwt beam="1">  1        1 0.10310747E-02 0.91194719E+02</pdfrwt>
<pdfrwt beam="2">  1       -1 0.47726822E-01 0.91194719E+02</pdfrwt>
<totfact> 0.59750550E+04</totfact>
</mgrwt>
</event>
<event>
 7    1  0.3301067E-009  0.9266911E+02  0.7818608E-02  0.1296514E+00
         -1   -1    0    0    0  501 -0.00000000000E+00  0.00000000000E+00  0.10598350094E+02  0.10598351292E+02  0.50400000000E-02 0.  1.
          1   -1    0    0  501    0  0.00000000000E+00 -0.00000000000E+00 -0.20256838860E+03  0.20256838866E+03  0.50400000000E-02 0. -1.
         23    2    1    2    0    0  0.35527136788E-14  0.00000000000E+00 -0.19197003851E+03  0.21316673996E+03  0.92669106713E+02 0.  0.
    9000005    2    3    3    0    0  0.31350835477E+02  0.14459561061E+02 -0.26597676969E+02  0.44228965164E+02  0.75373170350E+01 0.  0.
         22    1    3    3    0    0 -0.31350835477E+02 -0.14459561061E+02 -0.16537236154E+03  0.16893777479E+03  0.00000000000E+00 0.  1.
         22    1    4    4    0    0  0.77160588261E+01  0.19910437346E+00 -0.63611268287E+01  0.10002056833E+02  0.00000000000E+00 0.  1.
         22    1    4    4    0    0  0.23634776651E+02  0.14260456687E+02 -0.20236550141E+02  0.34226908331E+02  0.00000000000E+00 0.  1.
<mgrwt>
<rscale>  0 0.92669107E+02</rscale>
<asrwt>0</asrwt>
<pdfrwt beam="2">  1        1 0.31164365E-01 0.92669107E+02</pdfrwt>
<pdfrwt beam="1">  1       -1 0.16305156E-02 0.92669107E+02</pdfrwt>
<totfact> 0.11363553E+05</totfact>
</mgrwt>
</event>
<event>
 7    1  0.3301067E-009  0.9073781E+02  0.7818608E-02  0.1301075E+00
          1   -1    0    0  501    0  0.00000000000E+00  0.00000000000E+00  0.37829197818E+02  0.37829198154E+02  0.50400000000E-02 0. -1.
         -1   -1    0    0    0  501 -0.00000000000E+00 -0.00000000000E+00 -0.54411343810E+02  0.54411344044E+02  0.50400000000E-02 0.  1.
         23    2    1    2    0    0  0.88817841970E-15  0.00000000000E+00 -0.16582145992E+02  0.92240542197E+02  0.90737809424E+02 0.  0.
    9000005    2    3    3    0    0  0.60492033489E+01  0.41104156266E+02 -0.23924409157E+02  0.50049863702E+02  0.14368958890E+02 0.  0.
         22    1    3    3    0    0 -0.60492033489E+01 -0.41104156266E+02  0.73422631648E+01  0.42190678495E+02  0.00000000000E+00 0. -1.
         22    1    4    4    0    0  0.56208394926E+00  0.27467043321E+02 -0.85348676529E+01  0.28768009542E+02  0.00000000000E+00 0.  1.
         22    1    4    4    0    0  0.54871193996E+01  0.13637112945E+02 -0.15389541504E+02  0.21281854160E+02  0.00000000000E+00 0.  1.
<mgrwt>
<rscale>  0 0.90737809E+02</rscale>
<asrwt>0</asrwt>
<pdfrwt beam="1">  1        1 0.58198767E-02 0.90737809E+02</pdfrwt>
<pdfrwt beam="2">  1       -1 0.83709760E-02 0.90737809E+02</pdfrwt>
<totfact> 0.91131874E+04</totfact>
</mgrwt>
</event>
<event>
 7    1  0.3301067E-009  0.8996612E+02  0.7818608E-02  0.1302934E+00
         -1   -1    0    0    0  501 -0.00000000000E+00  0.00000000000E+00  0.11017677115E+04  0.11017677115E+04  0.50400000000E-02 0.  1.
          1   -1    0    0  501    0  0.00000000000E+00 -0.00000000000E+00 -0.18365684437E+01  0.18365753592E+01  0.50400000000E-02 0. -1.
         23    2    1    2    0    0  0.35527136788E-14  0.00000000000E+00  0.10999311430E+04  0.11036042869E+04  0.89966118812E+02 0.  0.
    9000005    2    3    3    0    0  0.31961031339E+02 -0.24589304148E+01  0.93320854527E+03  0.93382802682E+03  0.11359614965E+02 0.  0.
         22    1    3    3    0    0 -0.31961031339E+02  0.24589304148E+01  0.16672259777E+03  0.16977626003E+03  0.00000000000E+00 0. -1.
         22    1    4    4    0    0  0.19511114738E+02 -0.47995160973E+01  0.68703604738E+03  0.68732979664E+03  0.00000000000E+00 0. -1.
         22    1    4    4    0    0  0.12449916602E+02  0.23405856825E+01  0.24617249789E+03  0.24649823018E+03  0.00000000000E+00 0. -1.
<mgrwt>
<rscale>  0 0.89966119E+02</rscale>
<asrwt>0</asrwt>
<pdfrwt beam="2">  1        1 0.28254806E-03 0.89966119E+02</pdfrwt>
<pdfrwt beam="1">  1       -1 0.16950361E+00 0.89966119E+02</pdfrwt>
<totfact> 0.23474388E+04</totfact>
</mgrwt>
</event>
<event>
 7    1  0.3301067E-009  0.9117275E+02  0.7818608E-02  0.1300036E+00
          1   -1    0    0  501    0  0.00000000000E+00  0.00000000000E+00  0.12751621638E+03  0.12751621648E+03  0.50400000000E-02 0. -1.
         -1   -1    0    0    0  501 -0.00000000000E+00 -0.00000000000E+00 -0.16296888305E+02  0.16296889085E+02  0.50400000000E-02 0.  1.
         23    2    1    2    0    0  0.71054273576E-14  0.00000000000E+00  0.11121932807E+03  0.14381310556E+03  0.91172750286E+02 0.  0.
    9000005    2    3    3    0    0 -0.32924780756E+02  0.15054025039E+02  0.16622392901E+02  0.42525174388E+02  0.14880243724E+02 0.  0.
         22    1    3    3    0    0  0.32924780756E+02 -0.15054025039E+02  0.94596935173E+02  0.10128793118E+03  0.00000000000E+00 0.  1.
         22    1    4    4    0    0 -0.22075827591E+02  0.25828308799E+01  0.12455081695E+02  0.25478269941E+02  0.00000000000E+00 0.  1.
         22    1    4    4    0    0 -0.10848953165E+02  0.12471194159E+02  0.41673112066E+01  0.17046904447E+02  0.00000000000E+00 0.  1.
<mgrwt>
<rscale>  0 0.91172750E+02</rscale>
<asrwt>0</asrwt>
<pdfrwt beam="1">  1        1 0.19617880E-01 0.91172750E+02</pdfrwt>
<pdfrwt beam="2">  1       -1 0.25072136E-02 0.91172750E+02</pdfrwt>
<totfact> 0.10890702E+05</totfact>
</mgrwt>
</event>
<event>
 7    1  0.3301067E-009  0.9255130E+02  0.7818608E-02  0.1296788E+00
          1   -1    0    0  501    0  0.00000000000E+00  0.00000000000E+00  0.11547449199E+03  0.11547449210E+03  0.50400000000E-02 0. -1.
         -1   -1    0    0    0  501 -0.00000000000E+00 -0.00000000000E+00 -0.18544664092E+02  0.18544664777E+02  0.50400000000E-02 0.  1.
         23    2    1    2    0    0 -0.35527136788E-14  0.00000000000E+00  0.96929827902E+02  0.13401915688E+03  0.92551298608E+02 0.  0.
    9000005    2    3    3    0    0  0.25016426806E+02 -0.23320601702E+01 -0.39803869348E+01  0.30028140090E+02  0.15955738854E+02 0.  0.
         22    1    3    3    0    0 -0.25016426806E+02  0.23320601702E+01  0.10091021484E+03  0.10399101679E+03  0.00000000000E+00 0.  1.
         22    1    4    4    0    0  0.22898682292E+02 -0.64473119913E+01  0.20240328548E+00  0.23789881247E+02  0.00000000000E+00 0.  1.
         22    1    4    4    0    0  0.21177445134E+01  0.41152518211E+01 -0.41827902202E+01  0.62382588437E+01  0.00000000000E+00 0.  1.
<mgrwt>
<rscale>  0 0.92551299E+02</rscale>
<asrwt>0</asrwt>
<pdfrwt beam="1">  1        1 0.17765306E-01 0.92551299E+02</pdfrwt>
<pdfrwt beam="2">  1       -1 0.28530254E-02 0.92551299E+02</pdfrwt>
<totfact> 0.10275720E+05</totfact>
</mgrwt>
</event>
<event>
 7    1  0.3301067E-009  0.9336834E+02  0.7818608E-02  0.1294894E+00
         -1   -1    0    0    0  501 -0.00000000000E+00  0.00000000000E+00  0.11326997361E+02  0.11326998482E+02  0.50400000000E-02 0.  1.
          1   -1    0    0  501    0  0.00000000000E+00 -0.00000000000E+00 -0.19240857517E+03  0.19240857524E+03  0.50400000000E-02 0. -1.
         23    2    1    2    0    0 -0.71054273576E-14  0.17763568394E-14 -0.18108157781E+03  0.20373557372E+03  0.93368336048E+02 0.  0.
    9000005    2    3    3    0    0  0.41904484280E+02 -0.13973936894E+02 -0.12177861637E+03  0.12978898522E+03  0.79932824498E+01 0.  0.
         22    1    3    3    0    0 -0.41904484280E+02  0.13973936894E+02 -0.59302961441E+02  0.73946588500E+02  0.00000000000E+00 0. -1.
         22    1    4    4    0    0  0.30183290831E+02 -0.12396880821E+02 -0.80860255630E+02  0.87195726042E+02  0.00000000000E+00 0. -1.
         22    1    4    4    0    0  0.11721193449E+02 -0.15770560724E+01 -0.40918360738E+02  0.42593259176E+02  0.00000000000E+00 0. -1.
<mgrwt>
<rscale>  0 0.93368336E+02</rscale>
<asrwt>0</asrwt>
<pdfrwt beam="2">  1        1 0.29601317E-01 0.93368336E+02</pdfrwt>
<pdfrwt beam="1">  1       -1 0.17426152E-02 0.93368336E+02</pdfrwt>
<totfact> 0.11025057E+05</totfact>
</mgrwt>
</event>
<event>
 7    1  0.3301067E-009  0.9238513E+02  0.7818608E-02  0.1297176E+00
         -1   -1    0    0    0  501 -0.00000000000E+00  0.00000000000E+00  0.59372557981E+01  0.59372579373E+01  0.50400000000E-02 0.  1.
          1   -1    0    0  501    0  0.00000000000E+00 -0.00000000000E+00 -0.35938366964E+03  0.35938366968E+03  0.50400000000E-02 0. -1.
         23    2    1    2    0    0  0.00000000000E+00  0.00000000000E+00 -0.35344641384E+03  0.36532092761E+03  0.92385132430E+02 0.  0.
    9000005    2    3    3    0    0 -0.39938389527E+02  0.16562948403E+02 -0.11448938951E+03  0.12248380999E+03  0.50057148756E+01 0.  0.
         22    1    3    3    0    0  0.39938389527E+02 -0.16562948403E+02 -0.23895702434E+03  0.24283711763E+03  0.00000000000E+00 0.  1.
         22    1    4    4    0    0 -0.87656332689E+01  0.34724857151E+01 -0.19570877642E+02  0.21723575565E+02  0.00000000000E+00 0.  1.
         22    1    4    4    0    0 -0.31172756258E+02  0.13090462688E+02 -0.94918511865E+02  0.10076023442E+03  0.00000000000E+00 0.  1.
<mgrwt>
<rscale>  0 0.92385132E+02</rscale>
<asrwt>0</asrwt>
<pdfrwt beam="2">  1        1 0.55289779E-01 0.92385132E+02</pdfrwt>
<pdfrwt beam="1">  1       -1 0.91342441E-03 0.92385132E+02</pdfrwt>
<totfact> 0.12789127E+05</totfact>
</mgrwt>
</event>
<event>
 7    1  0.3301067E-009  0.9161602E+02  0.7818608E-02  0.1298985E+00
         -1   -1    0    0    0  501 -0.00000000000E+00  0.00000000000E+00  0.23104641022E+02  0.23104641572E+02  0.50400000000E-02 0.  1.
          1   -1    0    0  501    0  0.00000000000E+00 -0.00000000000E+00 -0.90820442453E+02  0.90820442592E+02  0.50400000000E-02 0. -1.
         23    2    1    2    0    0  0.00000000000E+00  0.00000000000E+00 -0.67715801431E+02  0.11392508416E+03  0.91616019551E+02 0.  0.
    9000005    2    3    3    0    0 -0.29973020708E+01  0.18578249137E+02  0.17725086998E+02  0.26436338738E+02  0.55286649432E+01 0.  0.
         22    1    3    3    0    0  0.29973020708E+01 -0.18578249137E+02 -0.85440888429E+02  0.87488745426E+02  0.00000000000E+00 0. -1.
         22    1    4    4    0    0 -0.50235368486E+00  0.11555935140E+02  0.75072158248E+01  0.13789499107E+02  0.00000000000E+00 0. -1.
         22    1    4    4    0    0 -0.24949483860E+01  0.70223139968E+01  0.10217871174E+02  0.12646839630E+02  0.00000000000E+00 0. -1.
<mgrwt>
<rscale>  0 0.91616020E+02</rscale>
<asrwt>0</asrwt>
<pdfrwt beam="2">  1        1 0.13972376E-01 0.91616020E+02</pdfrwt>
<pdfrwt beam="1">  1       -1 0.35545603E-02 0.91616020E+02</pdfrwt>
<totfact> 0.10146825E+05</totfact>
</mgrwt>
</event>
<event>
 7    1  0.3301067E-009  0.1061966E+03  0.7818608E-02  0.1267780E+00
         -1   -1    0    0    0  501 -0.00000000000E+00  0.00000000000E+00  0.15560307705E+04  0.15560307705E+04  0.50400000000E-02 0.  1.
          1   -1    0    0  501    0  0.00000000000E+00 -0.00000000000E+00 -0.18119335219E+01  0.18119405314E+01  0.50400000000E-02 0. -1.
         23    2    1    2    0    0  0.00000000000E+00  0.35527136788E-14  0.15542188369E+04  0.15578427110E+04  0.10619660598E+03 0.  0.
    9000005    2    3    3    0    0  0.18763396602E+02  0.30998234126E+02  0.13398112901E+04  0.13403948972E+04  0.15850295807E+02 0.  0.
         22    1    3    3    0    0 -0.18763396602E+02 -0.30998234126E+02  0.21440754687E+03  0.21744781380E+03  0.00000000000E+00 0. -1.
         22    1    4    4    0    0  0.34966651442E+01  0.20665103475E+02  0.77184043125E+03  0.77212494098E+03  0.00000000000E+00 0.  1.
         22    1    4    4    0    0  0.15266731458E+02  0.10333130651E+02  0.56797085881E+03  0.56826995621E+03  0.00000000000E+00 0.  1.
<mgrwt>
<rscale>  0 0.10619661E+03</rscale>
<asrwt>0</asrwt>
<pdfrwt beam="2">  1        1 0.27875880E-03 0.10619661E+03</pdfrwt>
<pdfrwt beam="1">  1       -1 0.23938999E+00 0.10619661E+03</pdfrwt>
<totfact> 0.85530029E+03</totfact>
</mgrwt>
</event>
<event>
 7    1  0.3301067E-009  0.8835029E+02  0.7818608E-02  0.1306897E+00
         -1   -1    0    0    0  501 -0.00000000000E+00  0.00000000000E+00  0.49208903320E+03  0.49208903322E+03  0.50400000000E-02 0.  1.
          1   -1    0    0  501    0  0.00000000000E+00 -0.00000000000E+00 -0.39656295878E+01  0.39656327905E+01  0.50400000000E-02 0. -1.
         23    2    1    2    0    0  0.00000000000E+00 -0.35527136788E-14  0.48812340361E+03  0.49605466601E+03  0.88350294411E+02 0.  0.
    9000005    2    3    3    0    0  0.34821269203E+01 -0.31202797876E+02  0.41589136593E+03  0.41729422499E+03  0.13531524306E+02 0.  0.
         22    1    3    3    0    0 -0.34821269203E+01  0.31202797876E+02  0.72232037679E+02  0.78760441025E+02  0.00000000000E+00 0. -1.
         22    1    4    4    0    0  0.80825048268E+00 -0.76936274981E+01  0.19206731810E+03  0.19222304715E+03  0.00000000000E+00 0.  1.
         22    1    4    4    0    0  0.26738764376E+01 -0.23509170378E+02  0.22382404783E+03  0.22507117784E+03  0.00000000000E+00 0.  1.
<mgrwt>
<rscale>  0 0.88350294E+02</rscale>
<asrwt>0</asrwt>
<pdfrwt beam="2">  1        1 0.61009725E-03 0.88350294E+02</pdfrwt>
<pdfrwt beam="1">  1       -1 0.75705988E-01 0.88350294E+02</pdfrwt>
<totfact> 0.51587743E+04</totfact>
</mgrwt>
</event>
<event>
 7    1  0.3301067E-009  0.9212987E+02  0.7818608E-02  0.1297774E+00
          1   -1    0    0  501    0  0.00000000000E+00  0.00000000000E+00  0.40489371222E+03  0.40489371225E+03  0.50400000000E-02 0. -1.
         -1   -1    0    0    0  501 -0.00000000000E+00 -0.00000000000E+00 -0.52408268891E+01  0.52408293125E+01  0.50400000000E-02 0.  1.
         23    2    1    2    0    0  0.00000000000E+00  0.00000000000E+00  0.39965288533E+03  0.41013454156E+03  0.92129872629E+02 0.  0.
    9000005    2    3    3    0    0 -0.43254767284E+01 -0.36618333171E+02  0.32246594474E+03  0.32459252925E+03  0.40512287250E+01 0.  0.
         22    1    3    3    0    0  0.43254767284E+01  0.36618333171E+02  0.77186940594E+02  0.85542012318E+02  0.00000000000E+00 0.  1.
         22    1    4    4    0    0 -0.42736069777E+00 -0.18974883487E+02  0.17327895737E+03  0.17431530600E+03  0.00000000000E+00 0. -1.
         22    1    4    4    0    0 -0.38981160306E+01 -0.17643449684E+02  0.14918698737E+03  0.15027722324E+03  0.00000000000E+00 0. -1.
<mgrwt>
<rscale>  0 0.92129873E+02</rscale>
<asrwt>0</asrwt>
<pdfrwt beam="1">  1        1 0.62291364E-01 0.92129873E+02</pdfrwt>
<pdfrwt beam="2">  1       -1 0.80628095E-03 0.92129873E+02</pdfrwt>
<totfact> 0.13147485E+05</totfact>
</mgrwt>
</event>
<event>
 7    1  0.3301067E-009  0.1172487E+03  0.7818608E-02  0.1247706E+00
          1   -1    0    0  501    0  0.00000000000E+00  0.00000000000E+00  0.69265466882E+03  0.69265466884E+03  0.50400000000E-02 0. -1.
         -1   -1    0    0    0  501 -0.00000000000E+00 -0.00000000000E+00 -0.49617983038E+01  0.49618008635E+01  0.50400000000E-02 0.  1.
         23    2    1    2    0    0  0.00000000000E+00  0.00000000000E+00  0.68769287051E+03  0.69761646970E+03  0.11724868716E+03 0.  0.
    9000005    2    3    3    0    0 -0.57480531240E+02 -0.83064987868E+01  0.35728242003E+03  0.36214057611E+03  0.11048067965E+02 0.  0.
         22    1    3    3    0    0  0.57480531240E+02  0.83064987868E+01  0.33041045048E+03  0.33547589359E+03  0.00000000000E+00 0.  1.
         22    1    4    4    0    0 -0.30905493389E+01 -0.31286592236E+01  0.21923804157E+02  0.22360527553E+02  0.00000000000E+00 0.  1.
         22    1    4    4    0    0 -0.54389981901E+02 -0.51778395631E+01  0.33535861588E+03  0.33978004855E+03  0.00000000000E+00 0.  1.
<mgrwt>
<rscale>  0 0.11724869E+03</rscale>
<asrwt>0</asrwt>
<pdfrwt beam="1">  1        1 0.10656228E+00 0.11724869E+03</pdfrwt>
<pdfrwt beam="2">  1       -1 0.76335361E-03 0.11724869E+03</pdfrwt>
<totfact> 0.72517845E+04</totfact>
</mgrwt>
</event>
<event>
 7    1  0.3301067E-009  0.9225763E+02  0.7818608E-02  0.1297475E+00
         -1   -1    0    0    0  501 -0.00000000000E+00  0.00000000000E+00  0.46679886158E+03  0.46679886160E+03  0.50400000000E-02 0.  1.
          1   -1    0    0  501    0  0.00000000000E+00 -0.00000000000E+00 -0.45584233367E+01  0.45584261230E+01  0.50400000000E-02 0. -1.
         23    2    1    2    0    0  0.00000000000E+00  0.88817841970E-15  0.46224043824E+03  0.47135728773E+03  0.92257628134E+02 0.  0.
    9000005    2    3    3    0    0  0.22885965129E+02  0.46759589507E+01  0.43306293121E+03  0.43398137424E+03  0.15833471302E+02 0.  0.
         22    1    3    3    0    0 -0.22885965129E+02 -0.46759589507E+01  0.29177507032E+02  0.37375913482E+02  0.00000000000E+00 0. -1.
         22    1    4    4    0    0 -0.17148061536E+00  0.46972305542E+01  0.10766193275E+03  0.10776448926E+03  0.00000000000E+00 0.  1.
         22    1    4    4    0    0  0.23057445744E+02 -0.21271603504E-01  0.32540099845E+03  0.32621688499E+03  0.00000000000E+00 0.  1.
<mgrwt>
<rscale>  0 0.92257628E+02</rscale>
<asrwt>0</asrwt>
<pdfrwt beam="2">  1        1 0.70129613E-03 0.92257628E+02</pdfrwt>
<pdfrwt beam="1">  1       -1 0.71815208E-01 0.92257628E+02</pdfrwt>
<totfact> 0.47522947E+04</totfact>
</mgrwt>
</event>
<event>
 7    1  0.3301067E-009  0.9318596E+02  0.7818608E-02  0.1295315E+00
          1   -1    0    0  501    0  0.00000000000E+00  0.00000000000E+00  0.34094611480E+02  0.34094611852E+02  0.50400000000E-02 0. -1.
         -1   -1    0    0    0  501 -0.00000000000E+00 -0.00000000000E+00 -0.63672981664E+02  0.63672981864E+02  0.50400000000E-02 0.  1.
         23    2    1    2    0    0  0.35527136788E-14  0.00000000000E+00 -0.29578370185E+02  0.97767593716E+02  0.93185956014E+02 0.  0.
    9000005    2    3    3    0    0  0.15515937778E+02  0.12338804670E+02 -0.58606054866E+02  0.62616535357E+02  0.96524819251E+01 0.  0.
         22    1    3    3    0    0 -0.15515937778E+02 -0.12338804670E+02  0.29027684681E+02  0.35151058359E+02  0.00000000000E+00 0. -1.
         22    1    4    4    0    0  0.72756127991E+01  0.33339309311E+00 -0.23735524036E+02  0.24827822978E+02  0.00000000000E+00 0.  1.
         22    1    4    4    0    0  0.82403249788E+01  0.12005411577E+02 -0.34870530830E+02  0.37788712379E+02  0.00000000000E+00 0.  1.
<mgrwt>
<rscale>  0 0.93185956E+02</rscale>
<asrwt>0</asrwt>
<pdfrwt beam="1">  1        1 0.52453249E-02 0.93185956E+02</pdfrwt>
<pdfrwt beam="2">  1       -1 0.97958434E-02 0.93185956E+02</pdfrwt>
<totfact> 0.83119853E+04</totfact>
</mgrwt>
</event>
<event>
 6    1  0.3301067E-009  0.4128734E+02  0.7818608E-02  0.1498946E+00
          1   -1    0    0  501    0  0.00000000000E+00  0.00000000000E+00  0.10130975522E+03  0.10130975535E+03  0.50400000000E-02 0. -1.
         -1   -1    0    0    0  501 -0.00000000000E+00 -0.00000000000E+00 -0.42065137887E+01  0.42065168080E+01  0.50400000000E-02 0.  1.
    9000005    2    1    2    0    0  0.20042378066E+02  0.30940756691E+01  0.44359520549E+02  0.49008128358E+02  0.47706769956E+01 0.  0.
         22    1    1    2    0    0 -0.20042378066E+02 -0.30940756691E+01  0.52743720884E+02  0.56508143798E+02  0.00000000000E+00 0.  1.
         22    1    3    3    0    0  0.13112852862E+01  0.75428007236E+00  0.68680266463E+01  0.70326522411E+01  0.00000000000E+00 0.  1.
         22    1    3    3    0    0  0.18731092779E+02  0.23397955967E+01  0.37491493903E+02  0.41975476117E+02  0.00000000000E+00 0.  1.
<mgrwt>
<rscale>  0 0.41287337E+02</rscale>
<asrwt>0</asrwt>
<pdfrwt beam="1">  1        1 0.15586116E-01 0.41287337E+02</pdfrwt>
<pdfrwt beam="2">  1       -1 0.64715624E-03 0.41287337E+02</pdfrwt>
<totfact> 0.81530147E+05</totfact>
</mgrwt>
</event>
<event>
 7    1  0.3301067E-009  0.8882074E+02  0.7818608E-02  0.1305733E+00
          1   -1    0    0  501    0  0.00000000000E+00  0.00000000000E+00  0.29189120802E+03  0.29189120807E+03  0.50400000000E-02 0. -1.
         -1   -1    0    0    0  501 -0.00000000000E+00 -0.00000000000E+00 -0.67569035358E+01  0.67569054155E+01  0.50400000000E-02 0.  1.
         23    2    1    2    0    0  0.00000000000E+00  0.27755575616E-16  0.28513430449E+03  0.29864811348E+03  0.88820741333E+02 0.  0.
    9000005    2    3    3    0    0  0.41691439557E+02  0.52888857149E-01  0.18787203618E+03  0.19282690688E+03  0.12171076799E+02 0.  0.
         22    1    3    3    0    0 -0.41691439557E+02 -0.52888857149E-01  0.97262268307E+02  0.10582120660E+03  0.00000000000E+00 0. -1.
         22    1    4    4    0    0  0.45431484562E+01  0.30770165633E+01  0.14732033801E+02  0.15720720363E+02  0.00000000000E+00 0. -1.
         22    1    4    4    0    0  0.37148291101E+02 -0.30241277061E+01  0.17314000238E+03  0.17710618652E+03  0.00000000000E+00 0. -1.
<mgrwt>
<rscale>  0 0.88820741E+02</rscale>
<asrwt>0</asrwt>
<pdfrwt beam="1">  1        1 0.44906331E-01 0.88820741E+02</pdfrwt>
<pdfrwt beam="2">  1       -1 0.10395240E-02 0.88820741E+02</pdfrwt>
<totfact> 0.13664574E+05</totfact>
</mgrwt>
</event>
<event>
 7    1  0.3301067E-009  0.9010965E+02  0.7818608E-02  0.1302586E+00
         -1   -1    0    0    0  501 -0.00000000000E+00  0.00000000000E+00  0.16208142470E+03  0.16208142478E+03  0.50400000000E-02 0.  1.
          1   -1    0    0  501    0  0.00000000000E+00 -0.00000000000E+00 -0.12524180820E+02  0.12524181834E+02  0.50400000000E-02 0. -1.
         23    2    1    2    0    0  0.00000000000E+00  0.00000000000E+00  0.14955724388E+03  0.17460560661E+03  0.90109648004E+02 0.  0.
    9000005    2    3    3    0    0  0.22898594982E+02 -0.35662409000E+02  0.48871075713E+02  0.65363409966E+02  0.93723131250E+01 0.  0.
         22    1    3    3    0    0 -0.22898594982E+02  0.35662409000E+02  0.10068616817E+03  0.10924219664E+03  0.00000000000E+00 0.  1.
         22    1    4    4    0    0  0.13234864007E+02 -0.14842896018E+02  0.17486555188E+02  0.26481178219E+02  0.00000000000E+00 0.  1.
         22    1    4    4    0    0  0.96637309750E+01 -0.20819512981E+02  0.31384520525E+02  0.38882231748E+02  0.00000000000E+00 0.  1.
<mgrwt>
<rscale>  0 0.90109648E+02</rscale>
<asrwt>0</asrwt>
<pdfrwt beam="2">  1        1 0.19267973E-02 0.90109648E+02</pdfrwt>
<pdfrwt beam="1">  1       -1 0.24935602E-01 0.90109648E+02</pdfrwt>
<totfact> 0.75688157E+04</totfact>
</mgrwt>
</event>
<event>
 7    1  0.3301067E-009  0.9415760E+02  0.7818608E-02  0.1293085E+00
         -1   -1    0    0    0  501 -0.00000000000E+00  0.00000000000E+00  0.26961926781E+01  0.26961973887E+01  0.50400000000E-02 0.  1.
          1   -1    0    0  501    0  0.00000000000E+00 -0.00000000000E+00 -0.82205226716E+03  0.82205226717E+03  0.50400000000E-02 0. -1.
         23    2    1    2    0    0  0.00000000000E+00  0.00000000000E+00 -0.81935607448E+03  0.82474846456E+03  0.94157596670E+02 0.  0.
    9000005    2    3    3    0    0 -0.88658716405E+01 -0.17276925103E+02 -0.78430061016E+03  0.78467376681E+03  0.14435283431E+02 0.  0.
         22    1    3    3    0    0  0.88658716405E+01  0.17276925103E+02 -0.35055464322E+02  0.40074697750E+02  0.00000000000E+00 0.  1.
         22    1    4    4    0    0 -0.10549931164E+02 -0.10910400064E+02 -0.67770849744E+03  0.67787841489E+03  0.00000000000E+00 0. -1.
         22    1    4    4    0    0  0.16840595239E+01 -0.63665250387E+01 -0.10659211272E+03  0.10679535192E+03  0.00000000000E+00 0. -1.
<mgrwt>
<rscale>  0 0.94157597E+02</rscale>
<asrwt>0</asrwt>
<pdfrwt beam="2">  1        1 0.12646938E+00 0.94157597E+02</pdfrwt>
<pdfrwt beam="1">  1       -1 0.41479989E-03 0.94157597E+02</pdfrwt>
<totfact> 0.12942190E+05</totfact>
</mgrwt>
</event>
<event>
 7    1  0.3301067E-009  0.9107191E+02  0.7818608E-02  0.1300276E+00
         -1   -1    0    0    0  501 -0.00000000000E+00  0.00000000000E+00  0.85502384943E+02  0.85502385092E+02  0.50400000000E-02 0.  1.
          1   -1    0    0  501    0  0.00000000000E+00 -0.00000000000E+00 -0.24251055280E+02  0.24251055803E+02  0.50400000000E-02 0. -1.
         23    2    1    2    0    0 -0.35527136788E-14  0.35527136788E-14  0.61251329663E+02  0.10975344090E+03  0.91071907868E+02 0.  0.
    9000005    2    3    3    0    0  0.31422862310E+02 -0.31567780791E+02  0.28977803674E+02  0.54748881634E+02  0.13183545598E+02 0.  0.
         22    1    3    3    0    0 -0.31422862310E+02  0.31567780791E+02  0.32273525989E+02  0.55004559262E+02  0.00000000000E+00 0. -1.
         22    1    4    4    0    0  0.25498391440E+02 -0.31485665691E+02  0.24883919411E+02  0.47547077252E+02  0.00000000000E+00 0.  1.
         22    1    4    4    0    0  0.59244708703E+01 -0.82115100159E-01  0.40938842637E+01  0.72018043814E+01  0.00000000000E+00 0.  1.
<mgrwt>
<rscale>  0 0.91071908E+02</rscale>
<asrwt>0</asrwt>
<pdfrwt beam="2">  1        1 0.37309317E-02 0.91071908E+02</pdfrwt>
<pdfrwt beam="1">  1       -1 0.13154213E-01 0.91071908E+02</pdfrwt>
<totfact> 0.83939469E+04</totfact>
</mgrwt>
</event>
<event>
 7    1  0.3774930E-009  0.8611462E+02  0.7818608E-02  0.1312543E+00
         -1   -1    0    0    0  501 -0.00000000000E+00  0.00000000000E+00  0.10459897219E+03  0.10459897231E+03  0.50400000000E-02 0.  1.
          1   -1    0    0  501    0  0.00000000000E+00 -0.00000000000E+00 -0.17724188054E+02  0.17724188770E+02  0.50400000000E-02 0. -1.
         23    2    1    2    0    0  0.17763568394E-14  0.88817841970E-15  0.86874784135E+02  0.12232316108E+03  0.86114619074E+02 0.  0.
    9000005    2    3    3    0    0  0.13976870137E+02  0.67396725497E+01  0.99946539918E+02  0.10203407820E+03  0.13448650027E+02 0.  0.
         22    1    3    3    0    0 -0.13976870137E+02 -0.67396725497E+01 -0.13071755783E+02  0.20289082881E+02  0.00000000000E+00 0. -1.
         22    1    4    4    0    0  0.43631471130E+01  0.21480054214E+01  0.72668239129E+01  0.87440099383E+01  0.00000000000E+00 0.  1.
         22    1    4    4    0    0  0.96137230242E+01  0.45916671283E+01  0.92679716005E+02  0.93290068261E+02  0.00000000000E+00 0.  1.
<mgrwt>
<rscale>  0 0.86114619E+02</rscale>
<asrwt>0</asrwt>
<pdfrwt beam="2">  1        1 0.27267982E-02 0.86114619E+02</pdfrwt>
<pdfrwt beam="1">  1       -1 0.16092150E-01 0.86114619E+02</pdfrwt>
<totfact> 0.93459645E+04</totfact>
</mgrwt>
</event>
<event>
 7    1  0.3301067E-009  0.9599840E+02  0.7818608E-02  0.1288943E+00
         -1   -1    0    0    0  501 -0.00000000000E+00  0.00000000000E+00  0.33488443952E+02  0.33488444331E+02  0.50400000000E-02 0.  1.
          1   -1    0    0  501    0  0.00000000000E+00 -0.00000000000E+00 -0.68797556825E+02  0.68797557010E+02  0.50400000000E-02 0. -1.
         23    2    1    2    0    0  0.71054273576E-14 -0.35527136788E-14 -0.35309112873E+02  0.10228600134E+03  0.95998399041E+02 0.  0.
    9000005    2    3    3    0    0  0.32353065579E+02 -0.28284109411E+02 -0.40297007891E+02  0.59024115180E+02  0.36449458609E+01 0.  0.
         22    1    3    3    0    0 -0.32353065579E+02  0.28284109411E+02  0.49878950179E+01  0.43261886161E+02  0.00000000000E+00 0.  1.
         22    1    4    4    0    0  0.18647841613E+02 -0.17606408867E+02 -0.26049795237E+02  0.36555703548E+02  0.00000000000E+00 0.  1.
         22    1    4    4    0    0  0.13705223966E+02 -0.10677700544E+02 -0.14247212655E+02  0.22468411632E+02  0.00000000000E+00 0.  1.
<mgrwt>
<rscale>  0 0.95998399E+02</rscale>
<asrwt>0</asrwt>
<pdfrwt beam="2">  1        1 0.10584239E-01 0.95998399E+02</pdfrwt>
<pdfrwt beam="1">  1       -1 0.51520684E-02 0.95998399E+02</pdfrwt>
<totfact> 0.85304386E+04</totfact>
</mgrwt>
</event>
<event>
 7    1  0.3301067E-009  0.9082872E+02  0.7818608E-02  0.1300857E+00
         -1   -1    0    0    0  501 -0.00000000000E+00  0.00000000000E+00  0.22594248055E+02  0.22594248617E+02  0.50400000000E-02 0.  1.
          1   -1    0    0  501    0  0.00000000000E+00 -0.00000000000E+00 -0.91282697359E+02  0.91282697498E+02  0.50400000000E-02 0. -1.
         23    2    1    2    0    0  0.00000000000E+00  0.00000000000E+00 -0.68688449304E+02  0.11387694611E+03  0.90828716762E+02 0.  0.
    9000005    2    3    3    0    0  0.37961410154E+02 -0.16175103373E+02 -0.13446869925E+02  0.44925262145E+02  0.11608541599E+02 0.  0.
         22    1    3    3    0    0 -0.37961410154E+02  0.16175103373E+02 -0.55241579378E+02  0.68951683969E+02  0.00000000000E+00 0. -1.
         22    1    4    4    0    0  0.10771755825E+02 -0.45657244867E+01  0.15035900804E+01  0.11795649485E+02  0.00000000000E+00 0.  1.
         22    1    4    4    0    0  0.27189654329E+02 -0.11609378887E+02 -0.14950460006E+02  0.33129612661E+02  0.00000000000E+00 0.  1.
<mgrwt>
<rscale>  0 0.90828717E+02</rscale>
<asrwt>0</asrwt>
<pdfrwt beam="2">  1        1 0.14043492E-01 0.90828717E+02</pdfrwt>
<pdfrwt beam="1">  1       -1 0.34760383E-02 0.90828717E+02</pdfrwt>
<totfact> 0.10397775E+05</totfact>
</mgrwt>
</event>
<event>
 7    1  0.3301067E-009  0.1035823E+03  0.7818608E-02  0.1272938E+00
         -1   -1    0    0    0  501 -0.00000000000E+00  0.00000000000E+00  0.80866787405E+01  0.80866803111E+01  0.50400000000E-02 0.  1.
          1   -1    0    0  501    0  0.00000000000E+00 -0.00000000000E+00 -0.33169646269E+03  0.33169646273E+03  0.50400000000E-02 0. -1.
         23    2    1    2    0    0  0.35527136788E-14  0.35527136788E-14 -0.32360978395E+03  0.33978314304E+03  0.10358229591E+03 0.  0.
    9000005    2    3    3    0    0 -0.20713866566E+02 -0.29826564264E+02 -0.28166963651E+03  0.28430644368E+03  0.13178830975E+02 0.  0.
         22    1    3    3    0    0  0.20713866566E+02  0.29826564264E+02 -0.41940147442E+02  0.55476699355E+02  0.00000000000E+00 0.  1.
         22    1    4    4    0    0 -0.12776272886E+02 -0.27272536567E+02 -0.20867500630E+03  0.21083709981E+03  0.00000000000E+00 0. -1.
         22    1    4    4    0    0 -0.79375936806E+01 -0.25540276971E+01 -0.72994630203E+02  0.73469343875E+02  0.00000000000E+00 0. -1.
<mgrwt>
<rscale>  0 0.10358230E+03</rscale>
<asrwt>0</asrwt>
<pdfrwt beam="2">  1        1 0.51030215E-01 0.10358230E+03</pdfrwt>
<pdfrwt beam="1">  1       -1 0.12441048E-02 0.10358230E+03</pdfrwt>
<totfact> 0.92759559E+04</totfact>
</mgrwt>
</event>
<event>
 7    1  0.3301067E-009  0.9161391E+02  0.7818608E-02  0.1298990E+00
          1   -1    0    0  501    0  0.00000000000E+00  0.00000000000E+00  0.78729274304E+02  0.78729274465E+02  0.50400000000E-02 0. -1.
         -1   -1    0    0    0  501 -0.00000000000E+00 -0.00000000000E+00 -0.26651802242E+02  0.26651802719E+02  0.50400000000E-02 0.  1.
         23    2    1    2    0    0  0.35527136788E-14  0.00000000000E+00  0.52077472062E+02  0.10538107718E+03  0.91613909054E+02 0.  0.
    9000005    2    3    3    0    0 -0.30646540041E+02  0.31115348637E+01  0.63979103224E+02  0.72357738618E+02  0.13907718103E+02 0.  0.
         22    1    3    3    0    0  0.30646540041E+02 -0.31115348637E+01 -0.11901631163E+02  0.33023338566E+02  0.00000000000E+00 0.  1.
         22    1    4    4    0    0 -0.23601408411E+01 -0.18810274725E+01  0.10712396293E+01  0.32025120586E+01  0.00000000000E+00 0. -1.
         22    1    4    4    0    0 -0.28286399200E+02  0.49925623362E+01  0.62907863595E+02  0.69155226559E+02  0.00000000000E+00 0. -1.
<mgrwt>
<rscale>  0 0.91613909E+02</rscale>
<asrwt>0</asrwt>
<pdfrwt beam="1">  1        1 0.12112196E-01 0.91613909E+02</pdfrwt>
<pdfrwt beam="2">  1       -1 0.41002773E-02 0.91613909E+02</pdfrwt>
<totfact> 0.99177465E+04</totfact>
</mgrwt>
</event>
<event>
 7    1  0.3301067E-009  0.9049587E+02  0.7818608E-02  0.1301655E+00
          1   -1    0    0  501    0  0.00000000000E+00  0.00000000000E+00  0.19140206354E+02  0.19140207017E+02  0.50400000000E-02 0. -1.
         -1   -1    0    0    0  501 -0.00000000000E+00 -0.00000000000E+00 -0.10696726193E+03  0.10696726205E+03  0.50400000000E-02 0.  1.
         23    2    1    2    0    0 -0.17763568394E-14  0.17763568394E-14 -0.87827055574E+02  0.12610746906E+03  0.90495867657E+02 0.  0.
    9000005    2    3    3    0    0  0.11003763472E+02 -0.14601666382E+02 -0.10134361683E+03  0.10337007916E+03  0.89751390592E+01 0.  0.
         22    1    3    3    0    0 -0.11003763472E+02  0.14601666382E+02  0.13516561255E+02  0.22737389908E+02  0.00000000000E+00 0. -1.
         22    1    4    4    0    0  0.11411613075E+02 -0.84499248342E+01 -0.69845119852E+02  0.71273886591E+02  0.00000000000E+00 0. -1.
         22    1    4    4    0    0 -0.40784960293E+00 -0.61517415477E+01 -0.31498496976E+02  0.32096192565E+02  0.00000000000E+00 0. -1.
<mgrwt>
<rscale>  0 0.90495868E+02</rscale>
<asrwt>0</asrwt>
<pdfrwt beam="1">  1        1 0.29446473E-02 0.90495868E+02</pdfrwt>
<pdfrwt beam="2">  1       -1 0.16456501E-01 0.90495868E+02</pdfrwt>
<totfact> 0.81908462E+04</totfact>
</mgrwt>
</event>
<event>
 7    1  0.3301067E-009  0.9150790E+02  0.7818608E-02  0.1299241E+00
         -1   -1    0    0    0  501 -0.00000000000E+00  0.00000000000E+00  0.69082854338E+01  0.69082872723E+01  0.50400000000E-02 0.  1.
          1   -1    0    0  501    0  0.00000000000E+00 -0.00000000000E+00 -0.30303083719E+03  0.30303083723E+03  0.50400000000E-02 0. -1.
         23    2    1    2    0    0  0.71054273576E-14  0.00000000000E+00 -0.29612255176E+03  0.30993912451E+03  0.91507897145E+02 0.  0.
    9000005    2    3    3    0    0  0.39804893687E+02 -0.18564152155E+02 -0.12330477431E+03  0.13162748297E+03  0.13880547454E+02 0.  0.
         22    1    3    3    0    0 -0.39804893687E+02  0.18564152155E+02 -0.17281777744E+03  0.17831164154E+03  0.00000000000E+00 0. -1.
         22    1    4    4    0    0  0.13575114287E+02 -0.11727753020E+02 -0.63130471613E+02  0.65629874028E+02  0.00000000000E+00 0. -1.
         22    1    4    4    0    0  0.26229779400E+02 -0.68363991344E+01 -0.60174302701E+02  0.65997608942E+02  0.00000000000E+00 0. -1.
<mgrwt>
<rscale>  0 0.91507897E+02</rscale>
<asrwt>0</asrwt>
<pdfrwt beam="2">  1        1 0.46620119E-01 0.91507897E+02</pdfrwt>
<pdfrwt beam="1">  1       -1 0.10628135E-02 0.91507897E+02</pdfrwt>
<totfact> 0.12713272E+05</totfact>
</mgrwt>
</event>
<event>
 7    1  0.3301067E-009  0.9063976E+02  0.7818608E-02  0.1301310E+00
         -1   -1    0    0    0  501 -0.00000000000E+00  0.00000000000E+00  0.12572388748E+02  0.12572389759E+02  0.50400000000E-02 0.  1.
          1   -1    0    0  501    0  0.00000000000E+00 -0.00000000000E+00 -0.16336526012E+03  0.16336526020E+03  0.50400000000E-02 0. -1.
         23    2    1    2    0    0  0.00000000000E+00  0.35527136788E-14 -0.15079287137E+03  0.17593764996E+03  0.90639762884E+02 0.  0.
    9000005    2    3    3    0    0  0.17047855457E+02 -0.26536856094E+02 -0.13789200104E+02  0.35350168124E+02  0.80410347531E+01 0.  0.
         22    1    3    3    0    0 -0.17047855457E+02  0.26536856094E+02 -0.13700367127E+03  0.14058748183E+03  0.00000000000E+00 0. -1.
         22    1    4    4    0    0  0.22346598680E+01 -0.68131786888E+01 -0.63714794600E+01  0.95921248470E+01  0.00000000000E+00 0. -1.
         22    1    4    4    0    0  0.14813195589E+02 -0.19723677405E+02 -0.74177206437E+01  0.25758043277E+02  0.00000000000E+00 0. -1.
<mgrwt>
<rscale>  0 0.90639763E+02</rscale>
<asrwt>0</asrwt>
<pdfrwt beam="2">  1        1 0.25133116E-01 0.90639763E+02</pdfrwt>
<pdfrwt beam="1">  1       -1 0.19342139E-02 0.90639763E+02</pdfrwt>
<totfact> 0.11574677E+05</totfact>
</mgrwt>
</event>
<event>
 7    1  0.3301067E-009  0.9086130E+02  0.7818608E-02  0.1300779E+00
          1   -1    0    0  501    0  0.00000000000E+00  0.00000000000E+00  0.15967658543E+02  0.15967659339E+02  0.50400000000E-02 0. -1.
         -1   -1    0    0    0  501 -0.00000000000E+00 -0.00000000000E+00 -0.12925776731E+03  0.12925776741E+03  0.50400000000E-02 0.  1.
         23    2    1    2    0    0  0.00000000000E+00  0.00000000000E+00 -0.11329010877E+03  0.14522542675E+03  0.90861299955E+02 0.  0.
    9000005    2    3    3    0    0 -0.11271273919E+02 -0.83485097292E+01 -0.12557217849E+03  0.12658170214E+03  0.76036883318E+01 0.  0.
         22    1    3    3    0    0  0.11271273919E+02  0.83485097292E+01  0.12282069723E+02  0.18643724605E+02  0.00000000000E+00 0. -1.
         22    1    4    4    0    0 -0.63597156230E+01 -0.19109413769E+01 -0.33348630343E+02  0.34003364914E+02  0.00000000000E+00 0.  1.
         22    1    4    4    0    0 -0.49115582960E+01 -0.64375683523E+01 -0.92223548148E+02  0.92578337230E+02  0.00000000000E+00 0.  1.
<mgrwt>
<rscale>  0 0.90861300E+02</rscale>
<asrwt>0</asrwt>
<pdfrwt beam="1">  1        1 0.24565630E-02 0.90861300E+02</pdfrwt>
<pdfrwt beam="2">  1       -1 0.19885810E-01 0.90861300E+02</pdfrwt>
<totfact> 0.78016480E+04</totfact>
</mgrwt>
</event>
<event>
 7    1  0.3301067E-009  0.9229444E+02  0.7818608E-02  0.1297389E+00
          1   -1    0    0  501    0  0.00000000000E+00  0.00000000000E+00  0.33185449034E+03  0.33185449038E+03  0.50400000000E-02 0. -1.
         -1   -1    0    0    0  501 -0.00000000000E+00 -0.00000000000E+00 -0.64171672735E+01  0.64171692527E+01  0.50400000000E-02 0.  1.
         23    2    1    2    0    0  0.00000000000E+00  0.00000000000E+00  0.32543732307E+03  0.33827165963E+03  0.92294444388E+02 0.  0.
    9000005    2    3    3    0    0 -0.33823030883E+02 -0.19252166366E+02  0.25180487892E+03  0.25498672607E+03  0.98939422975E+01 0.  0.
         22    1    3    3    0    0  0.33823030883E+02  0.19252166366E+02  0.73632444147E+02  0.83284933565E+02  0.00000000000E+00 0.  1.
         22    1    4    4    0    0 -0.32610249852E+02 -0.19656941092E+02  0.24911852551E+03  0.25201163363E+03  0.00000000000E+00 0. -1.
         22    1    4    4    0    0 -0.12127810308E+01  0.40477472612E+00  0.26863534075E+01  0.29750924418E+01  0.00000000000E+00 0. -1.
<mgrwt>
<rscale>  0 0.92294444E+02</rscale>
<asrwt>0</asrwt>
<pdfrwt beam="1">  1        1 0.51054553E-01 0.92294444E+02</pdfrwt>
<pdfrwt beam="2">  1       -1 0.98725635E-03 0.92294444E+02</pdfrwt>
<totfact> 0.12639738E+05</totfact>
</mgrwt>
</event>
<event>
 6    1  0.3301067E-009  0.1642417E+03  0.7818608E-02  0.1183989E+00
          1   -1    0    0  501    0  0.00000000000E+00  0.00000000000E+00  0.10770253754E+03  0.10770253766E+03  0.50400000000E-02 0. -1.
         -1   -1    0    0    0  501 -0.00000000000E+00 -0.00000000000E+00 -0.62615366359E+02  0.62615366562E+02  0.50400000000E-02 0.  1.
    9000005    2    1    2    0    0 -0.54331199116E+01 -0.29237240653E+02 -0.56102994374E+02  0.64848550197E+02  0.13170172816E+02 0.  0.
         22    1    1    2    0    0  0.54331199116E+01  0.29237240653E+02  0.10119016555E+03  0.10546935402E+03  0.00000000000E+00 0. -1.
         22    1    3    3    0    0 -0.21796248943E+01 -0.19438361303E+01 -0.70196133614E+00  0.30036666424E+01  0.00000000000E+00 0.  1.
         22    1    3    3    0    0 -0.32534950173E+01 -0.27293404522E+02 -0.55401033038E+02  0.61844883555E+02  0.00000000000E+00 0.  1.
<mgrwt>
<rscale>  0 0.16424170E+03</rscale>
<asrwt>0</asrwt>
<pdfrwt beam="1">  1        1 0.16569621E-01 0.16424170E+03</pdfrwt>
<pdfrwt beam="2">  1       -1 0.96331334E-02 0.16424170E+03</pdfrwt>
<totfact> 0.19918766E+04</totfact>
</mgrwt>
</event>
<event>
 7    1  0.3301067E-009  0.9107486E+02  0.7818608E-02  0.1300269E+00
         -1   -1    0    0    0  501 -0.00000000000E+00  0.00000000000E+00  0.66732688009E+02  0.66732688199E+02  0.50400000000E-02 0.  1.
          1   -1    0    0  501    0  0.00000000000E+00 -0.00000000000E+00 -0.31074091176E+02  0.31074091585E+02  0.50400000000E-02 0. -1.
         23    2    1    2    0    0  0.17763568394E-14 -0.17763568394E-14  0.35658596833E+02  0.97806779784E+02  0.91074862853E+02 0.  0.
    9000005    2    3    3    0    0  0.13940248392E+02 -0.14602516083E+02 -0.24148569383E+02  0.34684191656E+02  0.14569685873E+02 0.  0.
         22    1    3    3    0    0 -0.13940248392E+02  0.14602516083E+02  0.59807166216E+02  0.63122588128E+02  0.00000000000E+00 0.  1.
         22    1    4    4    0    0 -0.50450632471E+00 -0.11576592727E+01  0.17289198189E+01  0.21409963483E+01  0.00000000000E+00 0.  1.
         22    1    4    4    0    0  0.14444754716E+02 -0.13444856810E+02 -0.25877489202E+02  0.32543195308E+02  0.00000000000E+00 0.  1.
<mgrwt>
<rscale>  0 0.91074863E+02</rscale>
<asrwt>0</asrwt>
<pdfrwt beam="2">  1        1 0.47806295E-02 0.91074863E+02</pdfrwt>
<pdfrwt beam="1">  1       -1 0.10266567E-01 0.91074863E+02</pdfrwt>
<totfact> 0.87455540E+04</totfact>
</mgrwt>
</event>
<event>
 7    1  0.3301067E-009  0.9090719E+02  0.7818608E-02  0.1300670E+00
          1   -1    0    0  501    0  0.00000000000E+00  0.00000000000E+00  0.26128154299E+03  0.26128154304E+03  0.50400000000E-02 0. -1.
         -1   -1    0    0    0  501 -0.00000000000E+00 -0.00000000000E+00 -0.79072910682E+01  0.79072926744E+01  0.50400000000E-02 0.  1.
         23    2    1    2    0    0  0.00000000000E+00  0.00000000000E+00  0.25337425192E+03  0.26918883571E+03  0.90907192981E+02 0.  0.
    9000005    2    3    3    0    0 -0.11616520194E+02  0.41971728204E+02  0.16387800294E+03  0.16965920147E+03  0.56280802699E+01 0.  0.
         22    1    3    3    0    0  0.11616520194E+02 -0.41971728204E+02  0.89496248983E+02  0.99529634239E+02  0.00000000000E+00 0. -1.
         22    1    4    4    0    0 -0.86548152245E+01  0.24518174234E+02  0.89254458416E+02  0.92964536472E+02  0.00000000000E+00 0. -1.
         22    1    4    4    0    0 -0.29617049696E+01  0.17453553970E+02  0.74623544524E+02  0.76694665002E+02  0.00000000000E+00 0. -1.
<mgrwt>
<rscale>  0 0.90907193E+02</rscale>
<asrwt>0</asrwt>
<pdfrwt beam="1">  1        1 0.40197155E-01 0.90907193E+02</pdfrwt>
<pdfrwt beam="2">  1       -1 0.12165066E-02 0.90907193E+02</pdfrwt>
<totfact> 0.12572991E+05</totfact>
</mgrwt>
</event>
<event>
 7    1  0.3301067E-009  0.9880835E+02  0.7818608E-02  0.1282822E+00
          1   -1    0    0  501    0  0.00000000000E+00  0.00000000000E+00  0.63393331265E+01  0.63393351300E+01  0.50400000000E-02 0. -1.
         -1   -1    0    0    0  501 -0.00000000000E+00 -0.00000000000E+00 -0.38502036418E+03  0.38502036421E+03  0.50400000000E-02 0.  1.
         23    2    1    2    0    0 -0.35527136788E-14  0.00000000000E+00 -0.37868103105E+03  0.39135969934E+03  0.98808354859E+02 0.  0.
    9000005    2    3    3    0    0 -0.28073990008E+02  0.37368320163E+02 -0.12697434253E+03  0.13535032976E+03  0.35619992124E+01 0.  0.
         22    1    3    3    0    0  0.28073990008E+02 -0.37368320163E+02 -0.25170668852E+03  0.25600936958E+03  0.00000000000E+00 0.  1.
         22    1    4    4    0    0 -0.14843121135E+02  0.22214147118E+02 -0.69631952949E+02  0.74581468534E+02  0.00000000000E+00 0.  1.
         22    1    4    4    0    0 -0.13230868873E+02  0.15154173045E+02 -0.57342389581E+02  0.60768861226E+02  0.00000000000E+00 0.  1.
<mgrwt>
<rscale>  0 0.98808355E+02</rscale>
<asrwt>0</asrwt>
<pdfrwt beam="1">  1        1 0.97528248E-03 0.98808355E+02</pdfrwt>
<pdfrwt beam="2">  1       -1 0.59233884E-01 0.98808355E+02</pdfrwt>
<totfact> 0.43968197E+04</totfact>
</mgrwt>
</event>
<event>
 7    1  0.3301067E-009  0.9112454E+02  0.7818608E-02  0.1300151E+00
         -1   -1    0    0    0  501 -0.00000000000E+00  0.00000000000E+00  0.12201266851E+02  0.12201267892E+02  0.50400000000E-02 0.  1.
          1   -1    0    0  501    0  0.00000000000E+00 -0.00000000000E+00 -0.17013972908E+03  0.17013972916E+03  0.50400000000E-02 0. -1.
         23    2    1    2    0    0 -0.17763568394E-14  0.00000000000E+00 -0.15793846223E+03  0.18234099705E+03  0.91124537601E+02 0.  0.
    9000005    2    3    3    0    0 -0.80544968283E+01 -0.32305242046E+02 -0.13972982433E+03  0.14439289990E+03  0.14709933774E+02 0.  0.
         22    1    3    3    0    0  0.80544968283E+01  0.32305242046E+02 -0.18208637896E+02  0.37948097144E+02  0.00000000000E+00 0. -1.
         22    1    4    4    0    0 -0.21309692709E+01 -0.57382912181E+00 -0.21646563262E+01  0.30912856395E+01  0.00000000000E+00 0. -1.
         22    1    4    4    0    0 -0.59235275574E+01 -0.31731412924E+02 -0.13756516801E+03  0.14130161426E+03  0.00000000000E+00 0. -1.
<mgrwt>
<rscale>  0 0.91124538E+02</rscale>
<asrwt>0</asrwt>
<pdfrwt beam="2">  1        1 0.26175341E-01 0.91124538E+02</pdfrwt>
<pdfrwt beam="1">  1       -1 0.18771182E-02 0.91124538E+02</pdfrwt>
<totfact> 0.11497075E+05</totfact>
</mgrwt>
</event>
<event>
 7    1  0.3301067E-009  0.9202757E+02  0.7818608E-02  0.1298015E+00
         -1   -1    0    0    0  501 -0.00000000000E+00  0.00000000000E+00  0.36168167091E+02  0.36168167443E+02  0.50400000000E-02 0.  1.
          1   -1    0    0  501    0  0.00000000000E+00 -0.00000000000E+00 -0.58539548233E+02  0.58539548450E+02  0.50400000000E-02 0. -1.
         23    2    1    2    0    0  0.00000000000E+00  0.00000000000E+00 -0.22371381141E+02  0.94707715892E+02  0.92027565193E+02 0.  0.
    9000005    2    3    3    0    0  0.33768852935E+02 -0.26367780131E+01 -0.42452838803E+02  0.55330654439E+02  0.10580631903E+02 0.  0.
         22    1    3    3    0    0 -0.33768852935E+02  0.26367780131E+01  0.20081457661E+02  0.39377061453E+02  0.00000000000E+00 0.  1.
         22    1    4    4    0    0  0.16860553212E+02  0.14043061779E+01 -0.28038347082E+02  0.32747507349E+02  0.00000000000E+00 0. -1.
         22    1    4    4    0    0  0.16908299723E+02 -0.40410841910E+01 -0.14414491720E+02  0.22583147091E+02  0.00000000000E+00 0. -1.
<mgrwt>
<rscale>  0 0.92027565E+02</rscale>
<asrwt>0</asrwt>
<pdfrwt beam="2">  1        1 0.90060844E-02 0.92027565E+02</pdfrwt>
<pdfrwt beam="1">  1       -1 0.55643334E-02 0.92027565E+02</pdfrwt>
<totfact> 0.93564721E+04</totfact>
</mgrwt>
</event>
<event>
 7    1  0.3301067E-009  0.8994175E+02  0.7818608E-02  0.1302993E+00
         -1   -1    0    0    0  501 -0.00000000000E+00  0.00000000000E+00  0.91825410641E+01  0.91825424472E+01  0.50400000000E-02 0.  1.
          1   -1    0    0  501    0  0.00000000000E+00 -0.00000000000E+00 -0.22024178473E+03  0.22024178479E+03  0.50400000000E-02 0. -1.
         23    2    1    2    0    0 -0.35527136788E-14  0.00000000000E+00 -0.21105924367E+03  0.22942432724E+03  0.89941745538E+02 0.  0.
    9000005    2    3    3    0    0  0.21935046129E+02  0.23486602894E+02 -0.18426014174E+03  0.18757986968E+03  0.14200032050E+02 0.  0.
         22    1    3    3    0    0 -0.21935046129E+02 -0.23486602894E+02 -0.26799101926E+02  0.41844457557E+02  0.00000000000E+00 0.  1.
         22    1    4    4    0    0  0.18360480284E+02  0.11722929713E+02 -0.94295869568E+02  0.96779364199E+02  0.00000000000E+00 0.  1.
         22    1    4    4    0    0  0.35745658451E+01  0.11763673181E+02 -0.89964272177E+02  0.90800505484E+02  0.00000000000E+00 0.  1.
<mgrwt>
<rscale>  0 0.89941746E+02</rscale>
<asrwt>0</asrwt>
<pdfrwt beam="2">  1        1 0.33883348E-01 0.89941746E+02</pdfrwt>
<pdfrwt beam="1">  1       -1 0.14126989E-02 0.89941746E+02</pdfrwt>
<totfact> 0.12513008E+05</totfact>
</mgrwt>
</event>
<event>
 7    1  0.3301067E-009  0.9024295E+02  0.7818608E-02  0.1302264E+00
          1   -1    0    0  501    0  0.00000000000E+00  0.00000000000E+00  0.66000929244E+02  0.66000929437E+02  0.50400000000E-02 0. -1.
         -1   -1    0    0    0  501 -0.00000000000E+00 -0.00000000000E+00 -0.30847252824E+02  0.30847253236E+02  0.50400000000E-02 0.  1.
         23    2    1    2    0    0  0.00000000000E+00  0.00000000000E+00  0.35153676420E+02  0.96848182673E+02  0.90242947210E+02 0.  0.
    9000005    2    3    3    0    0 -0.17918386593E+02 -0.63334451322E+01 -0.24471050174E+02  0.34267921195E+02  0.14638204161E+02 0.  0.
         22    1    3    3    0    0  0.17918386593E+02  0.63334451322E+01  0.59624726594E+02  0.62580261478E+02  0.00000000000E+00 0. -1.
         22    1    4    4    0    0 -0.13412762752E+02  0.89007324991E+00 -0.77808160693E+01  0.15531758875E+02  0.00000000000E+00 0. -1.
         22    1    4    4    0    0 -0.45056238403E+01 -0.72235183821E+01 -0.16690234104E+02  0.18736162320E+02  0.00000000000E+00 0. -1.
<mgrwt>
<rscale>  0 0.90242947E+02</rscale>
<asrwt>0</asrwt>
<pdfrwt beam="1">  1        1 0.10153989E-01 0.90242947E+02</pdfrwt>
<pdfrwt beam="2">  1       -1 0.47457313E-02 0.90242947E+02</pdfrwt>
<totfact> 0.10059711E+05</totfact>
</mgrwt>
</event>
<event>
 7    1  0.3301067E-009  0.9080390E+02  0.7818608E-02  0.1300917E+00
          1   -1    0    0  501    0  0.00000000000E+00  0.00000000000E+00  0.45776778283E+03  0.45776778286E+03  0.50400000000E-02 0. -1.
         -1   -1    0    0    0  501 -0.00000000000E+00 -0.00000000000E+00 -0.45030177026E+01  0.45030205231E+01  0.50400000000E-02 0.  1.
         23    2    1    2    0    0  0.00000000000E+00  0.00000000000E+00  0.45326476513E+03  0.46227080338E+03  0.90803900535E+02 0.  0.
    9000005    2    3    3    0    0 -0.24162924145E+02 -0.19199993833E+02  0.39463087254E+03  0.39601055869E+03  0.11762243256E+02 0.  0.
         22    1    3    3    0    0  0.24162924145E+02  0.19199993833E+02  0.58633892587E+02  0.66260244690E+02  0.00000000000E+00 0.  1.
         22    1    4    4    0    0 -0.16597632564E+02 -0.12660430917E+02  0.19165525863E+03  0.19278876025E+03  0.00000000000E+00 0. -1.
         22    1    4    4    0    0 -0.75652915812E+01 -0.65395629160E+01  0.20297561391E+03  0.20322179844E+03  0.00000000000E+00 0. -1.
<mgrwt>
<rscale>  0 0.90803901E+02</rscale>
<asrwt>0</asrwt>
<pdfrwt beam="1">  1        1 0.70425743E-01 0.90803901E+02</pdfrwt>
<pdfrwt beam="2">  1       -1 0.69277287E-03 0.90803901E+02</pdfrwt>
<totfact> 0.13919355E+05</totfact>
</mgrwt>
</event>
<event>
 7    1  0.3301067E-009  0.9222659E+02  0.7818608E-02  0.1297548E+00
          1   -1    0    0  501    0  0.00000000000E+00  0.00000000000E+00  0.88905421509E+02  0.88905421652E+02  0.50400000000E-02 0. -1.
         -1   -1    0    0    0  501 -0.00000000000E+00 -0.00000000000E+00 -0.23917957333E+02  0.23917957864E+02  0.50400000000E-02 0.  1.
         23    2    1    2    0    0  0.00000000000E+00  0.35527136788E-14  0.64987464176E+02  0.11282337952E+03  0.92226593048E+02 0.  0.
    9000005    2    3    3    0    0  0.24877944959E+02  0.26783407842E+02  0.66640419301E+02  0.76231094241E+02  0.58284786644E+01 0.  0.
         22    1    3    3    0    0 -0.24877944959E+02 -0.26783407842E+02 -0.16529551244E+01  0.36592285275E+02  0.00000000000E+00 0.  1.
         22    1    4    4    0    0  0.13797038999E+02  0.11082797745E+02  0.29123289571E+02  0.34078625067E+02  0.00000000000E+00 0.  1.
         22    1    4    4    0    0  0.11080905960E+02  0.15700610097E+02  0.37517129729E+02  0.42152469174E+02  0.00000000000E+00 0.  1.
<mgrwt>
<rscale>  0 0.92226593E+02</rscale>
<asrwt>0</asrwt>
<pdfrwt beam="1">  1        1 0.13677757E-01 0.92226593E+02</pdfrwt>
<pdfrwt beam="2">  1       -1 0.36796857E-02 0.92226593E+02</pdfrwt>
<totfact> 0.99293003E+04</totfact>
</mgrwt>
</event>
<event>
 7    1  0.3301067E-009  0.9285062E+02  0.7818608E-02  0.1296092E+00
         -1   -1    0    0    0  501 -0.00000000000E+00  0.00000000000E+00  0.30181430126E+02  0.30181430547E+02  0.50400000000E-02 0.  1.
          1   -1    0    0  501    0  0.00000000000E+00 -0.00000000000E+00 -0.71411773420E+02  0.71411773598E+02  0.50400000000E-02 0. -1.
         23    2    1    2    0    0  0.00000000000E+00  0.00000000000E+00 -0.41230343294E+02  0.10159320414E+03  0.92850621539E+02 0.  0.
    9000005    2    3    3    0    0 -0.17237588951E+02  0.35485719738E+02 -0.47377739951E+02  0.61666255052E+02  0.13061359395E+01 0.  0.
         22    1    3    3    0    0  0.17237588951E+02 -0.35485719738E+02  0.61473966574E+01  0.39926949093E+02  0.00000000000E+00 0.  1.
         22    1    4    4    0    0 -0.10218622580E+02  0.20809293844E+02 -0.26843787818E+02  0.35468801814E+02  0.00000000000E+00 0. -1.
         22    1    4    4    0    0 -0.70189663708E+01  0.14676425894E+02 -0.20533952133E+02  0.26197453238E+02  0.00000000000E+00 0. -1.
<mgrwt>
<rscale>  0 0.92850622E+02</rscale>
<asrwt>0</asrwt>
<pdfrwt beam="2">  1        1 0.10986427E-01 0.92850622E+02</pdfrwt>
<pdfrwt beam="1">  1       -1 0.46432970E-02 0.92850622E+02</pdfrwt>
<totfact> 0.94121947E+04</totfact>
</mgrwt>
</event>
<event>
 7    1  0.3301067E-009  0.9441008E+02  0.7818608E-02  0.1292510E+00
          1   -1    0    0  501    0  0.00000000000E+00  0.00000000000E+00  0.11071133099E+03  0.11071133110E+03  0.50400000000E-02 0. -1.
         -1   -1    0    0    0  501 -0.00000000000E+00 -0.00000000000E+00 -0.20127258628E+02  0.20127259259E+02  0.50400000000E-02 0.  1.
         23    2    1    2    0    0  0.17763568394E-14  0.71054273576E-14  0.90584072360E+02  0.13083859036E+03  0.94410076596E+02 0.  0.
    9000005    2    3    3    0    0  0.14436370401E+02  0.44526407741E+02  0.47842399755E+02  0.67451995930E+02  0.83586340934E+01 0.  0.
         22    1    3    3    0    0 -0.14436370401E+02 -0.44526407741E+02  0.42741672606E+02  0.63386594433E+02  0.00000000000E+00 0. -1.
         22    1    4    4    0    0  0.14779274748E+02  0.38669462646E+02  0.44136118771E+02  0.60512406030E+02  0.00000000000E+00 0. -1.
         22    1    4    4    0    0 -0.34290434719E+00  0.58569450954E+01  0.37062809838E+01  0.69395898994E+01  0.00000000000E+00 0. -1.
<mgrwt>
<rscale>  0 0.94410077E+02</rscale>
<asrwt>0</asrwt>
<pdfrwt beam="1">  1        1 0.17032512E-01 0.94410077E+02</pdfrwt>
<pdfrwt beam="2">  1       -1 0.30965015E-02 0.94410077E+02</pdfrwt>
<totfact> 0.96625362E+04</totfact>
</mgrwt>
</event>
<event>
 7    1  0.3301067E-009  0.9923127E+02  0.7818608E-02  0.1281921E+00
          1   -1    0    0  501    0  0.00000000000E+00  0.00000000000E+00  0.41052155301E+02  0.41052155610E+02  0.50400000000E-02 0. -1.
         -1   -1    0    0    0  501 -0.00000000000E+00 -0.00000000000E+00 -0.59965450253E+02  0.59965450465E+02  0.50400000000E-02 0.  1.
         23    2    1    2    0    0  0.00000000000E+00  0.00000000000E+00 -0.18913294952E+02  0.10101760608E+03  0.99231265291E+02 0.  0.
    9000005    2    3    3    0    0 -0.42086217223E+02  0.13919398849E+02  0.12621721634E+02  0.46616718072E+02  0.69865014381E+01 0.  0.
         22    1    3    3    0    0  0.42086217223E+02 -0.13919398849E+02 -0.31535016587E+02  0.54400888003E+02  0.00000000000E+00 0.  1.
         22    1    4    4    0    0 -0.22763700981E+02  0.39708651969E+01  0.55861594303E+01  0.23773073633E+02  0.00000000000E+00 0. -1.
         22    1    4    4    0    0 -0.19322516242E+02  0.99485336519E+01  0.70355622041E+01  0.22843644439E+02  0.00000000000E+00 0. -1.
<mgrwt>
<rscale>  0 0.99231265E+02</rscale>
<asrwt>0</asrwt>
<pdfrwt beam="1">  1        1 0.63157162E-02 0.99231265E+02</pdfrwt>
<pdfrwt beam="2">  1       -1 0.92254540E-02 0.99231265E+02</pdfrwt>
<totfact> 0.71546387E+04</totfact>
</mgrwt>
</event>
<event>
 7    1  0.3301067E-009  0.8432131E+02  0.7818608E-02  0.1317217E+00
         -1   -1    0    0    0  501 -0.00000000000E+00  0.00000000000E+00  0.40315949936E+02  0.40315950251E+02  0.50400000000E-02 0.  1.
          1   -1    0    0  501    0  0.00000000000E+00 -0.00000000000E+00 -0.44089764656E+02  0.44089764944E+02  0.50400000000E-02 0. -1.
         23    2    1    2    0    0  0.00000000000E+00  0.00000000000E+00 -0.37738147201E+01  0.84405715196E+02  0.84321308577E+02 0.  0.
    9000005    2    3    3    0    0  0.29293763710E+02 -0.25474170032E+02 -0.14774938603E+02  0.44056208906E+02  0.14683078743E+02 0.  0.
         22    1    3    3    0    0 -0.29293763710E+02  0.25474170032E+02  0.11001123883E+02  0.40349506289E+02  0.00000000000E+00 0.  1.
         22    1    4    4    0    0 -0.85258312562E+00 -0.48009091319E+00 -0.30130894571E+01  0.31679793793E+01  0.00000000000E+00 0. -1.
         22    1    4    4    0    0  0.30146346836E+02 -0.24994079119E+02 -0.11761849145E+02  0.40888229527E+02  0.00000000000E+00 0. -1.
<mgrwt>
<rscale>  0 0.84321309E+02</rscale>
<asrwt>0</asrwt>
<pdfrwt beam="2">  1        1 0.67830408E-02 0.84321309E+02</pdfrwt>
<pdfrwt beam="1">  1       -1 0.62024539E-02 0.84321309E+02</pdfrwt>
<totfact> 0.11444110E+05</totfact>
</mgrwt>
</event>
<event>
 7    1  0.3301067E-009  0.1114966E+03  0.7818608E-02  0.1257823E+00
         -1   -1    0    0    0  501 -0.00000000000E+00  0.00000000000E+00  0.41647967824E+02  0.41647968129E+02  0.50400000000E-02 0.  1.
          1   -1    0    0  501    0  0.00000000000E+00 -0.00000000000E+00 -0.74622395655E+02  0.74622395825E+02  0.50400000000E-02 0. -1.
         23    2    1    2    0    0  0.00000000000E+00  0.00000000000E+00 -0.32974427831E+02  0.11627036395E+03  0.11149656785E+03 0.  0.
    9000005    2    3    3    0    0 -0.23084141743E+02 -0.28049719127E+02 -0.60154384550E+02  0.70900612022E+02  0.94171365863E+01 0.  0.
         22    1    3    3    0    0  0.23084141743E+02  0.28049719127E+02  0.27179956719E+02  0.45369751931E+02  0.00000000000E+00 0.  1.
         22    1    4    4    0    0 -0.30363987745E+01 -0.93350453411E+01 -0.12213567631E+02  0.15669525306E+02  0.00000000000E+00 0. -1.
         22    1    4    4    0    0 -0.20047742968E+02 -0.18714673786E+02 -0.47940816919E+02  0.55231086716E+02  0.00000000000E+00 0. -1.
<mgrwt>
<rscale>  0 0.11149657E+03</rscale>
<asrwt>0</asrwt>
<pdfrwt beam="2">  1        1 0.11480369E-01 0.11149657E+03</pdfrwt>
<pdfrwt beam="1">  1       -1 0.64073797E-02 0.11149657E+03</pdfrwt>
<totfact> 0.56807534E+04</totfact>
</mgrwt>
</event>
<event>
 7    1  0.3301067E-009  0.9363977E+02  0.7818608E-02  0.1294269E+00
          1   -1    0    0  501    0  0.00000000000E+00  0.00000000000E+00  0.72230862090E+03  0.72230862091E+03  0.50400000000E-02 0. -1.
         -1   -1    0    0    0  501 -0.00000000000E+00 -0.00000000000E+00 -0.30348527997E+01  0.30348569846E+01  0.50400000000E-02 0.  1.
         23    2    1    2    0    0  0.00000000000E+00  0.00000000000E+00  0.71927376810E+03  0.72534347790E+03  0.93639774978E+02 0.  0.
    9000005    2    3    3    0    0 -0.38990914892E+02 -0.23389718181E+01  0.55645067704E+03  0.55790058849E+03  0.94841142226E+01 0.  0.
         22    1    3    3    0    0  0.38990914892E+02  0.23389718181E+01  0.16282309106E+03  0.16744288941E+03  0.00000000000E+00 0.  1.
         22    1    4    4    0    0 -0.21906168040E+01 -0.25727767966E+01  0.51324662741E+02  0.51435775370E+02  0.00000000000E+00 0.  1.
         22    1    4    4    0    0 -0.36800298088E+02  0.23380497849E+00  0.50512601430E+03  0.50646481312E+03  0.00000000000E+00 0.  1.
<mgrwt>
<rscale>  0 0.93639775E+02</rscale>
<asrwt>0</asrwt>
<pdfrwt beam="1">  1        1 0.11112459E+00 0.93639775E+02</pdfrwt>
<pdfrwt beam="2">  1       -1 0.46689996E-03 0.93639775E+02</pdfrwt>
<totfact> 0.13241353E+05</totfact>
</mgrwt>
</event>
<event>
 7    1  0.3301067E-009  0.9240914E+02  0.7818608E-02  0.1297120E+00
         -1   -1    0    0    0  501 -0.00000000000E+00  0.00000000000E+00  0.18308460416E+02  0.18308461109E+02  0.50400000000E-02 0.  1.
          1   -1    0    0  501    0  0.00000000000E+00 -0.00000000000E+00 -0.11660522838E+03  0.11660522849E+03  0.50400000000E-02 0. -1.
         23    2    1    2    0    0 -0.88817841970E-15  0.71054273576E-14 -0.98296767961E+02  0.13491368959E+03  0.92409139421E+02 0.  0.
    9000005    2    3    3    0    0 -0.55745058521E+01  0.44407696409E+02 -0.60411259368E+02  0.76275558850E+02  0.12857760443E+02 0.  0.
         22    1    3    3    0    0  0.55745058521E+01 -0.44407696409E+02 -0.37885508593E+02  0.58638130744E+02  0.00000000000E+00 0. -1.
         22    1    4    4    0    0  0.19177564407E+01  0.12386424947E+02 -0.97645766362E+01  0.15888620759E+02  0.00000000000E+00 0.  1.
         22    1    4    4    0    0 -0.74922622927E+01  0.32021271462E+02 -0.50646682731E+02  0.60386938091E+02  0.00000000000E+00 0.  1.
<mgrwt>
<rscale>  0 0.92409139E+02</rscale>
<asrwt>0</asrwt>
<pdfrwt beam="2">  1        1 0.17939266E-01 0.92409139E+02</pdfrwt>
<pdfrwt beam="1">  1       -1 0.28166863E-02 0.92409139E+02</pdfrwt>
<totfact> 0.10336239E+05</totfact>
</mgrwt>
</event>
<event>
 7    1  0.3301067E-009  0.1040781E+03  0.7818608E-02  0.1271947E+00
         -1   -1    0    0    0  501 -0.00000000000E+00  0.00000000000E+00  0.28892008744E+02  0.28892009183E+02  0.50400000000E-02 0.  1.
          1   -1    0    0  501    0  0.00000000000E+00 -0.00000000000E+00 -0.93730468739E+02  0.93730468874E+02  0.50400000000E-02 0. -1.
         23    2    1    2    0    0  0.00000000000E+00  0.00000000000E+00 -0.64838459995E+02  0.12262247806E+03  0.10407807757E+03 0.  0.
    9000005    2    3    3    0    0  0.34962514257E+02 -0.38136828316E+02 -0.38793812929E+02  0.64699091434E+02  0.20536391271E+01 0.  0.
         22    1    3    3    0    0 -0.34962514257E+02  0.38136828316E+02 -0.26044647066E+02  0.57923386623E+02  0.00000000000E+00 0.  1.
         22    1    4    4    0    0  0.79096427215E+01 -0.92642439870E+01 -0.81973778200E+01  0.14682835821E+02  0.00000000000E+00 0. -1.
         22    1    4    4    0    0  0.27052871535E+02 -0.28872584329E+02 -0.30596435109E+02  0.50016255613E+02  0.00000000000E+00 0. -1.
<mgrwt>
<rscale>  0 0.10407808E+03</rscale>
<asrwt>0</asrwt>
<pdfrwt beam="2">  1        1 0.14420072E-01 0.10407808E+03</pdfrwt>
<pdfrwt beam="1">  1       -1 0.44449245E-02 0.10407808E+03</pdfrwt>
<totfact> 0.71748744E+04</totfact>
</mgrwt>
</event>
<event>
 7    1  0.3301067E-009  0.9447457E+02  0.7818608E-02  0.1292364E+00
          1   -1    0    0  501    0  0.00000000000E+00  0.00000000000E+00  0.76112989359E+02  0.76112989526E+02  0.50400000000E-02 0. -1.
         -1   -1    0    0    0  501 -0.00000000000E+00 -0.00000000000E+00 -0.29316430358E+02  0.29316430792E+02  0.50400000000E-02 0.  1.
         23    2    1    2    0    0  0.00000000000E+00  0.00000000000E+00  0.46796559001E+02  0.10542942032E+03  0.94474571892E+02 0.  0.
    9000005    2    3    3    0    0 -0.40029417270E+02  0.16486753194E+02  0.43232812454E+02  0.61991331418E+02  0.99840783460E+01 0.  0.
         22    1    3    3    0    0  0.40029417270E+02 -0.16486753194E+02  0.35637465471E+01  0.43438088900E+02  0.00000000000E+00 0.  1.
         22    1    4    4    0    0 -0.18462508277E+02  0.64439484000E+01  0.26375926199E+02  0.32834100653E+02  0.00000000000E+00 0. -1.
         22    1    4    4    0    0 -0.21566908993E+02  0.10042804794E+02  0.16856886255E+02  0.29157230765E+02  0.00000000000E+00 0. -1.
<mgrwt>
<rscale>  0 0.94474572E+02</rscale>
<asrwt>0</asrwt>
<pdfrwt beam="1">  1        1 0.11709690E-01 0.94474572E+02</pdfrwt>
<pdfrwt beam="2">  1       -1 0.45102202E-02 0.94474572E+02</pdfrwt>
<totfact> 0.90625113E+04</totfact>
</mgrwt>
</event>
<event>
 7    1  0.3301067E-009  0.9086344E+02  0.7818608E-02  0.1300774E+00
          1   -1    0    0  501    0  0.00000000000E+00  0.00000000000E+00  0.75485105073E+01  0.75485121899E+01  0.50400000000E-02 0. -1.
         -1   -1    0    0    0  501 -0.00000000000E+00 -0.00000000000E+00 -0.27343685732E+03  0.27343685736E+03  0.50400000000E-02 0.  1.
         23    2    1    2    0    0 -0.17763568394E-14  0.00000000000E+00 -0.26588834681E+03  0.28098536955E+03  0.90863441129E+02 0.  0.
    9000005    2    3    3    0    0  0.14093741189E+02 -0.31306614689E+02 -0.22410742819E+03  0.22690780651E+03  0.91801754636E+01 0.  0.
         22    1    3    3    0    0 -0.14093741189E+02  0.31306614689E+02 -0.41780918622E+02  0.54077563045E+02  0.00000000000E+00 0. -1.
         22    1    4    4    0    0  0.27543059043E+01 -0.22679752992E+01 -0.11917852169E+02  0.12440462745E+02  0.00000000000E+00 0.  1.
         22    1    4    4    0    0  0.11339435285E+02 -0.29038639390E+02 -0.21218957602E+03  0.21446734376E+03  0.00000000000E+00 0.  1.
<mgrwt>
<rscale>  0 0.90863441E+02</rscale>
<asrwt>0</asrwt>
<pdfrwt beam="1">  1        1 0.11613097E-02 0.90863441E+02</pdfrwt>
<pdfrwt beam="2">  1       -1 0.42067201E-01 0.90863441E+02</pdfrwt>
<totfact> 0.63321154E+04</totfact>
</mgrwt>
</event>
<event>
 7    1  0.3301067E-009  0.8949190E+02  0.7818608E-02  0.1304087E+00
          1   -1    0    0  501    0  0.00000000000E+00  0.00000000000E+00  0.26042381757E+03  0.26042381762E+03  0.50400000000E-02 0. -1.
         -1   -1    0    0    0  501 -0.00000000000E+00 -0.00000000000E+00 -0.76882364892E+01  0.76882381411E+01  0.50400000000E-02 0.  1.
         23    2    1    2    0    0  0.00000000000E+00  0.00000000000E+00  0.25273558108E+03  0.26811205576E+03  0.89491901866E+02 0.  0.
    9000005    2    3    3    0    0  0.38365123521E+01  0.32552584728E+02  0.21587081894E+03  0.21878254849E+03  0.13827633765E+02 0.  0.
         22    1    3    3    0    0 -0.38365123521E+01 -0.32552584728E+02  0.36864762140E+02  0.49329507267E+02  0.00000000000E+00 0. -1.
         22    1    4    4    0    0 -0.27532090329E+01  0.21772751844E+02  0.16018743988E+03  0.16168379257E+03  0.00000000000E+00 0.  1.
         22    1    4    4    0    0  0.65897213850E+01  0.10779832885E+02  0.55683379057E+02  0.57098755924E+02  0.00000000000E+00 0.  1.
<mgrwt>
<rscale>  0 0.89491902E+02</rscale>
<asrwt>0</asrwt>
<pdfrwt beam="1">  1        1 0.40065206E-01 0.89491902E+02</pdfrwt>
<pdfrwt beam="2">  1       -1 0.11828056E-02 0.89491902E+02</pdfrwt>
<totfact> 0.13101464E+05</totfact>
</mgrwt>
</event>
<event>
 7    1  0.3301067E-009  0.9110406E+02  0.7818608E-02  0.1300200E+00
          1   -1    0    0  501    0  0.00000000000E+00  0.00000000000E+00  0.14606095598E+03  0.14606095607E+03  0.50400000000E-02 0. -1.
         -1   -1    0    0    0  501 -0.00000000000E+00 -0.00000000000E+00 -0.14206311582E+02  0.14206312476E+02  0.50400000000E-02 0.  1.
         23    2    1    2    0    0  0.00000000000E+00  0.00000000000E+00  0.13185464440E+03  0.16026726854E+03  0.91104062022E+02 0.  0.
    9000005    2    3    3    0    0  0.31083043051E+02 -0.23677957462E+01  0.10622873224E+02  0.35091774280E+02  0.12117143416E+02 0.  0.
         22    1    3    3    0    0 -0.31083043051E+02  0.23677957462E+01  0.12123177117E+03  0.12517549426E+03  0.00000000000E+00 0. -1.
         22    1    4    4    0    0  0.11838327443E+02  0.40617371530E+01  0.77991179604E+00  0.12540014663E+02  0.00000000000E+00 0. -1.
         22    1    4    4    0    0  0.19244715608E+02 -0.64295328992E+01  0.98429614276E+01  0.22551759617E+02  0.00000000000E+00 0. -1.
<mgrwt>
<rscale>  0 0.91104062E+02</rscale>
<asrwt>0</asrwt>
<pdfrwt beam="1">  1        1 0.22470917E-01 0.91104062E+02</pdfrwt>
<pdfrwt beam="2">  1       -1 0.21855864E-02 0.91104062E+02</pdfrwt>
<totfact> 0.11182801E+05</totfact>
</mgrwt>
</event>
<event>
 7    1  0.3301067E-009  0.9244655E+02  0.7818608E-02  0.1297033E+00
          1   -1    0    0  501    0  0.00000000000E+00  0.00000000000E+00  0.17308465954E+03  0.17308465961E+03  0.50400000000E-02 0. -1.
         -1   -1    0    0    0  501 -0.00000000000E+00 -0.00000000000E+00 -0.12344197326E+02  0.12344198355E+02  0.50400000000E-02 0.  1.
         23    2    1    2    0    0  0.35527136788E-14  0.00000000000E+00  0.16074046221E+03  0.18542885797E+03  0.92446553069E+02 0.  0.
    9000005    2    3    3    0    0 -0.26184593428E+02 -0.31694820933E+02  0.41490525723E+02  0.59291068388E+02  0.10186876795E+02 0.  0.
         22    1    3    3    0    0  0.26184593428E+02  0.31694820933E+02  0.11924993649E+03  0.12613778958E+03  0.00000000000E+00 0. -1.
         22    1    4    4    0    0 -0.41639647673E+01 -0.54949104776E+01  0.23183718109E+01  0.72737536110E+01  0.00000000000E+00 0. -1.
         22    1    4    4    0    0 -0.22020628660E+02 -0.26199910456E+02  0.39172153912E+02  0.52017314777E+02  0.00000000000E+00 0. -1.
<mgrwt>
<rscale>  0 0.92446553E+02</rscale>
<asrwt>0</asrwt>
<pdfrwt beam="1">  1        1 0.26628407E-01 0.92446553E+02</pdfrwt>
<pdfrwt beam="2">  1       -1 0.18991075E-02 0.92446553E+02</pdfrwt>
<totfact> 0.11095434E+05</totfact>
</mgrwt>
</event>
<event>
 7    1  0.3301067E-009  0.9214270E+02  0.7818608E-02  0.1297744E+00
          1   -1    0    0  501    0  0.00000000000E+00  0.00000000000E+00  0.11118008516E+03  0.11118008527E+03  0.50400000000E-02 0. -1.
         -1   -1    0    0    0  501 -0.00000000000E+00 -0.00000000000E+00 -0.19091273082E+02  0.19091273747E+02  0.50400000000E-02 0.  1.
         23    2    1    2    0    0 -0.71054273576E-14  0.00000000000E+00  0.92088812078E+02  0.13027135902E+03  0.92142702757E+02 0.  0.
    9000005    2    3    3    0    0 -0.38337063273E+02  0.60462130750E+01  0.79948843990E+02  0.89606067455E+02  0.11451749058E+02 0.  0.
         22    1    3    3    0    0  0.38337063273E+02 -0.60462130750E+01  0.12139968088E+02  0.40665291566E+02  0.00000000000E+00 0.  1.
         22    1    4    4    0    0 -0.86393485331E+01 -0.88970025161E+00  0.96823213066E+01  0.13006815732E+02  0.00000000000E+00 0.  1.
         22    1    4    4    0    0 -0.29697714740E+02  0.69359133267E+01  0.70266522684E+02  0.76599251723E+02  0.00000000000E+00 0.  1.
<mgrwt>
<rscale>  0 0.92142703E+02</rscale>
<asrwt>0</asrwt>
<pdfrwt beam="1">  1        1 0.17104629E-01 0.92142703E+02</pdfrwt>
<pdfrwt beam="2">  1       -1 0.29371189E-02 0.92142703E+02</pdfrwt>
<totfact> 0.10332606E+05</totfact>
</mgrwt>
</event>
<event>
 7    1  0.3301067E-009  0.9041684E+02  0.7818608E-02  0.1301845E+00
          1   -1    0    0  501    0  0.00000000000E+00  0.00000000000E+00  0.99831047526E+01  0.99831060248E+01  0.50400000000E-02 0. -1.
         -1   -1    0    0    0  501 -0.00000000000E+00 -0.00000000000E+00 -0.20472601700E+03  0.20472601706E+03  0.50400000000E-02 0.  1.
         23    2    1    2    0    0  0.00000000000E+00  0.00000000000E+00 -0.19474291225E+03  0.21470912309E+03  0.90416843930E+02 0.  0.
    9000005    2    3    3    0    0  0.27687030957E+02  0.26342138036E+02 -0.48352354912E+02  0.63412476738E+02  0.14923540496E+02 0.  0.
         22    1    3    3    0    0 -0.27687030957E+02 -0.26342138036E+02 -0.14639055734E+03  0.15129664635E+03  0.00000000000E+00 0.  1.
         22    1    4    4    0    0  0.14749928165E+02  0.23335224993E+02 -0.35029876833E+02  0.44600284497E+02  0.00000000000E+00 0. -1.
         22    1    4    4    0    0  0.12937102793E+02  0.30069130434E+01 -0.13322478080E+02  0.18812192241E+02  0.00000000000E+00 0. -1.
<mgrwt>
<rscale>  0 0.90416844E+02</rscale>
<asrwt>0</asrwt>
<pdfrwt beam="1">  1        1 0.15358625E-02 0.90416844E+02</pdfrwt>
<pdfrwt beam="2">  1       -1 0.31496307E-01 0.90416844E+02</pdfrwt>
<totfact> 0.70477964E+04</totfact>
</mgrwt>
</event>
<event>
 7    1  0.3301067E-009  0.9122968E+02  0.7818608E-02  0.1299901E+00
         -1   -1    0    0    0  501 -0.00000000000E+00  0.00000000000E+00  0.31029041410E+01  0.31029082342E+01  0.50400000000E-02 0.  1.
          1   -1    0    0  501    0  0.00000000000E+00 -0.00000000000E+00 -0.67056927590E+03  0.67056927592E+03  0.50400000000E-02 0. -1.
         23    2    1    2    0    0 -0.35527136788E-14  0.00000000000E+00 -0.66746637176E+03  0.67367218416E+03  0.91229678683E+02 0.  0.
    9000005    2    3    3    0    0  0.17862425197E+02  0.28650215116E+02 -0.55758938946E+03  0.55872501238E+03  0.11305359701E+02 0.  0.
         22    1    3    3    0    0 -0.17862425197E+02 -0.28650215116E+02 -0.10987698230E+03  0.11494717178E+03  0.00000000000E+00 0.  1.
         22    1    4    4    0    0  0.63622200310E+01  0.55521640647E+01 -0.21478382194E+03  0.21494974887E+03  0.00000000000E+00 0. -1.
         22    1    4    4    0    0  0.11500205166E+02  0.23098051051E+02 -0.34280556752E+03  0.34377526351E+03  0.00000000000E+00 0. -1.
<mgrwt>
<rscale>  0 0.91229679E+02</rscale>
<asrwt>0</asrwt>
<pdfrwt beam="2">  1        1 0.10316439E+00 0.91229679E+02</pdfrwt>
<pdfrwt beam="1">  1       -1 0.47737072E-03 0.91229679E+02</pdfrwt>
<totfact> 0.14194845E+05</totfact>
</mgrwt>
</event>
<event>
 7    1  0.3301067E-009  0.9139351E+02  0.7818608E-02  0.1299512E+00
         -1   -1    0    0    0  501 -0.00000000000E+00  0.00000000000E+00  0.16045344002E+02  0.16045344794E+02  0.50400000000E-02 0.  1.
          1   -1    0    0  501    0  0.00000000000E+00 -0.00000000000E+00 -0.13014325899E+03  0.13014325908E+03  0.50400000000E-02 0. -1.
         23    2    1    2    0    0 -0.71054273576E-14  0.00000000000E+00 -0.11409791498E+03  0.14618860388E+03  0.91393510163E+02 0.  0.
    9000005    2    3    3    0    0  0.39081418276E+02  0.21996852718E+02 -0.48081832184E+02  0.66380446573E+02  0.91259145939E+01 0.  0.
         22    1    3    3    0    0 -0.39081418276E+02 -0.21996852718E+02 -0.66016082801E+02  0.79808157304E+02  0.00000000000E+00 0. -1.
         22    1    4    4    0    0  0.93592084694E+01  0.51321944678E+01 -0.62676524923E+01  0.12378112578E+02  0.00000000000E+00 0.  1.
         22    1    4    4    0    0  0.29722209807E+02  0.16864658250E+02 -0.41814179691E+02  0.54002333995E+02  0.00000000000E+00 0.  1.
<mgrwt>
<rscale>  0 0.91393510E+02</rscale>
<asrwt>0</asrwt>
<pdfrwt beam="2">  1        1 0.20022039E-01 0.91393510E+02</pdfrwt>
<pdfrwt beam="1">  1       -1 0.24685146E-02 0.91393510E+02</pdfrwt>
<totfact> 0.10858796E+05</totfact>
</mgrwt>
</event>
<event>
 7    1  0.3301067E-009  0.9168086E+02  0.7818608E-02  0.1298832E+00
         -1   -1    0    0    0  501 -0.00000000000E+00  0.00000000000E+00  0.66573372252E+02  0.66573372443E+02  0.50400000000E-02 0.  1.
          1   -1    0    0  501    0  0.00000000000E+00 -0.00000000000E+00 -0.31564343750E+02  0.31564344152E+02  0.50400000000E-02 0. -1.
         23    2    1    2    0    0 -0.17763568394E-14  0.00000000000E+00  0.35009028502E+02  0.98137716595E+02  0.91680855918E+02 0.  0.
    9000005    2    3    3    0    0 -0.15686479135E+02  0.31624672388E+02 -0.12515580486E+02  0.38936584927E+02  0.10641069475E+02 0.  0.
         22    1    3    3    0    0  0.15686479135E+02 -0.31624672388E+02  0.47524608988E+02  0.59201131668E+02  0.00000000000E+00 0.  1.
         22    1    4    4    0    0 -0.38592886004E+00  0.60388189737E+01  0.11208066421E+01  0.61540623340E+01  0.00000000000E+00 0. -1.
         22    1    4    4    0    0 -0.15300550275E+02  0.25585853414E+02 -0.13636387128E+02  0.32782522593E+02  0.00000000000E+00 0. -1.
<mgrwt>
<rscale>  0 0.91680856E+02</rscale>
<asrwt>0</asrwt>
<pdfrwt beam="2">  1        1 0.48560530E-02 0.91680856E+02</pdfrwt>
<pdfrwt beam="1">  1       -1 0.10242057E-01 0.91680856E+02</pdfrwt>
<totfact> 0.86023038E+04</totfact>
</mgrwt>
</event>
<event>
 7    1  0.3301067E-009  0.9017256E+02  0.7818608E-02  0.1302434E+00
         -1   -1    0    0    0  501 -0.00000000000E+00  0.00000000000E+00  0.48092684094E+03  0.48092684097E+03  0.50400000000E-02 0.  1.
          1   -1    0    0  501    0  0.00000000000E+00 -0.00000000000E+00 -0.42267794408E+01  0.42267824457E+01  0.50400000000E-02 0. -1.
         23    2    1    2    0    0  0.00000000000E+00  0.00000000000E+00  0.47670006150E+03  0.48515362342E+03  0.90172555008E+02 0.  0.
    9000005    2    3    3    0    0 -0.34664160291E+02 -0.67690449660E+01  0.38679559028E+03  0.38856046670E+03  0.10999256497E+02 0.  0.
         22    1    3    3    0    0  0.34664160291E+02  0.67690449660E+01  0.89904471221E+02  0.96593156714E+02  0.00000000000E+00 0. -1.
         22    1    4    4    0    0 -0.18980552465E+01 -0.23843971977E+01  0.15543977798E+02  0.15839924542E+02  0.00000000000E+00 0. -1.
         22    1    4    4    0    0 -0.32766105045E+02 -0.43846477684E+01  0.37125161248E+03  0.37272054216E+03  0.00000000000E+00 0. -1.
<mgrwt>
<rscale>  0 0.90172555E+02</rscale>
<asrwt>0</asrwt>
<pdfrwt beam="2">  1        1 0.65027452E-03 0.90172555E+02</pdfrwt>
<pdfrwt beam="1">  1       -1 0.73988685E-01 0.90172555E+02</pdfrwt>
<totfact> 0.49583140E+04</totfact>
</mgrwt>
</event>
<event>
 7    1  0.3301067E-009  0.9251396E+02  0.7818608E-02  0.1296875E+00
         -1   -1    0    0    0  501 -0.00000000000E+00  0.00000000000E+00  0.10620658462E+02  0.10620659658E+02  0.50400000000E-02 0.  1.
          1   -1    0    0  501    0  0.00000000000E+00 -0.00000000000E+00 -0.20146662825E+03  0.20146662831E+03  0.50400000000E-02 0. -1.
         23    2    1    2    0    0  0.00000000000E+00  0.00000000000E+00 -0.19084596979E+03  0.21208728797E+03  0.92513963998E+02 0.  0.
    9000005    2    3    3    0    0 -0.90294358467E+01 -0.41238411121E+02 -0.54289621672E+02  0.69154529395E+02  0.72697077704E+01 0.  0.
         22    1    3    3    0    0  0.90294358467E+01  0.41238411121E+02 -0.13655634811E+03  0.14293275857E+03  0.00000000000E+00 0. -1.
         22    1    4    4    0    0 -0.51010825359E+01 -0.22240697135E+02 -0.35117703130E+02  0.41879860616E+02  0.00000000000E+00 0. -1.
         22    1    4    4    0    0 -0.39283533108E+01 -0.18997713986E+02 -0.19171918542E+02  0.27274668779E+02  0.00000000000E+00 0. -1.
<mgrwt>
<rscale>  0 0.92513964E+02</rscale>
<asrwt>0</asrwt>
<pdfrwt beam="2">  1        1 0.30994863E-01 0.92513964E+02</pdfrwt>
<pdfrwt beam="1">  1       -1 0.16339477E-02 0.92513964E+02</pdfrwt>
<totfact> 0.11402719E+05</totfact>
</mgrwt>
</event>
<event>
 7    1  0.3301067E-009  0.9123482E+02  0.7818608E-02  0.1299889E+00
         -1   -1    0    0    0  501 -0.00000000000E+00  0.00000000000E+00  0.19112617548E+03  0.19112617554E+03  0.50400000000E-02 0.  1.
          1   -1    0    0  501    0  0.00000000000E+00 -0.00000000000E+00 -0.10887821984E+02  0.10887823151E+02  0.50400000000E-02 0. -1.
         23    2    1    2    0    0  0.00000000000E+00  0.00000000000E+00  0.18023835349E+03  0.20201399870E+03  0.91234815715E+02 0.  0.
    9000005    2    3    3    0    0 -0.22417907314E+02  0.36717162002E+02  0.64885970824E+02  0.78900698271E+02  0.12822574779E+02 0.  0.
         22    1    3    3    0    0  0.22417907314E+02 -0.36717162002E+02  0.11535238267E+03  0.12311330042E+03  0.00000000000E+00 0.  1.
         22    1    4    4    0    0 -0.13392224170E+02  0.31889778398E+02  0.48207218910E+02  0.59331657566E+02  0.00000000000E+00 0. -1.
         22    1    4    4    0    0 -0.90256831446E+01  0.48273836042E+01  0.16678751914E+02  0.19569040705E+02  0.00000000000E+00 0. -1.
<mgrwt>
<rscale>  0 0.91234816E+02</rscale>
<asrwt>0</asrwt>
<pdfrwt beam="2">  1        1 0.16750497E-02 0.91234816E+02</pdfrwt>
<pdfrwt beam="1">  1       -1 0.29404027E-01 0.91234816E+02</pdfrwt>
<totfact> 0.70200549E+04</totfact>
</mgrwt>
</event>
<event>
 7    1  0.3301067E-009  0.9279275E+02  0.7818608E-02  0.1296226E+00
         -1   -1    0    0    0  501 -0.00000000000E+00  0.00000000000E+00  0.21433435449E+02  0.21433436042E+02  0.50400000000E-02 0.  1.
          1   -1    0    0  501    0  0.00000000000E+00 -0.00000000000E+00 -0.10043297936E+03  0.10043297948E+03  0.50400000000E-02 0. -1.
         23    2    1    2    0    0  0.00000000000E+00  0.00000000000E+00 -0.78999543908E+02  0.12186641553E+03  0.92792754541E+02 0.  0.
    9000005    2    3    3    0    0  0.94875547006E+01  0.42379308331E+02 -0.58607185419E+02  0.73888631567E+02  0.11777445537E+02 0.  0.
         22    1    3    3    0    0 -0.94875547006E+01 -0.42379308331E+02 -0.20392358489E+02  0.47977783958E+02  0.00000000000E+00 0.  1.
         22    1    4    4    0    0  0.90791246615E+00  0.28815374339E+02 -0.35044520570E+02  0.45379163999E+02  0.00000000000E+00 0. -1.
         22    1    4    4    0    0  0.85796422345E+01  0.13563933992E+02 -0.23562664849E+02  0.28509467568E+02  0.00000000000E+00 0. -1.
<mgrwt>
<rscale>  0 0.92792755E+02</rscale>
<asrwt>0</asrwt>
<pdfrwt beam="2">  1        1 0.15451227E-01 0.92792755E+02</pdfrwt>
<pdfrwt beam="1">  1       -1 0.32974517E-02 0.92792755E+02</pdfrwt>
<totfact> 0.99629775E+04</totfact>
</mgrwt>
</event>
<event>
 7    1  0.3301067E-009  0.9082115E+02  0.7818608E-02  0.1300875E+00
         -1   -1    0    0    0  501 -0.00000000000E+00  0.00000000000E+00  0.83918021943E+01  0.83918037077E+01  0.50400000000E-02 0.  1.
          1   -1    0    0  501    0  0.00000000000E+00 -0.00000000000E+00 -0.24573031476E+03  0.24573031482E+03  0.50400000000E-02 0. -1.
         23    2    1    2    0    0  0.35527136788E-14  0.00000000000E+00 -0.23733851257E+03  0.25412211852E+03  0.90821151578E+02 0.  0.
    9000005    2    3    3    0    0  0.24832544991E+02  0.26180960973E+01 -0.22458240243E+03  0.22608235990E+03  0.72434975694E+01 0.  0.
         22    1    3    3    0    0 -0.24832544991E+02 -0.26180960973E+01 -0.12756110138E+02  0.28039758625E+02  0.00000000000E+00 0.  1.
         22    1    4    4    0    0  0.16045856375E+02  0.19396892682E+01 -0.11265253731E+03  0.11380608975E+03  0.00000000000E+00 0.  1.
         22    1    4    4    0    0  0.87866886160E+01  0.67840682913E+00 -0.11192986512E+03  0.11227627015E+03  0.00000000000E+00 0.  1.
<mgrwt>
<rscale>  0 0.90821152E+02</rscale>
<asrwt>0</asrwt>
<pdfrwt beam="2">  1        1 0.37804658E-01 0.90821152E+02</pdfrwt>
<pdfrwt beam="1">  1       -1 0.12910468E-02 0.90821152E+02</pdfrwt>
<totfact> 0.12454934E+05</totfact>
</mgrwt>
</event>
<event>
 7    1  0.3301067E-009  0.9199370E+02  0.7818608E-02  0.1298094E+00
         -1   -1    0    0    0  501 -0.00000000000E+00  0.00000000000E+00  0.60934650953E+01  0.60934671796E+01  0.50400000000E-02 0.  1.
          1   -1    0    0  501    0  0.00000000000E+00 -0.00000000000E+00 -0.34720966309E+03  0.34720966312E+03  0.50400000000E-02 0. -1.
         23    2    1    2    0    0  0.00000000000E+00  0.00000000000E+00 -0.34111619799E+03  0.35330313030E+03  0.91993702772E+02 0.  0.
    9000005    2    3    3    0    0  0.33377083622E+02  0.11033955413E+02 -0.28382049039E+03  0.28608277630E+03  0.73147963201E+01 0.  0.
         22    1    3    3    0    0 -0.33377083622E+02 -0.11033955413E+02 -0.57295707599E+02  0.67220354004E+02  0.00000000000E+00 0.  1.
         22    1    4    4    0    0  0.30653637019E+01  0.23033284443E+01 -0.49554755389E+02  0.49702872736E+02  0.00000000000E+00 0. -1.
         22    1    4    4    0    0  0.30311719920E+02  0.87306269684E+01 -0.23426573500E+03  0.23637990356E+03  0.00000000000E+00 0. -1.
<mgrwt>
<rscale>  0 0.91993703E+02</rscale>
<asrwt>0</asrwt>
<pdfrwt beam="2">  1        1 0.53416856E-01 0.91993703E+02</pdfrwt>
<pdfrwt beam="1">  1       -1 0.93745660E-03 0.91993703E+02</pdfrwt>
<totfact> 0.12855484E+05</totfact>
</mgrwt>
</event>
<event>
 7    1  0.3301067E-009  0.9250944E+02  0.7818608E-02  0.1296886E+00
         -1   -1    0    0    0  501 -0.00000000000E+00  0.00000000000E+00  0.50574344427E+01  0.50574369540E+01  0.50400000000E-02 0.  1.
          1   -1    0    0  501    0  0.00000000000E+00 -0.00000000000E+00 -0.42304033751E+03  0.42304033754E+03  0.50400000000E-02 0. -1.
         23    2    1    2    0    0  0.35527136788E-14 -0.17763568394E-14 -0.41798290307E+03  0.42809777450E+03  0.92509444222E+02 0.  0.
    9000005    2    3    3    0    0 -0.18631916667E+02  0.13617171520E+02 -0.39362732360E+03  0.39454527935E+03  0.13817810915E+02 0.  0.
         22    1    3    3    0    0  0.18631916667E+02 -0.13617171520E+02 -0.24355579470E+02  0.33552495141E+02  0.00000000000E+00 0.  1.
         22    1    4    4    0    0 -0.60759870922E+01  0.12944940247E+02 -0.20108013749E+03  0.20158797283E+03  0.00000000000E+00 0.  1.
         22    1    4    4    0    0 -0.12555929574E+02  0.67223127328E+00 -0.19254718611E+03  0.19295730653E+03  0.00000000000E+00 0.  1.
<mgrwt>
<rscale>  0 0.92509444E+02</rscale>
<asrwt>0</asrwt>
<pdfrwt beam="2">  1        1 0.65083101E-01 0.92509444E+02</pdfrwt>
<pdfrwt beam="1">  1       -1 0.77806737E-03 0.92509444E+02</pdfrwt>
<totfact> 0.13095303E+05</totfact>
</mgrwt>
</event>
<event>
 7    1  0.3301067E-009  0.9079462E+02  0.7818608E-02  0.1300939E+00
         -1   -1    0    0    0  501 -0.00000000000E+00  0.00000000000E+00  0.79060428667E+01  0.79060444731E+01  0.50400000000E-02 0.  1.
          1   -1    0    0  501    0  0.00000000000E+00 -0.00000000000E+00 -0.26067601377E+03  0.26067601382E+03  0.50400000000E-02 0. -1.
         23    2    1    2    0    0  0.00000000000E+00  0.00000000000E+00 -0.25276997090E+03  0.26858205829E+03  0.90794624542E+02 0.  0.
    9000005    2    3    3    0    0 -0.40550153831E+02  0.15792609071E+02 -0.95958846562E+02  0.10584469259E+03  0.10063659367E+02 0.  0.
         22    1    3    3    0    0  0.40550153831E+02 -0.15792609071E+02 -0.15681112434E+03  0.16273736570E+03  0.00000000000E+00 0. -1.
         22    1    4    4    0    0 -0.32790628919E+02  0.14887688348E+02 -0.69773459648E+02  0.78518814819E+02  0.00000000000E+00 0. -1.
         22    1    4    4    0    0 -0.77595249120E+01  0.90492072296E+00 -0.26185386913E+02  0.27325877775E+02  0.00000000000E+00 0. -1.
<mgrwt>
<rscale>  0 0.90794625E+02</rscale>
<asrwt>0</asrwt>
<pdfrwt beam="2">  1        1 0.40103996E-01 0.90794625E+02</pdfrwt>
<pdfrwt beam="1">  1       -1 0.12163146E-02 0.90794625E+02</pdfrwt>
<totfact> 0.12608881E+05</totfact>
</mgrwt>
</event>
<event>
 7    1  0.3301067E-009  0.9238836E+02  0.7818608E-02  0.1297169E+00
         -1   -1    0    0    0  501 -0.00000000000E+00  0.00000000000E+00  0.83687309089E+02  0.83687309241E+02  0.50400000000E-02 0.  1.
          1   -1    0    0  501    0  0.00000000000E+00 -0.00000000000E+00 -0.25498515904E+02  0.25498516402E+02  0.50400000000E-02 0. -1.
         23    2    1    2    0    0  0.00000000000E+00  0.00000000000E+00  0.58188793185E+02  0.10918582564E+03  0.92388358948E+02 0.  0.
    9000005    2    3    3    0    0 -0.24468737818E+02  0.36096164195E+02  0.44170602089E+02  0.63380128600E+02  0.12819766476E+02 0.  0.
         22    1    3    3    0    0  0.24468737818E+02 -0.36096164195E+02  0.14018191096E+02  0.45805697043E+02  0.00000000000E+00 0. -1.
         22    1    4    4    0    0 -0.87976678250E+01  0.22825170900E+02  0.19513558837E+02  0.31291634094E+02  0.00000000000E+00 0.  1.
         22    1    4    4    0    0 -0.15671069993E+02  0.13270993295E+02  0.24657043252E+02  0.32088494506E+02  0.00000000000E+00 0.  1.
<mgrwt>
<rscale>  0 0.92388359E+02</rscale>
<asrwt>0</asrwt>
<pdfrwt beam="2">  1        1 0.39228486E-02 0.92388359E+02</pdfrwt>
<pdfrwt beam="1">  1       -1 0.12874971E-01 0.92388359E+02</pdfrwt>
<totfact> 0.81204873E+04</totfact>
</mgrwt>
</event>
<event>
 7    1  0.3301067E-009  0.8958863E+02  0.7818608E-02  0.1303851E+00
         -1   -1    0    0    0  501 -0.00000000000E+00  0.00000000000E+00  0.19587046661E+02  0.19587047309E+02  0.50400000000E-02 0.  1.
          1   -1    0    0  501    0  0.00000000000E+00 -0.00000000000E+00 -0.10244170757E+03  0.10244170770E+03  0.50400000000E-02 0. -1.
         23    2    1    2    0    0  0.00000000000E+00  0.00000000000E+00 -0.82854660912E+02  0.12202875501E+03  0.89588627701E+02 0.  0.
    9000005    2    3    3    0    0  0.22171569809E+02  0.28375460393E+01  0.94803478255E+01  0.27026733901E+02  0.11871696390E+02 0.  0.
         22    1    3    3    0    0 -0.22171569809E+02 -0.28375460393E+01 -0.92335008737E+02  0.95002021104E+02  0.00000000000E+00 0. -1.
         22    1    4    4    0    0  0.15990517423E+02  0.33385249428E+01  0.79488851733E+00  0.16354639831E+02  0.00000000000E+00 0. -1.
         22    1    4    4    0    0  0.61810523858E+01 -0.50097890349E+00  0.86854593081E+01  0.10672094071E+02  0.00000000000E+00 0. -1.
<mgrwt>
<rscale>  0 0.89588628E+02</rscale>
<asrwt>0</asrwt>
<pdfrwt beam="2">  1        1 0.15760262E-01 0.89588628E+02</pdfrwt>
<pdfrwt beam="1">  1       -1 0.30133919E-02 0.89588628E+02</pdfrwt>
<totfact> 0.11000520E+05</totfact>
</mgrwt>
</event>
<event>
 7    1  0.3301067E-009  0.9008462E+02  0.7818608E-02  0.1302647E+00
          1   -1    0    0  501    0  0.00000000000E+00  0.00000000000E+00  0.21941855200E+02  0.21941855778E+02  0.50400000000E-02 0. -1.
         -1   -1    0    0    0  501 -0.00000000000E+00 -0.00000000000E+00 -0.92463002941E+02  0.92463003078E+02  0.50400000000E-02 0.  1.
         23    2    1    2    0    0  0.00000000000E+00  0.88817841970E-15 -0.70521147741E+02  0.11440485886E+03  0.90084623834E+02 0.  0.
    9000005    2    3    3    0    0 -0.43576599366E+02 -0.47974747519E+01 -0.33265981817E+02  0.56873274797E+02  0.14352981004E+02 0.  0.
         22    1    3    3    0    0  0.43576599366E+02  0.47974747519E+01 -0.37255165925E+02  0.57531584059E+02  0.00000000000E+00 0. -1.
         22    1    4    4    0    0 -0.13677260155E+02  0.51548425926E+01 -0.10716283794E+02  0.18123978202E+02  0.00000000000E+00 0.  1.
         22    1    4    4    0    0 -0.29899339210E+02 -0.99523173445E+01 -0.22549698023E+02  0.38749296596E+02  0.00000000000E+00 0.  1.
<mgrwt>
<rscale>  0 0.90084624E+02</rscale>
<asrwt>0</asrwt>
<pdfrwt beam="1">  1        1 0.33756701E-02 0.90084624E+02</pdfrwt>
<pdfrwt beam="2">  1       -1 0.14225077E-01 0.90084624E+02</pdfrwt>
<totfact> 0.85137728E+04</totfact>
</mgrwt>
</event>
<event>
 7    1  0.3301067E-009  0.9171785E+02  0.7818608E-02  0.1298744E+00
          1   -1    0    0  501    0  0.00000000000E+00  0.00000000000E+00  0.37689392428E+02  0.37689392765E+02  0.50400000000E-02 0. -1.
         -1   -1    0    0    0  501 -0.00000000000E+00 -0.00000000000E+00 -0.55799274649E+02  0.55799274877E+02  0.50400000000E-02 0.  1.
         23    2    1    2    0    0  0.71054273576E-14  0.00000000000E+00 -0.18109882221E+02  0.93488667641E+02  0.91717845283E+02 0.  0.
    9000005    2    3    3    0    0  0.38967376261E+02  0.64423145988E+01  0.14575409109E+02  0.42221835290E+02  0.32063989932E+01 0.  0.
         22    1    3    3    0    0 -0.38967376261E+02 -0.64423145988E+01 -0.32685291330E+02  0.51266832352E+02  0.00000000000E+00 0. -1.
         22    1    4    4    0    0  0.15214507011E+02  0.27669757408E+01  0.40697041036E+01  0.15990618182E+02  0.00000000000E+00 0.  1.
         22    1    4    4    0    0  0.23752869250E+02  0.36753388580E+01  0.10505705005E+02  0.26231217108E+02  0.00000000000E+00 0.  1.
<mgrwt>
<rscale>  0 0.91717845E+02</rscale>
<asrwt>0</asrwt>
<pdfrwt beam="1">  1        1 0.57983681E-02 0.91717845E+02</pdfrwt>
<pdfrwt beam="2">  1       -1 0.85845039E-02 0.91717845E+02</pdfrwt>
<totfact> 0.88348470E+04</totfact>
</mgrwt>
</event>
<event>
 7    1  0.3301067E-009  0.9422639E+02  0.7818608E-02  0.1292928E+00
         -1   -1    0    0    0  501 -0.00000000000E+00  0.00000000000E+00  0.52939017477E+02  0.52939017717E+02  0.50400000000E-02 0.  1.
          1   -1    0    0  501    0  0.00000000000E+00 -0.00000000000E+00 -0.41928494231E+02  0.41928494534E+02  0.50400000000E-02 0. -1.
         23    2    1    2    0    0  0.00000000000E+00  0.00000000000E+00  0.11010523247E+02  0.94867512251E+02  0.94226393641E+02 0.  0.
    9000005    2    3    3    0    0  0.10707003167E+02  0.34770877040E+02  0.34404893790E+02  0.51613028321E+02  0.12512160837E+02 0.  0.
         22    1    3    3    0    0 -0.10707003167E+02 -0.34770877040E+02 -0.23394370544E+02  0.43254483930E+02  0.00000000000E+00 0. -1.
         22    1    4    4    0    0  0.10029414238E+02  0.32104586146E+02  0.35262629043E+02  0.48731371914E+02  0.00000000000E+00 0. -1.
         22    1    4    4    0    0  0.67758892876E+00  0.26662908936E+01 -0.85773525256E+00  0.28816564072E+01  0.00000000000E+00 0. -1.
<mgrwt>
<rscale>  0 0.94226394E+02</rscale>
<asrwt>0</asrwt>
<pdfrwt beam="2">  1        1 0.64505376E-02 0.94226394E+02</pdfrwt>
<pdfrwt beam="1">  1       -1 0.81444642E-02 0.94226394E+02</pdfrwt>
<totfact> 0.83198990E+04</totfact>
</mgrwt>
</event>
<event>
 7    1  0.3301067E-009  0.9263781E+02  0.7818608E-02  0.1296587E+00
         -1   -1    0    0    0  501 -0.00000000000E+00  0.00000000000E+00  0.23233230415E+02  0.23233230962E+02  0.50400000000E-02 0.  1.
          1   -1    0    0  501    0  0.00000000000E+00 -0.00000000000E+00 -0.92343639990E+02  0.92343640127E+02  0.50400000000E-02 0. -1.
         23    2    1    2    0    0  0.00000000000E+00 -0.35527136788E-14 -0.69110409575E+02  0.11557687109E+03  0.92637813117E+02 0.  0.
    9000005    2    3    3    0    0 -0.14615983836E+02  0.28263240886E+02  0.72578057746E+01  0.32845123347E+02  0.36998127167E+01 0.  0.
         22    1    3    3    0    0  0.14615983836E+02 -0.28263240886E+02 -0.76368215350E+02  0.82731747742E+02  0.00000000000E+00 0. -1.
         22    1    4    4    0    0  0.77376527249E-01  0.38245921254E+00  0.46274945490E+00  0.60530920548E+00  0.00000000000E+00 0.  1.
         22    1    4    4    0    0 -0.14693360363E+02  0.27880781673E+02  0.67950563197E+01  0.32239814141E+02  0.00000000000E+00 0.  1.
<mgrwt>
<rscale>  0 0.92637813E+02</rscale>
<asrwt>0</asrwt>
<pdfrwt beam="2">  1        1 0.14206714E-01 0.92637813E+02</pdfrwt>
<pdfrwt beam="1">  1       -1 0.35743432E-02 0.92637813E+02</pdfrwt>
<totfact> 0.98700036E+04</totfact>
</mgrwt>
</event>
<event>
 7    1  0.3301067E-009  0.9242656E+02  0.7818608E-02  0.1297080E+00
         -1   -1    0    0    0  501 -0.00000000000E+00  0.00000000000E+00  0.64642628511E+02  0.64642628707E+02  0.50400000000E-02 0.  1.
          1   -1    0    0  501    0  0.00000000000E+00 -0.00000000000E+00 -0.33038059676E+02  0.33038060060E+02  0.50400000000E-02 0. -1.
         23    2    1    2    0    0  0.00000000000E+00  0.00000000000E+00  0.31604568835E+02  0.97680688767E+02  0.92426555636E+02 0.  0.
    9000005    2    3    3    0    0 -0.10136132552E+02 -0.10747880673E+02  0.61685405175E+02  0.64167783238E+02  0.97034567026E+01 0.  0.
         22    1    3    3    0    0  0.10136132552E+02  0.10747880673E+02 -0.30080836340E+02  0.33512905529E+02  0.00000000000E+00 0. -1.
         22    1    4    4    0    0 -0.47873427207E+01 -0.78781412225E+01  0.19752475045E+02  0.21797798739E+02  0.00000000000E+00 0.  1.
         22    1    4    4    0    0 -0.53487898317E+01 -0.28697394506E+01  0.41932930130E+02  0.42369984500E+02  0.00000000000E+00 0.  1.
<mgrwt>
<rscale>  0 0.92426556E+02</rscale>
<asrwt>0</asrwt>
<pdfrwt beam="2">  1        1 0.50827785E-02 0.92426556E+02</pdfrwt>
<pdfrwt beam="1">  1       -1 0.99450197E-02 0.92426556E+02</pdfrwt>
<totfact> 0.84663945E+04</totfact>
</mgrwt>
</event>
<event>
 7    1  0.3301067E-009  0.9147209E+02  0.7818608E-02  0.1299325E+00
         -1   -1    0    0    0  501 -0.00000000000E+00  0.00000000000E+00  0.52030158887E+02  0.52030159131E+02  0.50400000000E-02 0.  1.
          1   -1    0    0  501    0  0.00000000000E+00 -0.00000000000E+00 -0.40203333863E+02  0.40203334179E+02  0.50400000000E-02 0. -1.
         23    2    1    2    0    0 -0.17763568394E-14  0.00000000000E+00  0.11826825024E+02  0.92233493310E+02  0.91472091361E+02 0.  0.
    9000005    2    3    3    0    0  0.89127079154E+01  0.41453862389E+02 -0.91826387657E+01  0.44912708890E+02  0.11617723348E+02 0.  0.
         22    1    3    3    0    0 -0.89127079154E+01 -0.41453862389E+02  0.21009463790E+02  0.47320784420E+02  0.00000000000E+00 0.  1.
         22    1    4    4    0    0  0.35584293752E+01  0.24774992007E+02  0.22268375330E+00  0.25030226460E+02  0.00000000000E+00 0.  1.
         22    1    4    4    0    0  0.53542785402E+01  0.16678870381E+02 -0.94053225190E+01  0.19882482430E+02  0.00000000000E+00 0.  1.
<mgrwt>
<rscale>  0 0.91472091E+02</rscale>
<asrwt>0</asrwt>
<pdfrwt beam="2">  1        1 0.61851283E-02 0.91472091E+02</pdfrwt>
<pdfrwt beam="1">  1       -1 0.80046399E-02 0.91472091E+02</pdfrwt>
<totfact> 0.89907905E+04</totfact>
</mgrwt>
</event>
<event>
 7    1  0.3301067E-009  0.9360408E+02  0.7818608E-02  0.1294351E+00
         -1   -1    0    0    0  501 -0.00000000000E+00  0.00000000000E+00  0.27215841769E+01  0.27215888436E+01  0.50400000000E-02 0.  1.
          1   -1    0    0  501    0  0.00000000000E+00 -0.00000000000E+00 -0.80483606959E+03  0.80483606961E+03  0.50400000000E-02 0. -1.
         23    2    1    2    0    0  0.00000000000E+00  0.00000000000E+00 -0.80211448541E+03  0.80755765845E+03  0.93604081164E+02 0.  0.
    9000005    2    3    3    0    0 -0.67511233270E+01 -0.19139252874E+02 -0.76392152485E+03  0.76430733009E+03  0.13330792580E+02 0.  0.
         22    1    3    3    0    0  0.67511233270E+01  0.19139252874E+02 -0.38192960561E+02  0.43250328359E+02  0.00000000000E+00 0.  1.
         22    1    4    4    0    0 -0.87266752067E+01 -0.19070045783E+02 -0.74214779116E+03  0.74244404869E+03  0.00000000000E+00 0.  1.
         22    1    4    4    0    0  0.19755518797E+01 -0.69207090692E-01 -0.21773733687E+02  0.21863281399E+02  0.00000000000E+00 0.  1.
<mgrwt>
<rscale>  0 0.93604081E+02</rscale>
<asrwt>0</asrwt>
<pdfrwt beam="2">  1        1 0.12382074E+00 0.93604081E+02</pdfrwt>
<pdfrwt beam="1">  1       -1 0.41870626E-03 0.93604081E+02</pdfrwt>
<totfact> 0.13173414E+05</totfact>
</mgrwt>
</event>
<event>
 7    1  0.3301067E-009  0.9159071E+02  0.7818608E-02  0.1299045E+00
         -1   -1    0    0    0  501 -0.00000000000E+00  0.00000000000E+00  0.16682094130E+03  0.16682094137E+03  0.50400000000E-02 0.  1.
          1   -1    0    0  501    0  0.00000000000E+00 -0.00000000000E+00 -0.12571649553E+02  0.12571650564E+02  0.50400000000E-02 0. -1.
         23    2    1    2    0    0  0.71054273576E-14 -0.35527136788E-14  0.15424929175E+03  0.17939259194E+03  0.91590709346E+02 0.  0.
    9000005    2    3    3    0    0  0.34784356077E+02 -0.19732329385E+02  0.11776180351E+03  0.12525708558E+03  0.14905665779E+02 0.  0.
         22    1    3    3    0    0 -0.34784356077E+02  0.19732329385E+02  0.36487488237E+02  0.54135506357E+02  0.00000000000E+00 0. -1.
         22    1    4    4    0    0  0.19554514033E+02 -0.41461465424E+01  0.69215327695E+02  0.72043952821E+02  0.00000000000E+00 0. -1.
         22    1    4    4    0    0  0.15229842044E+02 -0.15586182843E+02  0.48546475813E+02  0.53213132761E+02  0.00000000000E+00 0. -1.
<mgrwt>
<rscale>  0 0.91590709E+02</rscale>
<asrwt>0</asrwt>
<pdfrwt beam="2">  1        1 0.19341002E-02 0.91590709E+02</pdfrwt>
<pdfrwt beam="1">  1       -1 0.25664758E-01 0.91590709E+02</pdfrwt>
<totfact> 0.72031575E+04</totfact>
</mgrwt>
</event>
<event>
 7    1  0.3301067E-009  0.9995646E+02  0.7818608E-02  0.1280388E+00
          1   -1    0    0  501    0  0.00000000000E+00  0.00000000000E+00  0.14617175461E+02  0.14617176330E+02  0.50400000000E-02 0. -1.
         -1   -1    0    0    0  501 -0.00000000000E+00 -0.00000000000E+00 -0.17088276542E+03  0.17088276549E+03  0.50400000000E-02 0.  1.
         23    2    1    2    0    0  0.00000000000E+00  0.00000000000E+00 -0.15626558996E+03  0.18549994182E+03  0.99956459579E+02 0.  0.
    9000005    2    3    3    0    0 -0.18870241741E+02  0.45559082125E+02 -0.65045502833E+02  0.81804135339E+02  0.54113891290E+01 0.  0.
         22    1    3    3    0    0  0.18870241741E+02 -0.45559082125E+02 -0.91220087126E+02  0.10369580649E+03  0.00000000000E+00 0. -1.
         22    1    4    4    0    0 -0.90613639919E+01  0.20557616283E+02 -0.25295346869E+02  0.33831619498E+02  0.00000000000E+00 0. -1.
         22    1    4    4    0    0 -0.98088777492E+01  0.25001465842E+02 -0.39750155963E+02  0.47972515840E+02  0.00000000000E+00 0. -1.
<mgrwt>
<rscale>  0 0.99956460E+02</rscale>
<asrwt>0</asrwt>
<pdfrwt beam="1">  1        1 0.22487964E-02 0.99956460E+02</pdfrwt>
<pdfrwt beam="2">  1       -1 0.26289655E-01 0.99956460E+02</pdfrwt>
<totfact> 0.56998710E+04</totfact>
</mgrwt>
</event>
<event>
 7    1  0.3301067E-009  0.8716757E+02  0.7818608E-02  0.1309859E+00
          1   -1    0    0  501    0  0.00000000000E+00  0.00000000000E+00  0.88212609696E+02  0.88212609840E+02  0.50400000000E-02 0. -1.
         -1   -1    0    0    0  501 -0.00000000000E+00 -0.00000000000E+00 -0.21533729075E+02  0.21533729665E+02  0.50400000000E-02 0.  1.
         23    2    1    2    0    0 -0.71054273576E-14 -0.17763568394E-14  0.66678880621E+02  0.10974633950E+03  0.87167573752E+02 0.  0.
    9000005    2    3    3    0    0  0.40840210491E+02  0.13845215558E+02  0.34350457112E+02  0.55850701895E+02  0.89294015216E+01 0.  0.
         22    1    3    3    0    0 -0.40840210491E+02 -0.13845215558E+02  0.32328423509E+02  0.53895637610E+02  0.00000000000E+00 0. -1.
         22    1    4    4    0    0  0.82398137281E+01  0.59395809095E+00  0.32191671723E+01  0.88662480098E+01  0.00000000000E+00 0.  1.
         22    1    4    4    0    0  0.32600396763E+02  0.13251257467E+02  0.31131289940E+02  0.46984453885E+02  0.00000000000E+00 0.  1.
<mgrwt>
<rscale>  0 0.87167574E+02</rscale>
<asrwt>0</asrwt>
<pdfrwt beam="1">  1        1 0.13571171E-01 0.87167574E+02</pdfrwt>
<pdfrwt beam="2">  1       -1 0.33128815E-02 0.87167574E+02</pdfrwt>
<totfact> 0.11567205E+05</totfact>
</mgrwt>
</event>
<event>
 7    1  0.3301067E-009  0.8919681E+02  0.7818608E-02  0.1304808E+00
          1   -1    0    0  501    0  0.00000000000E+00  0.00000000000E+00  0.10154181206E+02  0.10154182457E+02  0.50400000000E-02 0.  1.
         -1   -1    0    0    0  501 -0.00000000000E+00 -0.00000000000E+00 -0.19588161072E+03  0.19588161079E+03  0.50400000000E-02 0. -1.
         23    2    1    2    0    0 -0.71054273576E-14  0.00000000000E+00 -0.18572742952E+03  0.20603579324E+03  0.89196805005E+02 0.  0.
    9000005    2    3    3    0    0 -0.33631814356E+02  0.83602134742E+01 -0.32155456921E+02  0.48602179067E+02  0.11278576773E+02 0.  0.
         22    1    3    3    0    0  0.33631814356E+02 -0.83602134742E+01 -0.15357197260E+03  0.15743361418E+03  0.00000000000E+00 0. -1.
         22    1    4    4    0    0 -0.34185903147E+02  0.91100705571E+01 -0.30540830316E+02  0.46737690101E+02  0.00000000000E+00 0. -1.
         22    1    4    4    0    0  0.55408879089E+00 -0.74985708290E+00 -0.16146266044E+01  0.18644889661E+01  0.00000000000E+00 0. -1.
<mgrwt>
<rscale>  0 0.89196805E+02</rscale>
<asrwt>0</asrwt>
<pdfrwt beam="1">  1        1 0.15621820E-02 0.89196805E+02</pdfrwt>
<pdfrwt beam="2">  1       -1 0.30135630E-01 0.89196805E+02</pdfrwt>
<totfact> 0.73940579E+04</totfact>
</mgrwt>
</event>
<event>
 7    1  0.3301067E-009  0.9032628E+02  0.7818608E-02  0.1302063E+00
          1   -1    0    0  501    0  0.00000000000E+00  0.00000000000E+00  0.49864359551E+03  0.49864359554E+03  0.50400000000E-02 0. -1.
         -1   -1    0    0    0  501 -0.00000000000E+00 -0.00000000000E+00 -0.40905140609E+01  0.40905171659E+01  0.50400000000E-02 0.  1.
         23    2    1    2    0    0  0.00000000000E+00  0.35527136788E-14  0.49455308145E+03  0.50273411270E+03  0.90326284673E+02 0.  0.
    9000005    2    3    3    0    0  0.37506018184E+02 -0.24862409864E+02  0.23909726446E+03  0.24334537884E+03  0.49629328864E+01 0.  0.
         22    1    3    3    0    0 -0.37506018184E+02  0.24862409864E+02  0.25545581699E+03  0.25938873386E+03  0.00000000000E+00 0. -1.
         22    1    4    4    0    0  0.25916727480E+02 -0.17378089380E+02  0.17752341546E+03  0.18024493832E+03  0.00000000000E+00 0. -1.
         22    1    4    4    0    0  0.11589290704E+02 -0.74843204839E+01  0.61573849006E+02  0.63100440518E+02  0.00000000000E+00 0. -1.
<mgrwt>
<rscale>  0 0.90326285E+02</rscale>
<asrwt>0</asrwt>
<pdfrwt beam="1">  1        1 0.76714326E-01 0.90326285E+02</pdfrwt>
<pdfrwt beam="2">  1       -1 0.62931070E-03 0.90326285E+02</pdfrwt>
<totfact> 0.14271877E+05</totfact>
</mgrwt>
</event>
<event>
 7    1  0.3301067E-009  0.9068362E+02  0.7818608E-02  0.1301205E+00
          1   -1    0    0  501    0  0.00000000000E+00  0.00000000000E+00  0.71132103490E+02  0.71132103668E+02  0.50400000000E-02 0. -1.
         -1   -1    0    0    0  501 -0.00000000000E+00 -0.00000000000E+00 -0.28902275891E+02  0.28902276330E+02  0.50400000000E-02 0.  1.
         23    2    1    2    0    0  0.00000000000E+00  0.00000000000E+00  0.42229827599E+02  0.10003438000E+03  0.90683619484E+02 0.  0.
    9000005    2    3    3    0    0 -0.16033122804E+02  0.10515682622E+02  0.66346398460E+02  0.69224485517E+02  0.47480731528E+01 0.  0.
         22    1    3    3    0    0  0.16033122804E+02 -0.10515682622E+02 -0.24116570861E+02  0.30809894481E+02  0.00000000000E+00 0.  1.
         22    1    4    4    0    0 -0.89026367558E+01  0.83785566127E+01  0.44262050518E+02  0.45919345250E+02  0.00000000000E+00 0.  1.
         22    1    4    4    0    0 -0.71304860479E+01  0.21371260097E+01  0.22084347942E+02  0.23305140268E+02  0.00000000000E+00 0.  1.
<mgrwt>
<rscale>  0 0.90683619E+02</rscale>
<asrwt>0</asrwt>
<pdfrwt beam="1">  1        1 0.10943401E-01 0.90683619E+02</pdfrwt>
<pdfrwt beam="2">  1       -1 0.44465040E-02 0.90683619E+02</pdfrwt>
<totfact> 0.10040060E+05</totfact>
</mgrwt>
</event>
<event>
 7    1  0.6609288E-009  0.9041848E+02  0.7818608E-02  0.1301841E+00
         -1   -1    0    0    0  501 -0.00000000000E+00  0.00000000000E+00  0.78957523914E+02  0.78957524074E+02  0.50400000000E-02 0.  1.
          1   -1    0    0  501    0  0.00000000000E+00 -0.00000000000E+00 -0.25885757207E+02  0.25885757697E+02  0.50400000000E-02 0. -1.
         23    2    1    2    0    0 -0.35527136788E-14 -0.88817841970E-15  0.53071766707E+02  0.10484328177E+03  0.90418478815E+02 0.  0.
    9000005    2    3    3    0    0  0.20625190197E+02  0.69198914900E+01  0.71457489957E+02  0.76359634036E+02  0.15853626408E+02 0.  0.
         22    1    3    3    0    0 -0.20625190197E+02 -0.69198914900E+01 -0.18385723250E+02  0.28483647735E+02  0.00000000000E+00 0. -1.
         22    1    4    4    0    0  0.14169558771E+02 -0.19483560237E+01  0.52930800748E+02  0.54829208956E+02  0.00000000000E+00 0. -1.
         22    1    4    4    0    0  0.64556314259E+01  0.88682475137E+01  0.18526689209E+02  0.21530425080E+02  0.00000000000E+00 0. -1.
<mgrwt>
<rscale>  0 0.90418479E+02</rscale>
<asrwt>0</asrwt>
<pdfrwt beam="2">  1        1 0.39824243E-02 0.90418479E+02</pdfrwt>
<pdfrwt beam="1">  1       -1 0.12147311E-01 0.90418479E+02</pdfrwt>
<totfact> 0.86669367E+04</totfact>
</mgrwt>
</event>
<event>
 7    1  0.3301067E-009  0.8822158E+02  0.7818608E-02  0.1307216E+00
          1   -1    0    0  501    0  0.00000000000E+00  0.00000000000E+00  0.46445182900E+03  0.46445182903E+03  0.50400000000E-02 0. -1.
         -1   -1    0    0    0  501 -0.00000000000E+00 -0.00000000000E+00 -0.41893713571E+01  0.41893743888E+01  0.50400000000E-02 0.  1.
         23    2    1    2    0    0  0.00000000000E+00  0.00000000000E+00  0.46026245765E+03  0.46864120342E+03  0.88221582529E+02 0.  0.
    9000005    2    3    3    0    0 -0.26338357939E+02 -0.25010857811E+02  0.35941556663E+03  0.36145282935E+03  0.12220728456E+02 0.  0.
         22    1    3    3    0    0  0.26338357939E+02  0.25010857811E+02  0.10084689102E+03  0.10718837407E+03  0.00000000000E+00 0.  1.
         22    1    4    4    0    0 -0.15065440158E+02 -0.14935425201E+02  0.15006944227E+03  0.15156144601E+03  0.00000000000E+00 0.  1.
         22    1    4    4    0    0 -0.11272917781E+02 -0.10075432610E+02  0.20934612436E+03  0.20989138334E+03  0.00000000000E+00 0.  1.
<mgrwt>
<rscale>  0 0.88221583E+02</rscale>
<asrwt>0</asrwt>
<pdfrwt beam="1">  1        1 0.71454076E-01 0.88221583E+02</pdfrwt>
<pdfrwt beam="2">  1       -1 0.64451938E-03 0.88221583E+02</pdfrwt>
<totfact> 0.15053393E+05</totfact>
</mgrwt>
</event>
<event>
 7    1  0.3301067E-009  0.9142509E+02  0.7818608E-02  0.1299437E+00
          1   -1    0    0  501    0  0.00000000000E+00  0.00000000000E+00  0.83751663076E+02  0.83751663228E+02  0.50400000000E-02 0. -1.
         -1   -1    0    0    0  501 -0.00000000000E+00 -0.00000000000E+00 -0.24950393488E+02  0.24950393997E+02  0.50400000000E-02 0.  1.
         23    2    1    2    0    0  0.17763568394E-14  0.35527136788E-14  0.58801269588E+02  0.10870205723E+03  0.91425094694E+02 0.  0.
    9000005    2    3    3    0    0 -0.14561167588E+02  0.22033278370E+02  0.73350084102E+02  0.78549761110E+02  0.96092234581E+01 0.  0.
         22    1    3    3    0    0  0.14561167588E+02 -0.22033278370E+02 -0.14548814514E+02  0.30152296115E+02  0.00000000000E+00 0.  1.
         22    1    4    4    0    0 -0.49114366620E+01  0.15592728271E+01  0.95152429621E+01  0.10820969941E+02  0.00000000000E+00 0.  1.
         22    1    4    4    0    0 -0.96497309255E+01  0.20474005543E+02  0.63834841140E+02  0.67728791170E+02  0.00000000000E+00 0.  1.
<mgrwt>
<rscale>  0 0.91425095E+02</rscale>
<asrwt>0</asrwt>
<pdfrwt beam="1">  1        1 0.12884872E-01 0.91425095E+02</pdfrwt>
<pdfrwt beam="2">  1       -1 0.38385220E-02 0.91425095E+02</pdfrwt>
<totfact> 0.10072473E+05</totfact>
</mgrwt>
</event>
<event>
 7    1  0.3301067E-009  0.9036414E+02  0.7818608E-02  0.1301972E+00
         -1   -1    0    0    0  501 -0.00000000000E+00  0.00000000000E+00  0.40820624645E+01  0.40820655758E+01  0.50400000000E-02 0.  1.
          1   -1    0    0  501    0  0.00000000000E+00 -0.00000000000E+00 -0.50009489907E+03  0.50009489909E+03  0.50400000000E-02 0. -1.
         23    2    1    2    0    0  0.00000000000E+00  0.35527136788E-14 -0.49601283660E+03  0.50417696467E+03  0.90364139057E+02 0.  0.
    9000005    2    3    3    0    0 -0.18533370577E+02  0.21940665895E+02 -0.44255524474E+03  0.44349259458E+03  0.23786885103E+01 0.  0.
         22    1    3    3    0    0  0.18533370577E+02 -0.21940665895E+02 -0.53457591867E+02  0.60684370088E+02  0.00000000000E+00 0.  1.
         22    1    4    4    0    0 -0.89762820291E+01  0.88675641822E+01 -0.18885701164E+03  0.18927804463E+03  0.00000000000E+00 0. -1.
         22    1    4    4    0    0 -0.95570885481E+01  0.13073101712E+02 -0.25369823310E+03  0.25421454995E+03  0.00000000000E+00 0. -1.
<mgrwt>
<rscale>  0 0.90364139E+02</rscale>
<asrwt>0</asrwt>
<pdfrwt beam="2">  1        1 0.76937628E-01 0.90364139E+02</pdfrwt>
<pdfrwt beam="1">  1       -1 0.62801025E-03 0.90364139E+02</pdfrwt>
<totfact> 0.14260958E+05</totfact>
</mgrwt>
</event>
<event>
 6    1  0.3301067E-009  0.1291398E+03  0.7818608E-02  0.1228738E+00
          1   -1    0    0  501    0  0.00000000000E+00  0.00000000000E+00  0.45685046015E+02  0.45685046293E+02  0.50400000000E-02 0. -1.
         -1   -1    0    0    0  501 -0.00000000000E+00 -0.00000000000E+00 -0.91261172645E+02  0.91261172784E+02  0.50400000000E-02 0.  1.
    9000005    2    1    2    0    0 -0.68923455275E+01 -0.27360912243E+02  0.38326540160E+02  0.48426269686E+02  0.89474001523E+01 0.  0.
         22    1    1    2    0    0  0.68923455275E+01  0.27360912243E+02 -0.83902666790E+02  0.88519949390E+02  0.00000000000E+00 0.  1.
         22    1    3    3    0    0 -0.36557907727E+01 -0.16678076775E+02  0.15695233128E+02  0.23191882072E+02  0.00000000000E+00 0.  1.
         22    1    3    3    0    0 -0.32365547548E+01 -0.10682835467E+02  0.22631307032E+02  0.25234387614E+02  0.00000000000E+00 0.  1.
<mgrwt>
<rscale>  0 0.12913978E+03</rscale>
<asrwt>0</asrwt>
<pdfrwt beam="1">  1        1 0.70284687E-02 0.12913978E+03</pdfrwt>
<pdfrwt beam="2">  1       -1 0.14040180E-01 0.12913978E+03</pdfrwt>
<totfact> 0.33742862E+04</totfact>
</mgrwt>
</event>
<event>
 7    1  0.3301067E-009  0.8692655E+02  0.7818608E-02  0.1310470E+00
         -1   -1    0    0    0  501 -0.00000000000E+00  0.00000000000E+00  0.43762416606E+01  0.43762445628E+01  0.50400000000E-02 0.  1.
          1   -1    0    0  501    0  0.00000000000E+00 -0.00000000000E+00 -0.43166160812E+03  0.43166160815E+03  0.50400000000E-02 0. -1.
         23    2    1    2    0    0  0.00000000000E+00  0.35527136788E-14 -0.42728536646E+03  0.43603785272E+03  0.86926547197E+02 0.  0.
    9000005    2    3    3    0    0  0.29507671283E+02 -0.23190794733E+02 -0.32249459650E+03  0.32472917788E+03  0.61448000811E+01 0.  0.
         22    1    3    3    0    0 -0.29507671283E+02  0.23190794733E+02 -0.10479076996E+03  0.11130867483E+03  0.00000000000E+00 0.  1.
         22    1    4    4    0    0  0.28215919967E+02 -0.23389071741E+02 -0.30708491615E+03  0.30926417921E+03  0.00000000000E+00 0. -1.
         22    1    4    4    0    0  0.12917513155E+01  0.19827700762E+00 -0.15409680353E+02  0.15464998668E+02  0.00000000000E+00 0. -1.
<mgrwt>
<rscale>  0 0.86926547E+02</rscale>
<asrwt>0</asrwt>
<pdfrwt beam="2">  1        1 0.66409445E-01 0.86926547E+02</pdfrwt>
<pdfrwt beam="1">  1       -1 0.67326851E-03 0.86926547E+02</pdfrwt>
<totfact> 0.15490183E+05</totfact>
</mgrwt>
</event>
<event>
 7    1  0.3301067E-009  0.8868979E+02  0.7818608E-02  0.1306056E+00
          1   -1    0    0  501    0  0.00000000000E+00  0.00000000000E+00  0.37225911198E+02  0.37225911539E+02  0.50400000000E-02 0. -1.
         -1   -1    0    0    0  501 -0.00000000000E+00 -0.00000000000E+00 -0.52825291578E+02  0.52825291819E+02  0.50400000000E-02 0.  1.
         23    2    1    2    0    0  0.00000000000E+00 -0.88817841970E-15 -0.15599380380E+02  0.90051203358E+02  0.88689788352E+02 0.  0.
    9000005    2    3    3    0    0 -0.22126552429E+02  0.74872624358E+01  0.29584256310E+02  0.39186633707E+02  0.10710771154E+02 0.  0.
         22    1    3    3    0    0  0.22126552429E+02 -0.74872624358E+01 -0.45183636691E+02  0.50864569651E+02  0.00000000000E+00 0.  1.
         22    1    4    4    0    0 -0.29619973680E+01  0.46585339747E+01  0.11166570630E+02  0.12456631440E+02  0.00000000000E+00 0. -1.
         22    1    4    4    0    0 -0.19164555061E+02  0.28287284611E+01  0.18417685681E+02  0.26730002267E+02  0.00000000000E+00 0. -1.
<mgrwt>
<rscale>  0 0.88689788E+02</rscale>
<asrwt>0</asrwt>
<pdfrwt beam="1">  1        1 0.57270633E-02 0.88689788E+02</pdfrwt>
<pdfrwt beam="2">  1       -1 0.81269680E-02 0.88689788E+02</pdfrwt>
<totfact> 0.96963622E+04</totfact>
</mgrwt>
</event>
<event>
 7    1  0.3301067E-009  0.9263413E+02  0.7818608E-02  0.1296595E+00
          1   -1    0    0  501    0  0.00000000000E+00  0.00000000000E+00  0.25972115895E+03  0.25972115900E+03  0.50400000000E-02 0. -1.
         -1   -1    0    0    0  501 -0.00000000000E+00 -0.00000000000E+00 -0.82598980824E+01  0.82598996201E+01  0.50400000000E-02 0.  1.
         23    2    1    2    0    0  0.00000000000E+00  0.00000000000E+00  0.25146126087E+03  0.26798105862E+03  0.92634130111E+02 0.  0.
    9000005    2    3    3    0    0 -0.61638939797E+01 -0.10295624715E+02  0.25486418556E+03  0.25550815304E+03  0.13589323431E+02 0.  0.
         22    1    3    3    0    0  0.61638939797E+01  0.10295624715E+02 -0.34029246883E+01  0.12472905583E+02  0.00000000000E+00 0.  1.
         22    1    4    4    0    0  0.15652780265E+00  0.17129997793E+01  0.52345782048E+01  0.55099617221E+01  0.00000000000E+00 0.  1.
         22    1    4    4    0    0 -0.63204217823E+01 -0.12008624494E+02  0.24962960735E+03  0.24999819131E+03  0.00000000000E+00 0.  1.
<mgrwt>
<rscale>  0 0.92634130E+02</rscale>
<asrwt>0</asrwt>
<pdfrwt beam="1">  1        1 0.39957089E-01 0.92634130E+02</pdfrwt>
<pdfrwt beam="2">  1       -1 0.12707541E-02 0.92634130E+02</pdfrwt>
<totfact> 0.11942117E+05</totfact>
</mgrwt>
</event>
<event>
 7    1  0.3301067E-009  0.9110905E+02  0.7818608E-02  0.1300188E+00
          1   -1    0    0  501    0  0.00000000000E+00  0.00000000000E+00  0.78421880672E+03  0.78421880674E+03  0.50400000000E-02 0. -1.
         -1   -1    0    0    0  501 -0.00000000000E+00 -0.00000000000E+00 -0.26462164419E+01  0.26462212415E+01  0.50400000000E-02 0.  1.
         23    2    1    2    0    0  0.00000000000E+00 -0.17763568394E-14  0.78157259028E+03  0.78686502798E+03  0.91109046644E+02 0.  0.
    9000005    2    3    3    0    0 -0.95713837122E+01  0.12718827590E+02  0.75913370082E+03  0.75935350818E+03  0.89663094144E+01 0.  0.
         22    1    3    3    0    0  0.95713837122E+01 -0.12718827590E+02  0.22438889459E+02  0.27511519797E+02  0.00000000000E+00 0.  1.
         22    1    4    4    0    0 -0.31715953688E+01  0.11194789374E+02  0.51268551152E+03  0.51281752705E+03  0.00000000000E+00 0.  1.
         22    1    4    4    0    0 -0.63997883434E+01  0.15240382161E+01  0.24644818929E+03  0.24653598113E+03  0.00000000000E+00 0.  1.
<mgrwt>
<rscale>  0 0.91109047E+02</rscale>
<asrwt>0</asrwt>
<pdfrwt beam="1">  1        1 0.12064908E+00 0.91109047E+02</pdfrwt>
<pdfrwt beam="2">  1       -1 0.40711048E-03 0.91109047E+02</pdfrwt>
<totfact> 0.14180510E+05</totfact>
</mgrwt>
</event>
<event>
 7    1  0.3301067E-009  0.9080845E+02  0.7818608E-02  0.1300906E+00
          1   -1    0    0  501    0  0.00000000000E+00  0.00000000000E+00  0.75375631689E+02  0.75375631858E+02  0.50400000000E-02 0. -1.
         -1   -1    0    0    0  501 -0.00000000000E+00 -0.00000000000E+00 -0.27350265508E+02  0.27350265972E+02  0.50400000000E-02 0.  1.
         23    2    1    2    0    0 -0.35527136788E-14  0.00000000000E+00  0.48025366181E+02  0.10272589783E+03  0.90808448330E+02 0.  0.
    9000005    2    3    3    0    0 -0.23629623495E+02 -0.38178334793E+02  0.23858463795E+02  0.51735864245E+02  0.95618513076E+01 0.  0.
         22    1    3    3    0    0  0.23629623495E+02  0.38178334793E+02  0.24166902386E+02  0.50990033585E+02  0.00000000000E+00 0. -1.
         22    1    4    4    0    0  0.88600054543E-01 -0.29883601836E+01  0.36929889677E+01  0.47514538903E+01  0.00000000000E+00 0.  1.
         22    1    4    4    0    0 -0.23718223549E+02 -0.35189974610E+02  0.20165474827E+02  0.46984410355E+02  0.00000000000E+00 0.  1.
<mgrwt>
<rscale>  0 0.90808448E+02</rscale>
<asrwt>0</asrwt>
<pdfrwt beam="1">  1        1 0.11596251E-01 0.90808448E+02</pdfrwt>
<pdfrwt beam="2">  1       -1 0.42077332E-02 0.90808448E+02</pdfrwt>
<totfact> 0.10092419E+05</totfact>
</mgrwt>
</event>
<event>
 7    1  0.3301067E-009  0.8998761E+02  0.7818608E-02  0.1302882E+00
          1   -1    0    0  501    0  0.00000000000E+00  0.00000000000E+00  0.50458606836E+02  0.50458607087E+02  0.50400000000E-02 0. -1.
         -1   -1    0    0    0  501 -0.00000000000E+00 -0.00000000000E+00 -0.40120859027E+02  0.40120859343E+02  0.50400000000E-02 0.  1.
         23    2    1    2    0    0  0.00000000000E+00  0.00000000000E+00  0.10337747809E+02  0.90579466431E+02  0.89987614199E+02 0.  0.
    9000005    2    3    3    0    0 -0.17848642113E+02 -0.24139634695E+02  0.37517778911E+02  0.50081934664E+02  0.14118089703E+02 0.  0.
         22    1    3    3    0    0  0.17848642113E+02  0.24139634695E+02 -0.27180031102E+02  0.40497531767E+02  0.00000000000E+00 0.  1.
         22    1    4    4    0    0 -0.17065683612E+02 -0.20979785988E+02  0.38152334165E+02  0.46765260391E+02  0.00000000000E+00 0. -1.
         22    1    4    4    0    0 -0.78295850138E+00 -0.31598487064E+01 -0.63455525412E+00  0.33166742730E+01  0.00000000000E+00 0. -1.
<mgrwt>
<rscale>  0 0.89987614E+02</rscale>
<asrwt>0</asrwt>
<pdfrwt beam="1">  1        1 0.77628626E-02 0.89987614E+02</pdfrwt>
<pdfrwt beam="2">  1       -1 0.61724399E-02 0.89987614E+02</pdfrwt>
<totfact> 0.97394269E+04</totfact>
</mgrwt>
</event>
<event>
 7    1  0.3301067E-009  0.9479010E+02  0.7818608E-02  0.1291650E+00
          1   -1    0    0  501    0  0.00000000000E+00  0.00000000000E+00  0.12567212156E+02  0.12567213167E+02  0.50400000000E-02 0. -1.
         -1   -1    0    0    0  501 -0.00000000000E+00 -0.00000000000E+00 -0.17874217068E+03  0.17874217075E+03  0.50400000000E-02 0.  1.
         23    2    1    2    0    0 -0.55511151231E-16  0.17763568394E-14 -0.16617495852E+03  0.19130938392E+03  0.94790102514E+02 0.  0.
    9000005    2    3    3    0    0 -0.36619458883E+00 -0.15014579877E+02 -0.17376076869E+03  0.17448332605E+03  0.51043733102E+01 0.  0.
         22    1    3    3    0    0  0.36619458883E+00  0.15014579877E+02  0.75858101682E+01  0.16826057864E+02  0.00000000000E+00 0. -1.
         22    1    4    4    0    0 -0.13521656554E+01 -0.13050009080E+01 -0.32872080264E+02  0.32925750412E+02  0.00000000000E+00 0.  1.
         22    1    4    4    0    0  0.98597106653E+00 -0.13709578969E+02 -0.14088868843E+03  0.14155757564E+03  0.00000000000E+00 0.  1.
<mgrwt>
<rscale>  0 0.94790103E+02</rscale>
<asrwt>0</asrwt>
<pdfrwt beam="1">  1        1 0.19334175E-02 0.94790103E+02</pdfrwt>
<pdfrwt beam="2">  1       -1 0.27498794E-01 0.94790103E+02</pdfrwt>
<totfact> 0.64704108E+04</totfact>
</mgrwt>
</event>
<event>
 7    1  0.3301067E-009  0.9178512E+02  0.7818608E-02  0.1298585E+00
          1   -1    0    0  501    0  0.00000000000E+00  0.00000000000E+00  0.27856815200E+03  0.27856815204E+03  0.50400000000E-02 0. -1.
         -1   -1    0    0    0  501 -0.00000000000E+00 -0.00000000000E+00 -0.75605442700E+01  0.75605459499E+01  0.50400000000E-02 0.  1.
         23    2    1    2    0    0  0.71054273576E-14  0.35527136788E-14  0.27100760773E+03  0.28612869799E+03  0.91785120629E+02 0.  0.
    9000005    2    3    3    0    0 -0.39598879680E+02 -0.20068733113E+02  0.12406645876E+03  0.13262779708E+03  0.15060579300E+02 0.  0.
         22    1    3    3    0    0  0.39598879680E+02  0.20068733113E+02  0.14694114896E+03  0.15350090091E+03  0.00000000000E+00 0.  1.
         22    1    4    4    0    0 -0.20267240913E+02 -0.27798665155E+01  0.45389537606E+02  0.49786532679E+02  0.00000000000E+00 0. -1.
         22    1    4    4    0    0 -0.19331638767E+02 -0.17288866598E+02  0.78676921155E+02  0.82841264404E+02  0.00000000000E+00 0. -1.
<mgrwt>
<rscale>  0 0.91785121E+02</rscale>
<asrwt>0</asrwt>
<pdfrwt beam="1">  1        1 0.42856633E-01 0.91785121E+02</pdfrwt>
<pdfrwt beam="2">  1       -1 0.11631610E-02 0.91785121E+02</pdfrwt>
<totfact> 0.12408490E+05</totfact>
</mgrwt>
</event>
<event>
 7    1  0.3301067E-009  0.9158500E+02  0.7818608E-02  0.1299058E+00
         -1   -1    0    0    0  501 -0.00000000000E+00  0.00000000000E+00  0.83884984027E+02  0.83884984178E+02  0.50400000000E-02 0.  1.
          1   -1    0    0  501    0  0.00000000000E+00 -0.00000000000E+00 -0.24997952457E+02  0.24997952965E+02  0.50400000000E-02 0. -1.
         23    2    1    2    0    0  0.00000000000E+00  0.00000000000E+00  0.58887031570E+02  0.10888293714E+03  0.91584996117E+02 0.  0.
    9000005    2    3    3    0    0 -0.90896341768E+01 -0.43985133809E+02  0.26338944860E+02  0.53415005920E+02  0.11920964536E+02 0.  0.
         22    1    3    3    0    0  0.90896341768E+01  0.43985133809E+02  0.32548086710E+02  0.55467931223E+02  0.00000000000E+00 0. -1.
         22    1    4    4    0    0 -0.35794124684E+01 -0.31468517686E+02  0.23525277371E+02  0.39452737223E+02  0.00000000000E+00 0. -1.
         22    1    4    4    0    0 -0.55102217083E+01 -0.12516616123E+02  0.28136674888E+01  0.13962268697E+02  0.00000000000E+00 0. -1.
<mgrwt>
<rscale>  0 0.91584996E+02</rscale>
<asrwt>0</asrwt>
<pdfrwt beam="2">  1        1 0.38458389E-02 0.91584996E+02</pdfrwt>
<pdfrwt beam="1">  1       -1 0.12905382E-01 0.91584996E+02</pdfrwt>
<totfact> 0.83011673E+04</totfact>
</mgrwt>
</event>
<event>
 7    1  0.4655635E-009  0.9036453E+02  0.7818608E-02  0.1301971E+00
         -1   -1    0    0    0  501 -0.00000000000E+00  0.00000000000E+00  0.51926198146E+02  0.51926198391E+02  0.50400000000E-02 0.  1.
          1   -1    0    0  501    0  0.00000000000E+00 -0.00000000000E+00 -0.39314203848E+02  0.39314204171E+02  0.50400000000E-02 0. -1.
         23    2    1    2    0    0  0.00000000000E+00  0.00000000000E+00  0.12611994299E+02  0.91240402561E+02  0.90364532087E+02 0.  0.
    9000005    2    3    3    0    0  0.95034986792E+01  0.66181083297E+01  0.49520762654E+02  0.52557421464E+02  0.13261250773E+02 0.  0.
         22    1    3    3    0    0 -0.95034986792E+01 -0.66181083297E+01 -0.36908768356E+02  0.38682981097E+02  0.00000000000E+00 0. -1.
         22    1    4    4    0    0  0.90799833899E+01  0.18466659031E+01  0.45090177643E+02  0.46032384179E+02  0.00000000000E+00 0.  1.
         22    1    4    4    0    0  0.42351528939E+00  0.47714424265E+01  0.44305850114E+01  0.65250372852E+01  0.00000000000E+00 0.  1.
<mgrwt>
<rscale>  0 0.90364532E+02</rscale>
<asrwt>0</asrwt>
<pdfrwt beam="2">  1        1 0.60483391E-02 0.90364532E+02</pdfrwt>
<pdfrwt beam="1">  1       -1 0.79886459E-02 0.90364532E+02</pdfrwt>
<totfact> 0.92739167E+04</totfact>
</mgrwt>
</event>
<event>
 7    1  0.3301067E-009  0.9153356E+02  0.7818608E-02  0.1299180E+00
         -1   -1    0    0    0  501 -0.00000000000E+00  0.00000000000E+00  0.36844077185E+03  0.36844077188E+03  0.50400000000E-02 0. -1.
          1   -1    0    0  501    0  0.00000000000E+00 -0.00000000000E+00 -0.56850330220E+01  0.56850352561E+01  0.50400000000E-02 0.  1.
         23    2    1    2    0    0  0.00000000000E+00  0.71054273576E-14  0.36275573883E+03  0.37412580714E+03  0.91533564969E+02 0.  0.
    9000005    2    3    3    0    0 -0.10630053989E+02  0.43297344220E+02  0.15610506800E+03  0.16272060896E+03  0.11024802068E+02 0.  0.
         22    1    3    3    0    0  0.10630053989E+02 -0.43297344220E+02  0.20665067082E+03  0.21140519818E+03  0.00000000000E+00 0. -1.
         22    1    4    4    0    0 -0.98543116610E+01  0.42686780797E+02  0.15552078318E+03  0.16157345919E+03  0.00000000000E+00 0. -1.
         22    1    4    4    0    0 -0.77574232838E+00  0.61056342233E+00  0.58428482542E+00  0.11471497766E+01  0.00000000000E+00 0. -1.
<mgrwt>
<rscale>  0 0.91533565E+02</rscale>
<asrwt>0</asrwt>
<pdfrwt beam="2">  1        1 0.87462040E-03 0.91533565E+02</pdfrwt>
<pdfrwt beam="1">  1       -1 0.56683211E-01 0.91533565E+02</pdfrwt>
<totfact> 0.54902122E+04</totfact>
</mgrwt>
</event>
<event>
 7    1  0.3301067E-009  0.9050162E+02  0.7818608E-02  0.1301641E+00
          1   -1    0    0  501    0  0.00000000000E+00  0.00000000000E+00  0.33124800906E+02  0.33124801290E+02  0.50400000000E-02 0. -1.
         -1   -1    0    0    0  501 -0.00000000000E+00 -0.00000000000E+00 -0.61815791196E+02  0.61815791401E+02  0.50400000000E-02 0.  1.
         23    2    1    2    0    0  0.00000000000E+00  0.00000000000E+00 -0.28690990290E+02  0.94940592691E+02  0.90501619968E+02 0.  0.
    9000005    2    3    3    0    0 -0.16020714800E+02  0.90549691093E+01 -0.56597395442E+02  0.61512711861E+02  0.15552902670E+02 0.  0.
         22    1    3    3    0    0  0.16020714800E+02 -0.90549691093E+01  0.27906405152E+02  0.33427880830E+02  0.00000000000E+00 0. -1.
         22    1    4    4    0    0 -0.13647695435E+02  0.13379769344E+02 -0.46507291807E+02  0.50281268974E+02  0.00000000000E+00 0.  1.
         22    1    4    4    0    0 -0.23730193645E+01 -0.43248002347E+01 -0.10090103635E+02  0.11231442888E+02  0.00000000000E+00 0.  1.
<mgrwt>
<rscale>  0 0.90501620E+02</rscale>
<asrwt>0</asrwt>
<pdfrwt beam="1">  1        1 0.50961233E-02 0.90501620E+02</pdfrwt>
<pdfrwt beam="2">  1       -1 0.95101218E-02 0.90501620E+02</pdfrwt>
<totfact> 0.89948449E+04</totfact>
</mgrwt>
</event>
<event>
 7    1  0.3301067E-009  0.9000273E+02  0.7818608E-02  0.1302845E+00
          1   -1    0    0  501    0  0.00000000000E+00  0.00000000000E+00  0.87357211855E+01  0.87357226394E+01  0.50400000000E-02 0. -1.
         -1   -1    0    0    0  501 -0.00000000000E+00 -0.00000000000E+00 -0.23182086988E+03  0.23182086994E+03  0.50400000000E-02 0.  1.
         23    2    1    2    0    0  0.00000000000E+00  0.00000000000E+00 -0.22308514870E+03  0.24055659258E+03  0.90002725864E+02 0.  0.
    9000005    2    3    3    0    0 -0.17723153555E+02  0.35542726247E+02 -0.16364153740E+03  0.16906576460E+03  0.15075955545E+02 0.  0.
         22    1    3    3    0    0  0.17723153555E+02 -0.35542726247E+02 -0.59443611297E+02  0.71490827979E+02  0.00000000000E+00 0.  1.
         22    1    4    4    0    0  0.94537162846E+00  0.10650484614E+02 -0.56264522950E+02  0.57271485862E+02  0.00000000000E+00 0.  1.
         22    1    4    4    0    0 -0.18668525183E+02  0.24892241634E+02 -0.10737701445E+03  0.11179427874E+03  0.00000000000E+00 0.  1.
<mgrwt>
<rscale>  0 0.90002726E+02</rscale>
<asrwt>0</asrwt>
<pdfrwt beam="1">  1        1 0.13439574E-02 0.90002726E+02</pdfrwt>
<pdfrwt beam="2">  1       -1 0.35664745E-01 0.90002726E+02</pdfrwt>
<totfact> 0.68675559E+04</totfact>
</mgrwt>
</event>
<event>
 7    1  0.3301067E-009  0.9209059E+02  0.7818608E-02  0.1297867E+00
          1   -1    0    0  501    0  0.00000000000E+00  0.00000000000E+00  0.45248043211E+03  0.45248043214E+03  0.50400000000E-02 0. -1.
         -1   -1    0    0    0  501 -0.00000000000E+00 -0.00000000000E+00 -0.46856576634E+01  0.46856603740E+01  0.50400000000E-02 0.  1.
         23    2    1    2    0    0  0.00000000000E+00  0.00000000000E+00  0.44779477445E+03  0.45716609252E+03  0.92090586496E+02 0.  0.
    9000005    2    3    3    0    0  0.47857093595E+01 -0.22712162318E+02  0.42130129711E+03  0.42194323527E+03  0.16017205803E+01 0.  0.
         22    1    3    3    0    0 -0.47857093595E+01  0.22712162318E+02  0.26493477339E+02  0.35222857249E+02  0.00000000000E+00 0.  1.
         22    1    4    4    0    0  0.44280122770E+01 -0.20422132024E+02  0.38694498069E+03  0.38750882423E+03  0.00000000000E+00 0. -1.
         22    1    4    4    0    0  0.35769708246E+00 -0.22900302945E+01  0.34356316419E+02  0.34434411042E+02  0.00000000000E+00 0. -1.
<mgrwt>
<rscale>  0 0.92090586E+02</rscale>
<asrwt>0</asrwt>
<pdfrwt beam="1">  1        1 0.69612370E-01 0.92090586E+02</pdfrwt>
<pdfrwt beam="2">  1       -1 0.72087067E-03 0.92090586E+02</pdfrwt>
<totfact> 0.13387358E+05</totfact>
</mgrwt>
</event>
<event>
 7    1  0.3301067E-009  0.1121153E+03  0.7818608E-02  0.1256702E+00
          1   -1    0    0  501    0  0.00000000000E+00  0.00000000000E+00  0.84338581023E+03  0.84338581024E+03  0.50400000000E-02 0. -1.
         -1   -1    0    0    0  501 -0.00000000000E+00 -0.00000000000E+00 -0.37260046282E+01  0.37260080369E+01  0.50400000000E-02 0.  1.
         23    2    1    2    0    0  0.00000000000E+00  0.17763568394E-14  0.83965980560E+03  0.84711181828E+03  0.11211531354E+03 0.  0.
    9000005    2    3    3    0    0 -0.32909014114E+02  0.15585546520E+02  0.73954148798E+03  0.74057736379E+03  0.14398154246E+02 0.  0.
         22    1    3    3    0    0  0.32909014114E+02 -0.15585546520E+02  0.10011831762E+03  0.10653445449E+03  0.00000000000E+00 0.  1.
         22    1    4    4    0    0 -0.15068122765E+02  0.56399053357E+01  0.46445662695E+03  0.46473520975E+03  0.00000000000E+00 0. -1.
         22    1    4    4    0    0 -0.17840891349E+02  0.99456411844E+01  0.27508486102E+03  0.27584215404E+03  0.00000000000E+00 0. -1.
<mgrwt>
<rscale>  0 0.11211531E+03</rscale>
<asrwt>0</asrwt>
<pdfrwt beam="1">  1        1 0.12975175E+00 0.11211531E+03</pdfrwt>
<pdfrwt beam="2">  1       -1 0.57323135E-03 0.11211531E+03</pdfrwt>
<totfact> 0.80918280E+04</totfact>
</mgrwt>
</event>
<event>
 7    1  0.3448094E-009  0.8890652E+02  0.7818608E-02  0.1305522E+00
          1   -1    0    0  501    0  0.00000000000E+00  0.00000000000E+00  0.97947724918E+01  0.97947737885E+01  0.50400000000E-02 0. -1.
         -1   -1    0    0    0  501 -0.00000000000E+00 -0.00000000000E+00 -0.20174968054E+03  0.20174968060E+03  0.50400000000E-02 0.  1.
         23    2    1    2    0    0 -0.35527136788E-14  0.00000000000E+00 -0.19195490805E+03  0.21154445439E+03  0.88906520908E+02 0.  0.
    9000005    2    3    3    0    0  0.28746932717E+02 -0.55000587090E+01 -0.17441070105E+03  0.17742062129E+03  0.14224887723E+02 0.  0.
         22    1    3    3    0    0 -0.28746932717E+02  0.55000587090E+01 -0.17544206994E+02  0.34123833100E+02  0.00000000000E+00 0. -1.
         22    1    4    4    0    0 -0.40224380727E+00  0.92879882505E-01 -0.29431321097E+02  0.29434216284E+02  0.00000000000E+00 0. -1.
         22    1    4    4    0    0  0.29149176524E+02 -0.55929385915E+01 -0.14497937996E+03  0.14798640501E+03  0.00000000000E+00 0. -1.
<mgrwt>
<rscale>  0 0.88906521E+02</rscale>
<asrwt>0</asrwt>
<pdfrwt beam="1">  1        1 0.15068883E-02 0.88906521E+02</pdfrwt>
<pdfrwt beam="2">  1       -1 0.31038409E-01 0.88906521E+02</pdfrwt>
<totfact> 0.73947125E+04</totfact>
</mgrwt>
</event>
<event>
 7    1  0.3301067E-009  0.9066926E+02  0.7818608E-02  0.1301239E+00
          1   -1    0    0  501    0  0.00000000000E+00  0.00000000000E+00  0.40886546663E+02  0.40886546973E+02  0.50400000000E-02 0. -1.
         -1   -1    0    0    0  501 -0.00000000000E+00 -0.00000000000E+00 -0.50266624072E+02  0.50266624325E+02  0.50400000000E-02 0.  1.
         23    2    1    2    0    0  0.00000000000E+00  0.71054273576E-14 -0.93800774096E+01  0.91153171298E+02  0.90669260422E+02 0.  0.
    9000005    2    3    3    0    0  0.10977095036E+02  0.37146916166E+02 -0.27797339128E+02  0.48262781637E+02  0.74976017950E+01 0.  0.
         22    1    3    3    0    0 -0.10977095036E+02 -0.37146916166E+02  0.18417261719E+02  0.42890389661E+02  0.00000000000E+00 0. -1.
         22    1    4    4    0    0  0.31472517663E+01  0.98779836509E+01 -0.35998643813E+01  0.10974460272E+02  0.00000000000E+00 0.  1.
         22    1    4    4    0    0  0.78298432696E+01  0.27268932515E+02 -0.24197474747E+02  0.37288321366E+02  0.00000000000E+00 0.  1.
<mgrwt>
<rscale>  0 0.90669260E+02</rscale>
<asrwt>0</asrwt>
<pdfrwt beam="1">  1        1 0.62902380E-02 0.90669260E+02</pdfrwt>
<pdfrwt beam="2">  1       -1 0.77333268E-02 0.90669260E+02</pdfrwt>
<totfact> 0.92408776E+04</totfact>
</mgrwt>
</event>
<event>
 7    1  0.3301067E-009  0.9289126E+02  0.7818608E-02  0.1295997E+00
         -1   -1    0    0    0  501 -0.00000000000E+00  0.00000000000E+00  0.67414443310E+02  0.67414443499E+02  0.50400000000E-02 0.  1.
          1   -1    0    0  501    0  0.00000000000E+00 -0.00000000000E+00 -0.31999027155E+02  0.31999027552E+02  0.50400000000E-02 0. -1.
         23    2    1    2    0    0  0.17763568394E-14  0.00000000000E+00  0.35415416156E+02  0.99413471051E+02  0.92891261833E+02 0.  0.
    9000005    2    3    3    0    0 -0.95054599530E+01  0.36875705641E+02 -0.79475165773E+01  0.41702853565E+02  0.15026428061E+02 0.  0.
         22    1    3    3    0    0  0.95054599530E+01 -0.36875705641E+02  0.43362932733E+02  0.57710617486E+02  0.00000000000E+00 0.  1.
         22    1    4    4    0    0  0.25659252320E+01  0.19872287507E+02 -0.49102615645E+01  0.20630134554E+02  0.00000000000E+00 0.  1.
         22    1    4    4    0    0 -0.12071385185E+02  0.17003418133E+02 -0.30372550128E+01  0.21072719011E+02  0.00000000000E+00 0.  1.
<mgrwt>
<rscale>  0 0.92891262E+02</rscale>
<asrwt>0</asrwt>
<pdfrwt beam="2">  1        1 0.49229273E-02 0.92891262E+02</pdfrwt>
<pdfrwt beam="1">  1       -1 0.10371453E-01 0.92891262E+02</pdfrwt>
<totfact> 0.83027367E+04</totfact>
</mgrwt>
</event>
<event>
 7    1  0.3301067E-009  0.9039963E+02  0.7818608E-02  0.1301887E+00
         -1   -1    0    0    0  501 -0.00000000000E+00  0.00000000000E+00  0.10360208924E+02  0.10360210150E+02  0.50400000000E-02 0.  1.
          1   -1    0    0  501    0  0.00000000000E+00 -0.00000000000E+00 -0.19719903945E+03  0.19719903951E+03  0.50400000000E-02 0. -1.
         23    2    1    2    0    0  0.00000000000E+00  0.00000000000E+00 -0.18683883052E+03  0.20755924966E+03  0.90399632350E+02 0.  0.
    9000005    2    3    3    0    0 -0.17257998812E+02  0.40119652802E+02 -0.84064685437E+02  0.95890319506E+02  0.14854527034E+02 0.  0.
         22    1    3    3    0    0  0.17257998812E+02 -0.40119652802E+02 -0.10277414509E+03  0.11166893016E+03  0.00000000000E+00 0. -1.
         22    1    4    4    0    0 -0.17124711970E+02  0.31256741093E+02 -0.75846027487E+02  0.83802503002E+02  0.00000000000E+00 0.  1.
         22    1    4    4    0    0 -0.13328684190E+00  0.88629117088E+01 -0.82186579504E+01  0.12087816504E+02  0.00000000000E+00 0.  1.
<mgrwt>
<rscale>  0 0.90399632E+02</rscale>
<asrwt>0</asrwt>
<pdfrwt beam="2">  1        1 0.30338311E-01 0.90399632E+02</pdfrwt>
<pdfrwt beam="1">  1       -1 0.15938785E-02 0.90399632E+02</pdfrwt>
<totfact> 0.12082321E+05</totfact>
</mgrwt>
</event>
<event>
 7    1  0.3455627E-009  0.9008579E+02  0.7818608E-02  0.1302644E+00
          1   -1    0    0  501    0  0.00000000000E+00  0.00000000000E+00  0.22248731686E+03  0.22248731692E+03  0.50400000000E-02 0. -1.
         -1   -1    0    0    0  501 -0.00000000000E+00 -0.00000000000E+00 -0.91190010974E+01  0.91190024902E+01  0.50400000000E-02 0.  1.
         23    2    1    2    0    0  0.00000000000E+00  0.00000000000E+00  0.21336831576E+03  0.23160631941E+03  0.90085786992E+02 0.  0.
    9000005    2    3    3    0    0 -0.11892472210E+02 -0.92165675490E+01  0.21537178881E+03  0.21642771878E+03  0.15151700558E+02 0.  0.
         22    1    3    3    0    0  0.11892472210E+02  0.92165675490E+01 -0.20034730479E+01  0.15178600624E+02  0.00000000000E+00 0.  1.
         22    1    4    4    0    0 -0.70190513111E+01 -0.15607735803E+01  0.17027900957E+03  0.17043076071E+03  0.00000000000E+00 0.  1.
         22    1    4    4    0    0 -0.48734208985E+01 -0.76557939687E+01  0.45092779238E+02  0.45996958073E+02  0.00000000000E+00 0.  1.
<mgrwt>
<rscale>  0 0.90085787E+02</rscale>
<asrwt>0</asrwt>
<pdfrwt beam="1">  1        1 0.34228816E-01 0.90085787E+02</pdfrwt>
<pdfrwt beam="2">  1       -1 0.14029234E-02 0.90085787E+02</pdfrwt>
<totfact> 0.12484257E+05</totfact>
</mgrwt>
</event>
<event>
 7    1  0.3301067E-009  0.8771612E+02  0.7818608E-02  0.1308479E+00
         -1   -1    0    0    0  501 -0.00000000000E+00  0.00000000000E+00  0.95731620652E+01  0.95731633919E+01  0.50400000000E-02 0.  1.
          1   -1    0    0  501    0  0.00000000000E+00 -0.00000000000E+00 -0.20092937415E+03  0.20092937422E+03  0.50400000000E-02 0. -1.
         23    2    1    2    0    0  0.35527136788E-14  0.00000000000E+00 -0.19135621209E+03  0.21050253761E+03  0.87716124144E+02 0.  0.
    9000005    2    3    3    0    0  0.27519176314E+02  0.67023418003E+01 -0.17493824809E+03  0.17776454756E+03  0.13950529530E+02 0.  0.
         22    1    3    3    0    0 -0.27519176314E+02 -0.67023418003E+01 -0.16417964002E+02  0.32737990051E+02  0.00000000000E+00 0.  1.
         22    1    4    4    0    0  0.25514598923E+02  0.15014907252E+01 -0.15351465964E+03  0.15562776088E+03  0.00000000000E+00 0. -1.
         22    1    4    4    0    0  0.20045773913E+01  0.52008510751E+01 -0.21423588449E+02  0.22136786679E+02  0.00000000000E+00 0. -1.
<mgrwt>
<rscale>  0 0.87716124E+02</rscale>
<asrwt>0</asrwt>
<pdfrwt beam="2">  1        1 0.30912209E-01 0.87716124E+02</pdfrwt>
<pdfrwt beam="1">  1       -1 0.14727944E-02 0.87716124E+02</pdfrwt>
<totfact> 0.13143299E+05</totfact>
</mgrwt>
</event>
<event>
 7    1  0.3301067E-009  0.9155907E+02  0.7818608E-02  0.1299120E+00
          1   -1    0    0  501    0  0.00000000000E+00  0.00000000000E+00  0.19179839652E+03  0.19179839659E+03  0.50400000000E-02 0. -1.
         -1   -1    0    0    0  501 -0.00000000000E+00 -0.00000000000E+00 -0.10926919466E+02  0.10926920629E+02  0.50400000000E-02 0.  1.
         23    2    1    2    0    0 -0.35527136788E-14  0.00000000000E+00  0.18087147706E+03  0.20272531722E+03  0.91559068521E+02 0.  0.
    9000005    2    3    3    0    0  0.27485121880E+02  0.10934512259E+02  0.15918633338E+02  0.35141200626E+02  0.10320155569E+02 0.  0.
         22    1    3    3    0    0 -0.27485121880E+02 -0.10934512259E+02  0.16495284372E+03  0.16758411659E+03  0.00000000000E+00 0. -1.
         22    1    4    4    0    0  0.85039960307E+01 -0.14433747571E+01  0.52200461566E+01  0.10082170454E+02  0.00000000000E+00 0. -1.
         22    1    4    4    0    0  0.18981125850E+02  0.12377887016E+02  0.10698587182E+02  0.25059030172E+02  0.00000000000E+00 0. -1.
<mgrwt>
<rscale>  0 0.91559069E+02</rscale>
<asrwt>0</asrwt>
<pdfrwt beam="1">  1        1 0.29507445E-01 0.91559069E+02</pdfrwt>
<pdfrwt beam="2">  1       -1 0.16810647E-02 0.91559069E+02</pdfrwt>
<totfact> 0.11613783E+05</totfact>
</mgrwt>
</event>
<event>
 7    1  0.3301067E-009  0.9438906E+02  0.7818608E-02  0.1292558E+00
          1   -1    0    0  501    0  0.00000000000E+00  0.00000000000E+00  0.15993121383E+02  0.15993122177E+02  0.50400000000E-02 0. -1.
         -1   -1    0    0    0  501 -0.00000000000E+00 -0.00000000000E+00 -0.13926759584E+03  0.13926759593E+03  0.50400000000E-02 0.  1.
         23    2    1    2    0    0  0.00000000000E+00 -0.35527136788E-14 -0.12327447446E+03  0.15526071811E+03  0.94389059403E+02 0.  0.
    9000005    2    3    3    0    0  0.26125432755E+02 -0.28321224741E+02 -0.10538233435E+03  0.11277826661E+03  0.11352137241E+02 0.  0.
         22    1    3    3    0    0 -0.26125432755E+02  0.28321224741E+02 -0.17892140110E+02  0.42482451497E+02  0.00000000000E+00 0. -1.
         22    1    4    4    0    0  0.21802973338E+02 -0.23061236582E+02 -0.71623153661E+02  0.78339430808E+02  0.00000000000E+00 0.  1.
         22    1    4    4    0    0  0.43224594174E+01 -0.52599881590E+01 -0.33759180689E+02  0.34438835806E+02  0.00000000000E+00 0.  1.
<mgrwt>
<rscale>  0 0.94389059E+02</rscale>
<asrwt>0</asrwt>
<pdfrwt beam="1">  1        1 0.24604804E-02 0.94389059E+02</pdfrwt>
<pdfrwt beam="2">  1       -1 0.21425783E-01 0.94389059E+02</pdfrwt>
<totfact> 0.69528791E+04</totfact>
</mgrwt>
</event>
<event>
 7    1  0.3301067E-009  0.9946919E+02  0.7818608E-02  0.1281416E+00
         -1   -1    0    0    0  501 -0.00000000000E+00  0.00000000000E+00  0.21253075487E+03  0.21253075493E+03  0.50400000000E-02 0.  1.
          1   -1    0    0  501    0  0.00000000000E+00 -0.00000000000E+00 -0.11638456203E+02  0.11638457294E+02  0.50400000000E-02 0. -1.
         23    2    1    2    0    0  0.00000000000E+00  0.00000000000E+00  0.20089229867E+03  0.22416921223E+03  0.99469191438E+02 0.  0.
    9000005    2    3    3    0    0  0.44698896851E+01 -0.47935796238E+02  0.12456740329E+03  0.13392892117E+03  0.10104330224E+02 0.  0.
         22    1    3    3    0    0 -0.44698896851E+01  0.47935796238E+02  0.76324895386E+02  0.90240291059E+02  0.00000000000E+00 0.  1.
         22    1    4    4    0    0  0.52738968953E+01 -0.20420196538E+02  0.44107292875E+02  0.48890200448E+02  0.00000000000E+00 0.  1.
         22    1    4    4    0    0 -0.80400721026E+00 -0.27515599700E+02  0.80460110411E+02  0.85038720721E+02  0.00000000000E+00 0.  1.
<mgrwt>
<rscale>  0 0.99469191E+02</rscale>
<asrwt>0</asrwt>
<pdfrwt beam="2">  1        1 0.17905321E-02 0.99469191E+02</pdfrwt>
<pdfrwt beam="1">  1       -1 0.32697034E-01 0.99469191E+02</pdfrwt>
<totfact> 0.54315712E+04</totfact>
</mgrwt>
</event>
<event>
 7    1  0.3301067E-009  0.8858270E+02  0.7818608E-02  0.1306321E+00
         -1   -1    0    0    0  501 -0.00000000000E+00  0.00000000000E+00  0.34085170479E+03  0.34085170483E+03  0.50400000000E-02 0.  1.
          1   -1    0    0  501    0  0.00000000000E+00 -0.00000000000E+00 -0.57553575260E+01  0.57553597328E+01  0.50400000000E-02 0. -1.
         23    2    1    2    0    0  0.22204460493E-15  0.00000000000E+00  0.33509634727E+03  0.34660706457E+03  0.88582702902E+02 0.  0.
    9000005    2    3    3    0    0  0.13231049707E+01  0.39624681261E+02  0.24341878536E+03  0.24672392620E+03  0.69371984582E+01 0.  0.
         22    1    3    3    0    0 -0.13231049707E+01 -0.39624681261E+02  0.91677561913E+02  0.99883138367E+02  0.00000000000E+00 0. -1.
         22    1    4    4    0    0  0.36787613051E+01  0.32124535723E+02  0.20065154182E+03  0.20324015429E+03  0.00000000000E+00 0. -1.
         22    1    4    4    0    0 -0.23556563344E+01  0.75001455376E+01  0.42767243537E+02  0.43483771911E+02  0.00000000000E+00 0. -1.
<mgrwt>
<rscale>  0 0.88582703E+02</rscale>
<asrwt>0</asrwt>
<pdfrwt beam="2">  1        1 0.88543999E-03 0.88582703E+02</pdfrwt>
<pdfrwt beam="1">  1       -1 0.52438713E-01 0.88582703E+02</pdfrwt>
<totfact> 0.61959163E+04</totfact>
</mgrwt>
</event>
<event>
 7    1  0.3301067E-009  0.9067405E+02  0.7818608E-02  0.1301228E+00
         -1   -1    0    0    0  501 -0.00000000000E+00  0.00000000000E+00  0.37296753670E+01  0.37296787723E+01  0.50400000000E-02 0.  1.
          1   -1    0    0  501    0  0.00000000000E+00 -0.00000000000E+00 -0.55110557660E+03  0.55110557662E+03  0.50400000000E-02 0. -1.
         23    2    1    2    0    0  0.00000000000E+00  0.00000000000E+00 -0.54737590123E+03  0.55483525539E+03  0.90674050196E+02 0.  0.
    9000005    2    3    3    0    0 -0.19642832321E+02  0.35497981475E+02 -0.39185489054E+03  0.39410961239E+03  0.11233155965E+02 0.  0.
         22    1    3    3    0    0  0.19642832321E+02 -0.35497981475E+02 -0.15552101070E+03  0.16072564300E+03  0.00000000000E+00 0.  1.
         22    1    4    4    0    0 -0.62451928194E+01  0.20006145552E+02 -0.16343809236E+03  0.16477638886E+03  0.00000000000E+00 0.  1.
         22    1    4    4    0    0 -0.13397639502E+02  0.15491835923E+02 -0.22841679818E+03  0.22933322353E+03  0.00000000000E+00 0.  1.
<mgrwt>
<rscale>  0 0.90674050E+02</rscale>
<asrwt>0</asrwt>
<pdfrwt beam="2">  1        1 0.84785409E-01 0.90674050E+02</pdfrwt>
<pdfrwt beam="1">  1       -1 0.57379691E-03 0.90674050E+02</pdfrwt>
<totfact> 0.14276034E+05</totfact>
</mgrwt>
</event>
<event>
 7    1  0.3301067E-009  0.9173550E+02  0.7818608E-02  0.1298703E+00
         -1   -1    0    0    0  501 -0.00000000000E+00  0.00000000000E+00  0.19579197035E+03  0.19579197041E+03  0.50400000000E-02 0. -1.
          1   -1    0    0  501    0  0.00000000000E+00 -0.00000000000E+00 -0.10745334861E+02  0.10745336043E+02  0.50400000000E-02 0.  1.
         23    2    1    2    0    0  0.00000000000E+00  0.35527136788E-14  0.18504663549E+03  0.20653730646E+03  0.91735498328E+02 0.  0.
    9000005    2    3    3    0    0  0.20887038631E+02  0.16986792085E+02  0.17583639204E+03  0.17808299093E+03  0.83842353105E+01 0.  0.
         22    1    3    3    0    0 -0.20887038631E+02 -0.16986792085E+02  0.92102434437E+01  0.28454315532E+02  0.00000000000E+00 0.  1.
         22    1    4    4    0    0  0.96109205763E+01  0.50526200849E+01  0.49019944716E+02  0.50208104366E+02  0.00000000000E+00 0.  1.
         22    1    4    4    0    0  0.11276118054E+02  0.11934172000E+02  0.12681644733E+03  0.12787488656E+03  0.00000000000E+00 0.  1.
<mgrwt>
<rscale>  0 0.91735498E+02</rscale>
<asrwt>0</asrwt>
<pdfrwt beam="2">  1        1 0.16531286E-02 0.91735498E+02</pdfrwt>
<pdfrwt beam="1">  1       -1 0.30121841E-01 0.91735498E+02</pdfrwt>
<totfact> 0.68741263E+04</totfact>
</mgrwt>
</event>
<event>
 7    1  0.3301067E-009  0.8928218E+02  0.7818608E-02  0.1304599E+00
          1   -1    0    0  501    0  0.00000000000E+00  0.00000000000E+00  0.40994716325E+03  0.40994716328E+03  0.50400000000E-02 0. -1.
         -1   -1    0    0    0  501 -0.00000000000E+00 -0.00000000000E+00 -0.48611788696E+01  0.48611814823E+01  0.50400000000E-02 0.  1.
         23    2    1    2    0    0  0.00000000000E+00  0.00000000000E+00  0.40508598438E+03  0.41480834476E+03  0.89282182678E+02 0.  0.
    9000005    2    3    3    0    0 -0.10739502921E+02 -0.41697636242E+02  0.15732482644E+03  0.16333345303E+03  0.85256126617E+01 0.  0.
         22    1    3    3    0    0  0.10739502921E+02  0.41697636242E+02  0.24776115794E+03  0.25147489174E+03  0.00000000000E+00 0. -1.
         22    1    4    4    0    0 -0.85606684772E+01 -0.37976036852E+02  0.13114665977E+03  0.13680245169E+03  0.00000000000E+00 0. -1.
         22    1    4    4    0    0 -0.21788344434E+01 -0.37215993901E+01  0.26178166670E+02  0.26531001334E+02  0.00000000000E+00 0. -1.
<mgrwt>
<rscale>  0 0.89282183E+02</rscale>
<asrwt>0</asrwt>
<pdfrwt beam="1">  1        1 0.63068811E-01 0.89282183E+02</pdfrwt>
<pdfrwt beam="2">  1       -1 0.74787368E-03 0.89282183E+02</pdfrwt>
<totfact> 0.14318122E+05</totfact>
</mgrwt>
</event>
<event>
 7    1  0.3301067E-009  0.9080542E+02  0.7818608E-02  0.1300913E+00
         -1   -1    0    0    0  501 -0.00000000000E+00  0.00000000000E+00  0.61762127365E+01  0.61762147929E+01  0.50400000000E-02 0.  1.
          1   -1    0    0  501    0  0.00000000000E+00 -0.00000000000E+00 -0.33376536507E+03  0.33376536510E+03  0.50400000000E-02 0. -1.
         23    2    1    2    0    0  0.00000000000E+00 -0.17763568394E-14 -0.32758915233E+03  0.33994157990E+03  0.90805423951E+02 0.  0.
    9000005    2    3    3    0    0  0.42518373901E+02  0.15604045097E+02 -0.16313568598E+03  0.16936537717E+03  0.44811383649E+01 0.  0.
         22    1    3    3    0    0 -0.42518373901E+02 -0.15604045097E+02 -0.16445346635E+03  0.17057620273E+03  0.00000000000E+00 0.  1.
         22    1    4    4    0    0  0.30044327743E+02  0.10021907928E+02 -0.10690899324E+03  0.11150171794E+03  0.00000000000E+00 0.  1.
         22    1    4    4    0    0  0.12474046158E+02  0.55821371690E+01 -0.56226692737E+02  0.57863659226E+02  0.00000000000E+00 0.  1.
<mgrwt>
<rscale>  0 0.90805424E+02</rscale>
<asrwt>0</asrwt>
<pdfrwt beam="2">  1        1 0.51348504E-01 0.90805424E+02</pdfrwt>
<pdfrwt beam="1">  1       -1 0.95018700E-03 0.90805424E+02</pdfrwt>
<totfact> 0.13213179E+05</totfact>
</mgrwt>
</event>
<event>
 7    1  0.3301067E-009  0.1087956E+03  0.7818608E-02  0.1262817E+00
          1   -1    0    0  501    0  0.00000000000E+00  0.00000000000E+00  0.63554928578E+02  0.63554928778E+02  0.50400000000E-02 0. -1.
         -1   -1    0    0    0  501 -0.00000000000E+00 -0.00000000000E+00 -0.46560010498E+02  0.46560010771E+02  0.50400000000E-02 0.  1.
         23    2    1    2    0    0  0.00000000000E+00  0.00000000000E+00  0.16994918080E+02  0.11011493955E+03  0.10879555446E+03 0.  0.
    9000005    2    3    3    0    0  0.26313463390E+02 -0.21188925306E+02  0.51322930547E+02  0.61950831012E+02  0.79052736780E+01 0.  0.
         22    1    3    3    0    0 -0.26313463390E+02  0.21188925306E+02 -0.34328012468E+02  0.48164108537E+02  0.00000000000E+00 0.  1.
         22    1    4    4    0    0  0.97553738182E+01 -0.33362133500E+01  0.13975866599E+02  0.17367282028E+02  0.00000000000E+00 0. -1.
         22    1    4    4    0    0  0.16558089571E+02 -0.17852711956E+02  0.37347063948E+02  0.44583548984E+02  0.00000000000E+00 0. -1.
<mgrwt>
<rscale>  0 0.10879555E+03</rscale>
<asrwt>0</asrwt>
<pdfrwt beam="1">  1        1 0.97776814E-02 0.10879555E+03</pdfrwt>
<pdfrwt beam="2">  1       -1 0.71630785E-02 0.10879555E+03</pdfrwt>
<totfact> 0.59214507E+04</totfact>
</mgrwt>
</event>
<event>
 7    1  0.3301067E-009  0.9771509E+02  0.7818608E-02  0.1285175E+00
         -1   -1    0    0    0  501 -0.00000000000E+00  0.00000000000E+00  0.23464076572E+02  0.23464077113E+02  0.50400000000E-02 0.  1.
          1   -1    0    0  501    0  0.00000000000E+00 -0.00000000000E+00 -0.10173253060E+03  0.10173253072E+03  0.50400000000E-02 0. -1.
         23    2    1    2    0    0  0.00000000000E+00  0.17763568394E-14 -0.78268454028E+02  0.12519660784E+03  0.97715094628E+02 0.  0.
    9000005    2    3    3    0    0 -0.36311931580E+02  0.12819217285E+02 -0.30290216109E+01  0.40675244282E+02  0.12744089557E+02 0.  0.
         22    1    3    3    0    0  0.36311931580E+02 -0.12819217285E+02 -0.75239432417E+02  0.84521363556E+02  0.00000000000E+00 0. -1.
         22    1    4    4    0    0 -0.63042262931E+01  0.71542058744E+01 -0.34334231695E+01  0.10134807621E+02  0.00000000000E+00 0. -1.
         22    1    4    4    0    0 -0.30007705287E+02  0.56650114106E+01  0.40440155861E+00  0.30540436662E+02  0.00000000000E+00 0. -1.
<mgrwt>
<rscale>  0 0.97715095E+02</rscale>
<asrwt>0</asrwt>
<pdfrwt beam="2">  1        1 0.15651158E-01 0.97715095E+02</pdfrwt>
<pdfrwt beam="1">  1       -1 0.36098580E-02 0.97715095E+02</pdfrwt>
<totfact> 0.86651608E+04</totfact>
</mgrwt>
</event>
<event>
 7    1  0.3301067E-009  0.9076757E+02  0.7818608E-02  0.1301003E+00
          1   -1    0    0  501    0  0.00000000000E+00  0.00000000000E+00  0.36533508241E+03  0.36533508245E+03  0.50400000000E-02 0. -1.
         -1   -1    0    0    0  501 -0.00000000000E+00 -0.00000000000E+00 -0.56378039804E+01  0.56378062331E+01  0.50400000000E-02 0.  1.
         23    2    1    2    0    0  0.00000000000E+00  0.00000000000E+00  0.35969727843E+03  0.37097288868E+03  0.90767571436E+02 0.  0.
    9000005    2    3    3    0    0 -0.86291068159E+01  0.13598692104E+02  0.35311523531E+03  0.35357434843E+03  0.80662595846E+01 0.  0.
         22    1    3    3    0    0  0.86291068159E+01 -0.13598692104E+02  0.65820431209E+01  0.17398540256E+02  0.00000000000E+00 0.  1.
         22    1    4    4    0    0 -0.66849846550E+01  0.12460794918E+02  0.33764360813E+03  0.33793959008E+03  0.00000000000E+00 0. -1.
         22    1    4    4    0    0 -0.19441221608E+01  0.11378971862E+01  0.15471627183E+02  0.15634758350E+02  0.00000000000E+00 0. -1.
<mgrwt>
<rscale>  0 0.90767571E+02</rscale>
<asrwt>0</asrwt>
<pdfrwt beam="1">  1        1 0.56205397E-01 0.90767571E+02</pdfrwt>
<pdfrwt beam="2">  1       -1 0.86735463E-03 0.90767571E+02</pdfrwt>
<totfact> 0.13443020E+05</totfact>
</mgrwt>
</event>
<event>
 7    1  0.3301067E-009  0.8955889E+02  0.7818608E-02  0.1303923E+00
         -1   -1    0    0    0  501 -0.00000000000E+00  0.00000000000E+00  0.71031398599E+01  0.71031416480E+01  0.50400000000E-02 0.  1.
          1   -1    0    0  501    0  0.00000000000E+00 -0.00000000000E+00 -0.28229749767E+03  0.28229749772E+03  0.50400000000E-02 0. -1.
         23    2    1    2    0    0  0.00000000000E+00  0.44408920985E-15 -0.27519435781E+03  0.28940063937E+03  0.89558893993E+02 0.  0.
    9000005    2    3    3    0    0  0.38864564506E+02  0.39614443666E+01 -0.20469204497E+03  0.20879838424E+03  0.13106661278E+02 0.  0.
         22    1    3    3    0    0 -0.38864564506E+02 -0.39614443666E+01 -0.70502312838E+02  0.80602255125E+02  0.00000000000E+00 0.  1.
         22    1    4    4    0    0  0.16518341051E+02  0.72922967373E+01 -0.10822567224E+03  0.10972159913E+03  0.00000000000E+00 0.  1.
         22    1    4    4    0    0  0.22346223455E+02 -0.33308523707E+01 -0.96466372732E+02  0.99076785113E+02  0.00000000000E+00 0.  1.
<mgrwt>
<rscale>  0 0.89558894E+02</rscale>
<asrwt>0</asrwt>
<pdfrwt beam="2">  1        1 0.43430376E-01 0.89558894E+02</pdfrwt>
<pdfrwt beam="1">  1       -1 0.10927911E-02 0.89558894E+02</pdfrwt>
<totfact> 0.13281703E+05</totfact>
</mgrwt>
</event>
<event>
 7    1  0.3301067E-009  0.9663066E+02  0.7818608E-02  0.1287545E+00
         -1   -1    0    0    0  501 -0.00000000000E+00  0.00000000000E+00  0.51158587417E+01  0.51158612244E+01  0.50400000000E-02 0.  1.
          1   -1    0    0  501    0  0.00000000000E+00 -0.00000000000E+00 -0.45630085532E+03  0.45630085535E+03  0.50400000000E-02 0. -1.
         23    2    1    2    0    0  0.00000000000E+00  0.00000000000E+00 -0.45118499658E+03  0.46141671657E+03  0.96630663844E+02 0.  0.
    9000005    2    3    3    0    0 -0.18383920452E+02 -0.77488959554E+01 -0.43543878304E+03  0.43600102928E+03  0.95890478460E+01 0.  0.
         22    1    3    3    0    0  0.18383920452E+02  0.77488959554E+01 -0.15746213538E+02  0.25415687292E+02  0.00000000000E+00 0.  1.
         22    1    4    4    0    0 -0.85588011470E+01 -0.93630371564E+00 -0.10744601029E+03  0.10779042104E+03  0.00000000000E+00 0. -1.
         22    1    4    4    0    0 -0.98251193050E+01 -0.68125922398E+01 -0.32799277275E+03  0.32821060824E+03  0.00000000000E+00 0. -1.
<mgrwt>
<rscale>  0 0.96630664E+02</rscale>
<asrwt>0</asrwt>
<pdfrwt beam="2">  1        1 0.70200100E-01 0.96630664E+02</pdfrwt>
<pdfrwt beam="1">  1       -1 0.78705575E-03 0.96630664E+02</pdfrwt>
<totfact> 0.11791735E+05</totfact>
</mgrwt>
</event>
<event>
 7    1  0.3301067E-009  0.8991230E+02  0.7818608E-02  0.1303064E+00
         -1   -1    0    0    0  501 -0.00000000000E+00  0.00000000000E+00  0.92327377520E+01  0.92327391277E+01  0.50400000000E-02 0.  1.
          1   -1    0    0  501    0  0.00000000000E+00 -0.00000000000E+00 -0.21890095069E+03  0.21890095074E+03  0.50400000000E-02 0. -1.
         23    2    1    2    0    0  0.00000000000E+00  0.00000000000E+00 -0.20966821293E+03  0.22813368987E+03  0.89912295819E+02 0.  0.
    9000005    2    3    3    0    0  0.17383103444E+02 -0.18229625911E+02 -0.19864863396E+03  0.20063964202E+03  0.12668647583E+02 0.  0.
         22    1    3    3    0    0 -0.17383103444E+02  0.18229625911E+02 -0.11019578973E+02  0.27494047846E+02  0.00000000000E+00 0.  1.
         22    1    4    4    0    0  0.13753106090E+02 -0.12644408477E+02 -0.97618014156E+02  0.99389665864E+02  0.00000000000E+00 0. -1.
         22    1    4    4    0    0  0.36299973542E+01 -0.55852174338E+01 -0.10103061980E+03  0.10124997616E+03  0.00000000000E+00 0. -1.
<mgrwt>
<rscale>  0 0.89912296E+02</rscale>
<asrwt>0</asrwt>
<pdfrwt beam="2">  1        1 0.33677066E-01 0.89912296E+02</pdfrwt>
<pdfrwt beam="1">  1       -1 0.14204215E-02 0.89912296E+02</pdfrwt>
<totfact> 0.12509090E+05</totfact>
</mgrwt>
</event>
<event>
 7    1  0.3301067E-009  0.9435396E+02  0.7818608E-02  0.1292638E+00
          1   -1    0    0  501    0  0.00000000000E+00  0.00000000000E+00  0.27787391637E+03  0.27787391642E+03  0.50400000000E-02 0. -1.
         -1   -1    0    0    0  501 -0.00000000000E+00 -0.00000000000E+00 -0.80096304418E+01  0.80096320274E+01  0.50400000000E-02 0.  1.
         23    2    1    2    0    0  0.00000000000E+00  0.17763568394E-14  0.26986428593E+03  0.28588354845E+03  0.94353963621E+02 0.  0.
    9000005    2    3    3    0    0 -0.21356940718E+02 -0.99804447890E+01  0.25801904859E+03  0.25950101933E+03  0.14533457979E+02 0.  0.
         22    1    3    3    0    0  0.21356940718E+02  0.99804447890E+01  0.11845237338E+02  0.26382529117E+02  0.00000000000E+00 0.  1.
         22    1    4    4    0    0 -0.90972489636E+01  0.30978010434E+01  0.77304455747E+02  0.77899519821E+02  0.00000000000E+00 0. -1.
         22    1    4    4    0    0 -0.12259691755E+02 -0.13078245832E+02  0.18071459285E+03  0.18160149951E+03  0.00000000000E+00 0. -1.
<mgrwt>
<rscale>  0 0.94353964E+02</rscale>
<asrwt>0</asrwt>
<pdfrwt beam="1">  1        1 0.42749831E-01 0.94353964E+02</pdfrwt>
<pdfrwt beam="2">  1       -1 0.12322510E-02 0.94353964E+02</pdfrwt>
<totfact> 0.11519822E+05</totfact>
</mgrwt>
</event>
<event>
 7    1  0.3441271E-009  0.9293313E+02  0.7818608E-02  0.1295900E+00
         -1   -1    0    0    0  501 -0.00000000000E+00  0.00000000000E+00  0.69717232670E+02  0.69717232853E+02  0.50400000000E-02 0.  1.
          1   -1    0    0  501    0  0.00000000000E+00 -0.00000000000E+00 -0.30969986808E+02  0.30969987218E+02  0.50400000000E-02 0. -1.
         23    2    1    2    0    0  0.00000000000E+00  0.00000000000E+00  0.38747245863E+02  0.10068722007E+03  0.92933133077E+02 0.  0.
    9000005    2    3    3    0    0 -0.44869513800E+02  0.32499970030E+01  0.12137564557E+02  0.48419535136E+02  0.13164161967E+02 0.  0.
         22    1    3    3    0    0  0.44869513800E+02 -0.32499970030E+01  0.26609681306E+02  0.52267684934E+02  0.00000000000E+00 0.  1.
         22    1    4    4    0    0 -0.11659123949E+02  0.13145861231E+01 -0.26270780665E+01  0.12023512261E+02  0.00000000000E+00 0. -1.
         22    1    4    4    0    0 -0.33210389851E+02  0.19354108799E+01  0.14764642624E+02  0.36396022875E+02  0.00000000000E+00 0. -1.
<mgrwt>
<rscale>  0 0.92933133E+02</rscale>
<asrwt>0</asrwt>
<pdfrwt beam="2">  1        1 0.47646135E-02 0.92933133E+02</pdfrwt>
<pdfrwt beam="1">  1       -1 0.10725728E-01 0.92933133E+02</pdfrwt>
<totfact> 0.82480667E+04</totfact>
</mgrwt>
</event>
<event>
 7    1  0.3301067E-009  0.1212643E+03  0.7818608E-02  0.1241026E+00
         -1   -1    0    0    0  501 -0.00000000000E+00  0.00000000000E+00  0.40399505100E+01  0.40399536538E+01  0.50400000000E-02 0.  1.
          1   -1    0    0  501    0  0.00000000000E+00 -0.00000000000E+00 -0.90997582395E+03  0.90997582396E+03  0.50400000000E-02 0. -1.
         23    2    1    2    0    0  0.00000000000E+00  0.00000000000E+00 -0.90593587344E+03  0.91401577761E+03  0.12126431853E+03 0.  0.
    9000005    2    3    3    0    0  0.89502876541E+01  0.38840311390E+02 -0.79467833629E+03  0.79583406579E+03  0.15796349695E+02 0.  0.
         22    1    3    3    0    0 -0.89502876541E+01 -0.38840311390E+02 -0.11125753714E+03  0.11818171182E+03  0.00000000000E+00 0.  1.
         22    1    4    4    0    0 -0.20526768213E+01  0.38252527646E+01 -0.18566551054E+03  0.18571625627E+03  0.00000000000E+00 0. -1.
         22    1    4    4    0    0  0.11002964475E+02  0.35015058626E+02 -0.60901282576E+03  0.61011780952E+03  0.00000000000E+00 0. -1.
<mgrwt>
<rscale>  0 0.12126432E+03</rscale>
<asrwt>0</asrwt>
<pdfrwt beam="2">  1        1 0.13999612E+00 0.12126432E+03</pdfrwt>
<pdfrwt beam="1">  1       -1 0.62153181E-03 0.12126432E+03</pdfrwt>
<totfact> 0.64700746E+04</totfact>
</mgrwt>
</event>
<event>
 7    1  0.3301067E-009  0.8862162E+02  0.7818608E-02  0.1306224E+00
          1   -1    0    0  501    0  0.00000000000E+00  0.00000000000E+00  0.13349261178E+02  0.13349262129E+02  0.50400000000E-02 0. -1.
         -1   -1    0    0    0  501 -0.00000000000E+00 -0.00000000000E+00 -0.14708288141E+03  0.14708288149E+03  0.50400000000E-02 0.  1.
         23    2    1    2    0    0 -0.35527136788E-14  0.00000000000E+00 -0.13373362023E+03  0.16043214362E+03  0.88621619978E+02 0.  0.
    9000005    2    3    3    0    0  0.17514413135E+02  0.25592346354E+02 -0.12278557843E+03  0.12754472234E+03  0.15153714612E+02 0.  0.
         22    1    3    3    0    0 -0.17514413135E+02 -0.25592346354E+02 -0.10948041797E+02  0.32887421282E+02  0.00000000000E+00 0. -1.
         22    1    4    4    0    0  0.10398331268E+02  0.57848565208E+01 -0.64196219479E+02  0.65289696381E+02  0.00000000000E+00 0. -1.
         22    1    4    4    0    0  0.71160818671E+01  0.19807489833E+02 -0.58589358952E+02  0.62255025958E+02  0.00000000000E+00 0. -1.
<mgrwt>
<rscale>  0 0.88621620E+02</rscale>
<asrwt>0</asrwt>
<pdfrwt beam="1">  1        1 0.20537327E-02 0.88621620E+02</pdfrwt>
<pdfrwt beam="2">  1       -1 0.22628135E-01 0.88621620E+02</pdfrwt>
<totfact> 0.80872848E+04</totfact>
</mgrwt>
</event>
<event>
 7    1  0.3301067E-009  0.9088936E+02  0.7818608E-02  0.1300712E+00
         -1   -1    0    0    0  501 -0.00000000000E+00  0.00000000000E+00  0.39336134207E+01  0.39336166495E+01  0.50400000000E-02 0.  1.
          1   -1    0    0  501    0  0.00000000000E+00 -0.00000000000E+00 -0.52501810271E+03  0.52501810274E+03  0.50400000000E-02 0. -1.
         23    2    1    2    0    0  0.00000000000E+00 -0.17763568394E-14 -0.52108448929E+03  0.52895171938E+03  0.90889363850E+02 0.  0.
    9000005    2    3    3    0    0  0.40199004677E+02  0.14474030673E+02 -0.33292317864E+03  0.33600059509E+03  0.15267595885E+02 0.  0.
         22    1    3    3    0    0 -0.40199004677E+02 -0.14474030673E+02 -0.18816131065E+03  0.19295112430E+03  0.00000000000E+00 0.  1.
         22    1    4    4    0    0  0.84323136324E+01 -0.49981003855E+00 -0.34544271793E+02  0.35562064577E+02  0.00000000000E+00 0. -1.
         22    1    4    4    0    0  0.31766691045E+02  0.14973840712E+02 -0.29837890685E+03  0.30043853051E+03  0.00000000000E+00 0. -1.
<mgrwt>
<rscale>  0 0.90889364E+02</rscale>
<asrwt>0</asrwt>
<pdfrwt beam="2">  1        1 0.80771961E-01 0.90889364E+02</pdfrwt>
<pdfrwt beam="1">  1       -1 0.60517196E-03 0.90889364E+02</pdfrwt>
<totfact> 0.14120049E+05</totfact>
</mgrwt>
</event>
<event>
 7    1  0.3301067E-009  0.9252767E+02  0.7818608E-02  0.1296843E+00
          1   -1    0    0  501    0  0.00000000000E+00  0.00000000000E+00  0.23861673809E+02  0.23861674342E+02  0.50400000000E-02 0. -1.
         -1   -1    0    0    0  501 -0.00000000000E+00 -0.00000000000E+00 -0.89697922416E+02  0.89697922557E+02  0.50400000000E-02 0.  1.
         23    2    1    2    0    0  0.00000000000E+00  0.00000000000E+00 -0.65836248606E+02  0.11355959690E+03  0.92527673792E+02 0.  0.
    9000005    2    3    3    0    0 -0.35056526063E+02 -0.18240996799E+02 -0.47915702464E+01  0.40839952099E+02  0.91240647856E+01 0.  0.
         22    1    3    3    0    0  0.35056526063E+02  0.18240996799E+02 -0.61044678360E+02  0.72719644800E+02  0.00000000000E+00 0. -1.
         22    1    4    4    0    0 -0.31004086626E+02 -0.17302750063E+02 -0.15028088919E+01  0.35537261878E+02  0.00000000000E+00 0.  1.
         22    1    4    4    0    0 -0.40524394370E+01 -0.93824673546E+00 -0.32887613545E+01  0.53026902204E+01  0.00000000000E+00 0.  1.
<mgrwt>
<rscale>  0 0.92527674E+02</rscale>
<asrwt>0</asrwt>
<pdfrwt beam="1">  1        1 0.36710268E-02 0.92527674E+02</pdfrwt>
<pdfrwt beam="2">  1       -1 0.13799680E-01 0.92527674E+02</pdfrwt>
<totfact> 0.79911883E+04</totfact>
</mgrwt>
</event>
<event>
 7    1  0.3301067E-009  0.7842769E+02  0.7818608E-02  0.1333574E+00
          1   -1    0    0  501    0  0.00000000000E+00  0.00000000000E+00  0.55301548263E+01  0.55301571229E+01  0.50400000000E-02 0. -1.
         -1   -1    0    0    0  501 -0.00000000000E+00 -0.00000000000E+00 -0.27806188709E+03  0.27806188713E+03  0.50400000000E-02 0.  1.
         23    2    1    2    0    0  0.00000000000E+00  0.00000000000E+00 -0.27253173226E+03  0.28359204426E+03  0.78427689473E+02 0.  0.
    9000005    2    3    3    0    0  0.36108747466E+02  0.69273143539E+00 -0.83330584816E+02  0.90974818352E+02  0.53018570321E+01 0.  0.
         22    1    3    3    0    0 -0.36108747466E+02 -0.69273143539E+00 -0.18920114745E+03  0.19261722590E+03  0.00000000000E+00 0.  1.
         22    1    4    4    0    0  0.30829392862E+01  0.14344124973E+01 -0.62822212834E+01  0.71434136173E+01  0.00000000000E+00 0.  1.
         22    1    4    4    0    0  0.33025808180E+02 -0.74168106191E+00 -0.77048363533E+02  0.83831404735E+02  0.00000000000E+00 0.  1.
<mgrwt>
<rscale>  0 0.78427689E+02</rscale>
<asrwt>0</asrwt>
<pdfrwt beam="1">  1        1 0.85079345E-03 0.78427689E+02</pdfrwt>
<pdfrwt beam="2">  1       -1 0.42778741E-01 0.78427689E+02</pdfrwt>
<totfact> 0.92253363E+04</totfact>
</mgrwt>
</event>
<event>
 7    1  0.4958516E-009  0.9193035E+02  0.7818608E-02  0.1298243E+00
          1   -1    0    0  501    0  0.00000000000E+00  0.00000000000E+00  0.43888725512E+03  0.43888725515E+03  0.50400000000E-02 0. -1.
         -1   -1    0    0    0  501 -0.00000000000E+00 -0.00000000000E+00 -0.48139847946E+01  0.48139874329E+01  0.50400000000E-02 0.  1.
         23    2    1    2    0    0  0.00000000000E+00  0.00000000000E+00  0.43407327033E+03  0.44370124258E+03  0.91930346773E+02 0.  0.
    9000005    2    3    3    0    0  0.10105642691E+02  0.77732924409E+01  0.42982619018E+03  0.43026302174E+03  0.14600206317E+02 0.  0.
         22    1    3    3    0    0 -0.10105642691E+02 -0.77732924409E+01  0.42470801456E+01  0.13438220840E+02  0.00000000000E+00 0.  1.
         22    1    4    4    0    0  0.12894942694E+02  0.55937496294E+01  0.39655944552E+03  0.39680847196E+03  0.00000000000E+00 0.  1.
         22    1    4    4    0    0 -0.27893000023E+01  0.21795428115E+01  0.33266744657E+02  0.33454549787E+02  0.00000000000E+00 0.  1.
<mgrwt>
<rscale>  0 0.91930347E+02</rscale>
<asrwt>0</asrwt>
<pdfrwt beam="1">  1        1 0.67521134E-01 0.91930347E+02</pdfrwt>
<pdfrwt beam="2">  1       -1 0.74061305E-03 0.91930347E+02</pdfrwt>
<totfact> 0.13390088E+05</totfact>
</mgrwt>
</event>
<event>
 7    1  0.3301067E-009  0.9137799E+02  0.7818608E-02  0.1299549E+00
         -1   -1    0    0    0  501 -0.00000000000E+00  0.00000000000E+00  0.15402725808E+03  0.15402725817E+03  0.50400000000E-02 0.  1.
          1   -1    0    0  501    0  0.00000000000E+00 -0.00000000000E+00 -0.13552692084E+02  0.13552693021E+02  0.50400000000E-02 0. -1.
         23    2    1    2    0    0  0.00000000000E+00  0.00000000000E+00  0.14047456600E+03  0.16757995119E+03  0.91377986119E+02 0.  0.
    9000005    2    3    3    0    0 -0.62480602151E+01  0.22967997251E+02  0.14092494228E+03  0.14377301957E+03  0.15629288068E+02 0.  0.
         22    1    3    3    0    0  0.62480602151E+01 -0.22967997251E+02 -0.45037628129E+00  0.23806931616E+02  0.00000000000E+00 0. -1.
         22    1    4    4    0    0 -0.68607184889E+01  0.35213838270E+01  0.62349831376E+02  0.62824923994E+02  0.00000000000E+00 0.  1.
         22    1    4    4    0    0  0.61265827377E+00  0.19446613424E+02  0.78575110906E+02  0.80948095578E+02  0.00000000000E+00 0.  1.
<mgrwt>
<rscale>  0 0.91377986E+02</rscale>
<asrwt>0</asrwt>
<pdfrwt beam="2">  1        1 0.20850296E-02 0.91377986E+02</pdfrwt>
<pdfrwt beam="1">  1       -1 0.23696502E-01 0.91377986E+02</pdfrwt>
<totfact> 0.73897569E+04</totfact>
</mgrwt>
</event>
<event>
 7    1  0.3301067E-009  0.7969398E+02  0.7818608E-02  0.1329922E+00
         -1   -1    0    0    0  501 -0.00000000000E+00  0.00000000000E+00  0.14172410673E+03  0.14172410682E+03  0.50400000000E-02 0.  1.
          1   -1    0    0  501    0  0.00000000000E+00 -0.00000000000E+00 -0.11203335266E+02  0.11203336400E+02  0.50400000000E-02 0. -1.
         23    2    1    2    0    0  0.71054273576E-14  0.44408920985E-15  0.13052077146E+03  0.15292744322E+03  0.79693984126E+02 0.  0.
    9000005    2    3    3    0    0  0.39381821901E+02  0.35049542851E+01  0.67739914433E+02  0.78734124042E+02  0.68668537571E+01 0.  0.
         22    1    3    3    0    0 -0.39381821901E+02 -0.35049542851E+01  0.62780857028E+02  0.74193319173E+02  0.00000000000E+00 0. -1.
         22    1    4    4    0    0  0.30515060782E+02  0.16311406692E+01  0.46509810593E+02  0.55650624757E+02  0.00000000000E+00 0.  1.
         22    1    4    4    0    0  0.88667611192E+01  0.18738136160E+01  0.21230103840E+02  0.23083499286E+02  0.00000000000E+00 0.  1.
<mgrwt>
<rscale>  0 0.79693984E+02</rscale>
<asrwt>0</asrwt>
<pdfrwt beam="2">  1        1 0.17235901E-02 0.79693984E+02</pdfrwt>
<pdfrwt beam="1">  1       -1 0.21803709E-01 0.79693984E+02</pdfrwt>
<totfact> 0.10727208E+05</totfact>
</mgrwt>
</event>
<event>
 7    1  0.3301067E-009  0.9289791E+02  0.7818608E-02  0.1295982E+00
          1   -1    0    0  501    0  0.00000000000E+00  0.00000000000E+00  0.43089156510E+02  0.43089156805E+02  0.50400000000E-02 0. -1.
         -1   -1    0    0    0  501 -0.00000000000E+00 -0.00000000000E+00 -0.50070725126E+02  0.50070725380E+02  0.50400000000E-02 0.  1.
         23    2    1    2    0    0  0.00000000000E+00  0.00000000000E+00 -0.69815686162E+01  0.93159882184E+02  0.92897908202E+02 0.  0.
    9000005    2    3    3    0    0  0.51126122359E+01 -0.25174141681E+02  0.34926127181E+02  0.44005724880E+02  0.75361295867E+01 0.  0.
         22    1    3    3    0    0 -0.51126122359E+01  0.25174141681E+02 -0.41907695797E+02  0.49154157304E+02  0.00000000000E+00 0.  1.
         22    1    4    4    0    0  0.49278474464E+01 -0.23798812168E+02  0.28611627090E+02  0.37540542694E+02  0.00000000000E+00 0.  1.
         22    1    4    4    0    0  0.18476478957E+00 -0.13753295128E+01  0.63145000914E+01  0.64651821862E+01  0.00000000000E+00 0.  1.
<mgrwt>
<rscale>  0 0.92897908E+02</rscale>
<asrwt>0</asrwt>
<pdfrwt beam="1">  1        1 0.66291010E-02 0.92897908E+02</pdfrwt>
<pdfrwt beam="2">  1       -1 0.77031885E-02 0.92897908E+02</pdfrwt>
<totfact> 0.86978001E+04</totfact>
</mgrwt>
</event>
<event>
 7    1  0.3301067E-009  0.9297848E+02  0.7818608E-02  0.1295795E+00
          1   -1    0    0  501    0  0.00000000000E+00  0.00000000000E+00  0.39284765815E+02  0.39284766138E+02  0.50400000000E-02 0. -1.
         -1   -1    0    0    0  501 -0.00000000000E+00 -0.00000000000E+00 -0.55014944378E+02  0.55014944609E+02  0.50400000000E-02 0.  1.
         23    2    1    2    0    0 -0.22204460493E-15 -0.71054273576E-14 -0.15730178563E+02  0.94299710747E+02  0.92978475624E+02 0.  0.
    9000005    2    3    3    0    0 -0.14097109419E+01 -0.45354266225E+02 -0.46785379787E+01  0.47597082241E+02  0.13586639413E+02 0.  0.
         22    1    3    3    0    0  0.14097109419E+01  0.45354266225E+02 -0.11051640584E+02  0.46702628505E+02  0.00000000000E+00 0.  1.
         22    1    4    4    0    0 -0.29021390062E+01 -0.17751954768E+02 -0.81304232118E+01  0.19739759130E+02  0.00000000000E+00 0. -1.
         22    1    4    4    0    0  0.14924280644E+01 -0.27602311456E+02  0.34518852331E+01  0.27857323111E+02  0.00000000000E+00 0. -1.
<mgrwt>
<rscale>  0 0.92978476E+02</rscale>
<asrwt>0</asrwt>
<pdfrwt beam="1">  1        1 0.60438102E-02 0.92978476E+02</pdfrwt>
<pdfrwt beam="2">  1       -1 0.84638377E-02 0.92978476E+02</pdfrwt>
<totfact> 0.85536388E+04</totfact>
</mgrwt>
</event>
<event>
 7    1  0.3301067E-009  0.8890561E+02  0.7818608E-02  0.1305524E+00
          1   -1    0    0  501    0  0.00000000000E+00  0.00000000000E+00  0.16292859323E+02  0.16292860102E+02  0.50400000000E-02 0. -1.
         -1   -1    0    0    0  501 -0.00000000000E+00 -0.00000000000E+00 -0.12128330083E+03  0.12128330094E+03  0.50400000000E-02 0.  1.
         23    2    1    2    0    0  0.00000000000E+00  0.00000000000E+00 -0.10499044151E+03  0.13757616104E+03  0.88905608810E+02 0.  0.
    9000005    2    3    3    0    0  0.38636166344E+02 -0.18331898029E+02 -0.36664110660E+02  0.56970334187E+02  0.85176365149E+01 0.  0.
         22    1    3    3    0    0 -0.38636166344E+02  0.18331898029E+02 -0.68326330851E+02  0.80605826853E+02  0.00000000000E+00 0.  1.
         22    1    4    4    0    0  0.18611932030E+02 -0.12058442078E+02 -0.22880945323E+02  0.31864520993E+02  0.00000000000E+00 0. -1.
         22    1    4    4    0    0  0.20024234314E+02 -0.62734559510E+01 -0.13783165337E+02  0.25105813194E+02  0.00000000000E+00 0. -1.
<mgrwt>
<rscale>  0 0.88905609E+02</rscale>
<asrwt>0</asrwt>
<pdfrwt beam="1">  1        1 0.25065939E-02 0.88905609E+02</pdfrwt>
<pdfrwt beam="2">  1       -1 0.18658969E-01 0.88905609E+02</pdfrwt>
<totfact> 0.83633617E+04</totfact>
</mgrwt>
</event>
<event>
 7    1  0.3301067E-009  0.9145650E+02  0.7818608E-02  0.1299362E+00
          1   -1    0    0  501    0  0.00000000000E+00  0.00000000000E+00  0.72875586677E+03  0.72875586678E+03  0.50400000000E-02 0. -1.
         -1   -1    0    0    0  501 -0.00000000000E+00 -0.00000000000E+00 -0.28693715414E+01  0.28693759677E+01  0.50400000000E-02 0.  1.
         23    2    1    2    0    0  0.00000000000E+00  0.00000000000E+00  0.72588649523E+03  0.73162524275E+03  0.91456502673E+02 0.  0.
    9000005    2    3    3    0    0  0.90892338556E+01 -0.40535310264E+02  0.51241100999E+03  0.51414533944E+03  0.73933316841E+01 0.  0.
         22    1    3    3    0    0 -0.90892338556E+01  0.40535310264E+02  0.21347548524E+03  0.21747990332E+03  0.00000000000E+00 0.  1.
         22    1    4    4    0    0  0.67433125660E+01 -0.15216030691E+02  0.18379200879E+03  0.18454403905E+03  0.00000000000E+00 0.  1.
         22    1    4    4    0    0  0.23459212896E+01 -0.25319279573E+02  0.32861900120E+03  0.32960130039E+03  0.00000000000E+00 0.  1.
<mgrwt>
<rscale>  0 0.91456503E+02</rscale>
<asrwt>0</asrwt>
<pdfrwt beam="1">  1        1 0.11211656E+00 0.91456503E+02</pdfrwt>
<pdfrwt beam="2">  1       -1 0.44144105E-03 0.91456503E+02</pdfrwt>
<totfact> 0.14091692E+05</totfact>
</mgrwt>
</event>
<event>
 7    1  0.3301067E-009  0.8898302E+02  0.7818608E-02  0.1305333E+00
          1   -1    0    0  501    0  0.00000000000E+00  0.00000000000E+00  0.22054890244E+02  0.22054890820E+02  0.50400000000E-02 0. -1.
         -1   -1    0    0    0  501 -0.00000000000E+00 -0.00000000000E+00 -0.89753083365E+02  0.89753083507E+02  0.50400000000E-02 0.  1.
         23    2    1    2    0    0 -0.66613381478E-15 -0.35527136788E-14 -0.67698193121E+02  0.11180797433E+03  0.88983019567E+02 0.  0.
    9000005    2    3    3    0    0 -0.12312904779E+01 -0.22219728414E+02 -0.81290324782E+02  0.85731577910E+02  0.15702042566E+02 0.  0.
         22    1    3    3    0    0  0.12312904779E+01  0.22219728414E+02  0.13592131661E+02  0.26076396417E+02  0.00000000000E+00 0. -1.
         22    1    4    4    0    0 -0.57170514247E+01 -0.21985325142E+02 -0.66387200318E+02  0.70166228092E+02  0.00000000000E+00 0.  1.
         22    1    4    4    0    0  0.44857609468E+01 -0.23440327178E+00 -0.14903124464E+02  0.15565349818E+02  0.00000000000E+00 0.  1.
<mgrwt>
<rscale>  0 0.88983020E+02</rscale>
<asrwt>0</asrwt>
<pdfrwt beam="1">  1        1 0.33930601E-02 0.88983020E+02</pdfrwt>
<pdfrwt beam="2">  1       -1 0.13808167E-01 0.88983020E+02</pdfrwt>
<totfact> 0.88331848E+04</totfact>
</mgrwt>
</event>
<event>
 7    1  0.3301067E-009  0.9098856E+02  0.7818608E-02  0.1300475E+00
         -1   -1    0    0    0  501 -0.00000000000E+00  0.00000000000E+00  0.61675480298E+02  0.61675480504E+02  0.50400000000E-02 0.  1.
          1   -1    0    0  501    0  0.00000000000E+00 -0.00000000000E+00 -0.33558387983E+02  0.33558388362E+02  0.50400000000E-02 0. -1.
         23    2    1    2    0    0 -0.35527136788E-14  0.71054273576E-14  0.28117092315E+02  0.95233868865E+02  0.90988564660E+02 0.  0.
    9000005    2    3    3    0    0 -0.22915113626E+02  0.37751501962E+02  0.12264875907E+02  0.48312966296E+02  0.15278651722E+02 0.  0.
         22    1    3    3    0    0  0.22915113626E+02 -0.37751501962E+02  0.15852216408E+02  0.46920902569E+02  0.00000000000E+00 0.  1.
         22    1    4    4    0    0 -0.14943545269E+02  0.20226627330E+02  0.14339080619E+02  0.28948838169E+02  0.00000000000E+00 0. -1.
         22    1    4    4    0    0 -0.79715683570E+01  0.17524874632E+02 -0.20742047118E+01  0.19364128127E+02  0.00000000000E+00 0. -1.
<mgrwt>
<rscale>  0 0.90988565E+02</rscale>
<asrwt>0</asrwt>
<pdfrwt beam="2">  1        1 0.51628290E-02 0.90988565E+02</pdfrwt>
<pdfrwt beam="1">  1       -1 0.94885354E-02 0.90988565E+02</pdfrwt>
<totfact> 0.88764615E+04</totfact>
</mgrwt>
</event>
<event>
 7    1  0.3301067E-009  0.8971885E+02  0.7818608E-02  0.1303534E+00
          1   -1    0    0  501    0  0.00000000000E+00  0.00000000000E+00  0.10390210680E+03  0.10390210692E+03  0.50400000000E-02 0. -1.
         -1   -1    0    0    0  501 -0.00000000000E+00 -0.00000000000E+00 -0.19367921116E+02  0.19367921771E+02  0.50400000000E-02 0.  1.
         23    2    1    2    0    0  0.00000000000E+00  0.00000000000E+00  0.84534185680E+02  0.12327002869E+03  0.89718846540E+02 0.  0.
    9000005    2    3    3    0    0  0.35000163349E+02 -0.24814791215E+02  0.58585147869E+02  0.73128849397E+02  0.86500731709E+01 0.  0.
         22    1    3    3    0    0 -0.35000163349E+02  0.24814791215E+02  0.25949037811E+02  0.50141179292E+02  0.00000000000E+00 0.  1.
         22    1    4    4    0    0  0.24777543760E+02 -0.18128634983E+02  0.34919438265E+02  0.46496679988E+02  0.00000000000E+00 0.  1.
         22    1    4    4    0    0  0.10222619589E+02 -0.66861562325E+01  0.23665709603E+02  0.26632169409E+02  0.00000000000E+00 0.  1.
<mgrwt>
<rscale>  0 0.89718847E+02</rscale>
<asrwt>0</asrwt>
<pdfrwt beam="1">  1        1 0.15984940E-01 0.89718847E+02</pdfrwt>
<pdfrwt beam="2">  1       -1 0.29796802E-02 0.89718847E+02</pdfrwt>
<totfact> 0.10983037E+05</totfact>
</mgrwt>
</event>
<event>
 7    1  0.3301067E-009  0.9158081E+02  0.7818608E-02  0.1299068E+00
         -1   -1    0    0    0  501 -0.00000000000E+00  0.00000000000E+00  0.43691846447E+01  0.43691875516E+01  0.50400000000E-02 0.  1.
          1   -1    0    0  501    0  0.00000000000E+00 -0.00000000000E+00 -0.47989741151E+03  0.47989741154E+03  0.50400000000E-02 0. -1.
         23    2    1    2    0    0 -0.35527136788E-14  0.22204460493E-15 -0.47552822686E+03  0.48426659909E+03  0.91580808288E+02 0.  0.
    9000005    2    3    3    0    0 -0.17338522131E+02  0.16985703784E+01 -0.46107017455E+03  0.46162714751E+03  0.14505446112E+02 0.  0.
         22    1    3    3    0    0  0.17338522131E+02 -0.16985703784E+01 -0.14458052314E+02  0.22639451578E+02  0.00000000000E+00 0.  1.
         22    1    4    4    0    0 -0.10701378306E+02 -0.39538395959E+01 -0.36030056239E+03  0.36048113349E+03  0.00000000000E+00 0.  1.
         22    1    4    4    0    0 -0.66371438253E+01  0.56524099743E+01 -0.10076961216E+03  0.10114601402E+03  0.00000000000E+00 0.  1.
<mgrwt>
<rscale>  0 0.91580808E+02</rscale>
<asrwt>0</asrwt>
<pdfrwt beam="2">  1        1 0.73830329E-01 0.91580808E+02</pdfrwt>
<pdfrwt beam="1">  1       -1 0.67218286E-03 0.91580808E+02</pdfrwt>
<totfact> 0.13694695E+05</totfact>
</mgrwt>
</event>
<event>
 7    1  0.3301067E-009  0.9328648E+02  0.7818608E-02  0.1295083E+00
         -1   -1    0    0    0  501 -0.00000000000E+00  0.00000000000E+00  0.12397053699E+02  0.12397054723E+02  0.50400000000E-02 0.  1.
          1   -1    0    0  501    0  0.00000000000E+00 -0.00000000000E+00 -0.17549262709E+03  0.17549262717E+03  0.50400000000E-02 0. -1.
         23    2    1    2    0    0 -0.22204460493E-15  0.00000000000E+00 -0.16309557340E+03  0.18788968189E+03  0.93286475437E+02 0.  0.
    9000005    2    3    3    0    0  0.10749072525E+01  0.43386564594E+02 -0.57801477166E+02  0.74002035002E+02  0.15866348322E+02 0.  0.
         22    1    3    3    0    0 -0.10749072525E+01 -0.43386564594E+02 -0.10529409623E+03  0.11388764689E+03  0.00000000000E+00 0. -1.
         22    1    4    4    0    0 -0.20423935549E+00  0.43074509129E+02 -0.58390465028E+02  0.72559640687E+02  0.00000000000E+00 0.  1.
         22    1    4    4    0    0  0.12791466080E+01  0.31205546480E+00  0.58898786254E+00  0.14423943150E+01  0.00000000000E+00 0.  1.
<mgrwt>
<rscale>  0 0.93286475E+02</rscale>
<asrwt>0</asrwt>
<pdfrwt beam="2">  1        1 0.26998864E-01 0.93286475E+02</pdfrwt>
<pdfrwt beam="1">  1       -1 0.19072392E-02 0.93286475E+02</pdfrwt>
<totfact> 0.10856595E+05</totfact>
</mgrwt>
</event>
<event>
 7    1  0.3301067E-009  0.9103894E+02  0.7818608E-02  0.1300355E+00
          1   -1    0    0  501    0  0.00000000000E+00  0.00000000000E+00  0.42467582960E+02  0.42467583259E+02  0.50400000000E-02 0. -1.
         -1   -1    0    0    0  501 -0.00000000000E+00 -0.00000000000E+00 -0.48790678752E+02  0.48790679012E+02  0.50400000000E-02 0.  1.
         23    2    1    2    0    0  0.00000000000E+00  0.00000000000E+00 -0.63230957920E+01  0.91258262271E+02  0.91038941625E+02 0.  0.
    9000005    2    3    3    0    0 -0.41991768862E+02 -0.14440740068E+02  0.55335478070E+01  0.45297152370E+02  0.70262533111E+01 0.  0.
         22    1    3    3    0    0  0.41991768862E+02  0.14440740068E+02 -0.11856643599E+02  0.45961109901E+02  0.00000000000E+00 0. -1.
         22    1    4    4    0    0 -0.34741430156E+02 -0.94325513607E+01  0.58911285497E+01  0.36478012419E+02  0.00000000000E+00 0.  1.
         22    1    4    4    0    0 -0.72503387063E+01 -0.50081887074E+01 -0.35758074271E+00  0.88191399508E+01  0.00000000000E+00 0.  1.
<mgrwt>
<rscale>  0 0.91038942E+02</rscale>
<asrwt>0</asrwt>
<pdfrwt beam="1">  1        1 0.65334743E-02 0.91038942E+02</pdfrwt>
<pdfrwt beam="2">  1       -1 0.75062583E-02 0.91038942E+02</pdfrwt>
<totfact> 0.91880747E+04</totfact>
</mgrwt>
</event>
<event>
 7    1  0.3301067E-009  0.9519812E+02  0.7818608E-02  0.1290730E+00
          1   -1    0    0  501    0  0.00000000000E+00  0.00000000000E+00  0.99183070145E+02  0.99183070273E+02  0.50400000000E-02 0. -1.
         -1   -1    0    0    0  501 -0.00000000000E+00 -0.00000000000E+00 -0.22843319707E+02  0.22843320263E+02  0.50400000000E-02 0.  1.
         23    2    1    2    0    0  0.00000000000E+00  0.00000000000E+00  0.76339750438E+02  0.12202639054E+03  0.95198122304E+02 0.  0.
    9000005    2    3    3    0    0  0.26620657524E+02 -0.15059935441E+02 -0.63493077094E+01  0.33862104117E+02  0.13071622865E+02 0.  0.
         22    1    3    3    0    0 -0.26620657524E+02  0.15059935441E+02  0.82689058147E+02  0.88164286419E+02  0.00000000000E+00 0. -1.
         22    1    4    4    0    0  0.17890757034E+02 -0.79035982922E+01  0.22274088619E+01  0.19685207732E+02  0.00000000000E+00 0.  1.
         22    1    4    4    0    0  0.87299004896E+01 -0.71563371493E+01 -0.85767165713E+01  0.14176896385E+02  0.00000000000E+00 0.  1.
<mgrwt>
<rscale>  0 0.95198122E+02</rscale>
<asrwt>0</asrwt>
<pdfrwt beam="1">  1        1 0.15258934E-01 0.95198122E+02</pdfrwt>
<pdfrwt beam="2">  1       -1 0.35143569E-02 0.95198122E+02</pdfrwt>
<totfact> 0.92689113E+04</totfact>
</mgrwt>
</event>
<event>
 7    1  0.3301067E-009  0.9100497E+02  0.7818608E-02  0.1300436E+00
          1   -1    0    0  501    0  0.00000000000E+00  0.00000000000E+00  0.13770785957E+03  0.13770785966E+03  0.50400000000E-02 0. -1.
         -1   -1    0    0    0  501 -0.00000000000E+00 -0.00000000000E+00 -0.15035277487E+02  0.15035278332E+02  0.50400000000E-02 0.  1.
         23    2    1    2    0    0  0.00000000000E+00  0.17763568394E-14  0.12267258208E+03  0.15274313799E+03  0.91004965848E+02 0.  0.
    9000005    2    3    3    0    0  0.62009050645E+01  0.14618757382E+02  0.13230126295E+03  0.13417244101E+03  0.15699059097E+02 0.  0.
         22    1    3    3    0    0 -0.62009050645E+01 -0.14618757382E+02 -0.96286808726E+01  0.18570696981E+02  0.00000000000E+00 0.  1.
         22    1    4    4    0    0 -0.33945993316E+01  0.12575923729E+01  0.79197842191E+01  0.87079173902E+01  0.00000000000E+00 0. -1.
         22    1    4    4    0    0  0.95955043961E+01  0.13361165009E+02  0.12438147873E+03  0.12546452362E+03  0.00000000000E+00 0. -1.
<mgrwt>
<rscale>  0 0.91004966E+02</rscale>
<asrwt>0</asrwt>
<pdfrwt beam="1">  1        1 0.21185825E-01 0.91004966E+02</pdfrwt>
<pdfrwt beam="2">  1       -1 0.23131196E-02 0.91004966E+02</pdfrwt>
<totfact> 0.11096504E+05</totfact>
</mgrwt>
</event>
<event>
 7    1  0.3301067E-009  0.9144419E+02  0.7818608E-02  0.1299392E+00
          1   -1    0    0  501    0  0.00000000000E+00  0.00000000000E+00  0.47452409859E+03  0.47452409861E+03  0.50400000000E-02 0. -1.
         -1   -1    0    0    0  501 -0.00000000000E+00 -0.00000000000E+00 -0.44054855928E+01  0.44054884758E+01  0.50400000000E-02 0.  1.
         23    2    1    2    0    0  0.00000000000E+00  0.00000000000E+00  0.47011861300E+03  0.47892958709E+03  0.91444185743E+02 0.  0.
    9000005    2    3    3    0    0 -0.22136123074E+02 -0.23728555516E+02  0.40060688524E+03  0.40221627282E+03  0.15459667657E+02 0.  0.
         22    1    3    3    0    0  0.22136123074E+02  0.23728555516E+02  0.69511727755E+02  0.76713314275E+02  0.00000000000E+00 0.  1.
         22    1    4    4    0    0 -0.23183818721E+02 -0.19080693558E+02  0.37252170992E+03  0.37372983113E+03  0.00000000000E+00 0. -1.
         22    1    4    4    0    0  0.10476956476E+01 -0.46478619578E+01  0.28085175325E+02  0.28486441687E+02  0.00000000000E+00 0. -1.
<mgrwt>
<rscale>  0 0.91444186E+02</rscale>
<asrwt>0</asrwt>
<pdfrwt beam="1">  1        1 0.73003647E-01 0.91444186E+02</pdfrwt>
<pdfrwt beam="2">  1       -1 0.67776780E-03 0.91444186E+02</pdfrwt>
<totfact> 0.13728958E+05</totfact>
</mgrwt>
</event>
<event>
 7    1  0.3301067E-009  0.8930029E+02  0.7818608E-02  0.1304555E+00
         -1   -1    0    0    0  501 -0.00000000000E+00  0.00000000000E+00  0.41877885985E+02  0.41877886288E+02  0.50400000000E-02 0.  1.
          1   -1    0    0  501    0  0.00000000000E+00 -0.00000000000E+00 -0.47605923372E+02  0.47605923639E+02  0.50400000000E-02 0. -1.
         23    2    1    2    0    0  0.35527136788E-14 -0.35527136788E-14 -0.57280373868E+01  0.89483809927E+02  0.89300290183E+02 0.  0.
    9000005    2    3    3    0    0  0.28261011330E+02 -0.22276788871E+02  0.23213613650E+02  0.43304168866E+02  0.64373207712E+01 0.  0.
         22    1    3    3    0    0 -0.28261011330E+02  0.22276788871E+02 -0.28941651037E+02  0.46179641061E+02  0.00000000000E+00 0. -1.
         22    1    4    4    0    0  0.23265954696E+02 -0.17384189412E+02  0.21414060632E+02  0.36084299663E+02  0.00000000000E+00 0. -1.
         22    1    4    4    0    0  0.49950566345E+01 -0.48925994589E+01  0.17995530174E+01  0.72198692031E+01  0.00000000000E+00 0. -1.
<mgrwt>
<rscale>  0 0.89300290E+02</rscale>
<asrwt>0</asrwt>
<pdfrwt beam="2">  1        1 0.73239883E-02 0.89300290E+02</pdfrwt>
<pdfrwt beam="1">  1       -1 0.64427517E-02 0.89300290E+02</pdfrwt>
<totfact> 0.98644847E+04</totfact>
</mgrwt>
</event>
<event>
 7    1  0.3301067E-009  0.9151640E+02  0.7818608E-02  0.1299221E+00
         -1   -1    0    0    0  501 -0.00000000000E+00  0.00000000000E+00  0.30108693436E+01  0.30108735619E+01  0.50400000000E-02 0.  1.
          1   -1    0    0  501    0  0.00000000000E+00 -0.00000000000E+00 -0.69541748034E+03  0.69541748036E+03  0.50400000000E-02 0. -1.
         23    2    1    2    0    0  0.00000000000E+00  0.00000000000E+00 -0.69240661100E+03  0.69842835392E+03  0.91516395297E+02 0.  0.
    9000005    2    3    3    0    0  0.23789793318E+02  0.32183374378E+02 -0.50584250679E+03  0.50761984040E+03  0.14125751029E+02 0.  0.
         22    1    3    3    0    0 -0.23789793318E+02 -0.32183374378E+02 -0.18656410421E+03  0.19080851352E+03  0.00000000000E+00 0.  1.
         22    1    4    4    0    0  0.17405588037E+02  0.12873954493E+02 -0.22362841789E+03  0.22467390255E+03  0.00000000000E+00 0.  1.
         22    1    4    4    0    0  0.63842052812E+01  0.19309419885E+02 -0.28221408890E+03  0.28294593785E+03  0.00000000000E+00 0.  1.
<mgrwt>
<rscale>  0 0.91516395E+02</rscale>
<asrwt>0</asrwt>
<pdfrwt beam="2">  1        1 0.10698718E+00 0.91516395E+02</pdfrwt>
<pdfrwt beam="1">  1       -1 0.46321155E-03 0.91516395E+02</pdfrwt>
<totfact> 0.14079059E+05</totfact>
</mgrwt>
</event>
<event>
 7    1  0.3301067E-009  0.9089651E+02  0.7818608E-02  0.1300695E+00
         -1   -1    0    0    0  501 -0.00000000000E+00  0.00000000000E+00  0.61447415818E+01  0.61447436487E+01  0.50400000000E-02 0.  1.
          1   -1    0    0  501    0  0.00000000000E+00 -0.00000000000E+00 -0.33614814877E+03  0.33614814881E+03  0.50400000000E-02 0. -1.
         23    2    1    2    0    0  0.00000000000E+00  0.17763568394E-14 -0.33000340719E+03  0.34229289245E+03  0.90896509671E+02 0.  0.
    9000005    2    3    3    0    0 -0.67176615793E+01  0.14485368553E+02 -0.32523555479E+03  0.32562900048E+03  0.10615918918E+01 0.  0.
         22    1    3    3    0    0  0.67176615793E+01 -0.14485368553E+02 -0.47678523995E+01  0.16663891974E+02  0.00000000000E+00 0.  1.
         22    1    4    4    0    0 -0.77748293422E+00  0.23139688000E+01 -0.55451284324E+02  0.55504989546E+02  0.00000000000E+00 0.  1.
         22    1    4    4    0    0 -0.59401786451E+01  0.12171399753E+02 -0.26978427046E+03  0.27012401093E+03  0.00000000000E+00 0.  1.
<mgrwt>
<rscale>  0 0.90896510E+02</rscale>
<asrwt>0</asrwt>
<pdfrwt beam="2">  1        1 0.51715085E-01 0.90896510E+02</pdfrwt>
<pdfrwt beam="1">  1       -1 0.94534529E-03 0.90896510E+02</pdfrwt>
<totfact> 0.13195142E+05</totfact>
</mgrwt>
</event>
<event>
 7    1  0.3301067E-009  0.9153191E+02  0.7818608E-02  0.1299184E+00
          1   -1    0    0  501    0  0.00000000000E+00  0.00000000000E+00  0.33336997173E+03  0.33336997176E+03  0.50400000000E-02 0. -1.
         -1   -1    0    0    0  501 -0.00000000000E+00 -0.00000000000E+00 -0.62828766750E+01  0.62828786965E+01  0.50400000000E-02 0.  1.
         23    2    1    2    0    0  0.00000000000E+00  0.35527136788E-14  0.32708709505E+03  0.33965285046E+03  0.91531912889E+02 0.  0.
    9000005    2    3    3    0    0 -0.14452386322E+02  0.28241953857E+02  0.28433109601E+03  0.28641231250E+03  0.13467040022E+02 0.  0.
         22    1    3    3    0    0  0.14452386322E+02 -0.28241953857E+02  0.42755999041E+02  0.53240537958E+02  0.00000000000E+00 0.  1.
         22    1    4    4    0    0 -0.59652898693E+01  0.11897475894E+02  0.67440490133E+02  0.68741212713E+02  0.00000000000E+00 0. -1.
         22    1    4    4    0    0 -0.84870964528E+01  0.16344477963E+02  0.21689060588E+03  0.21767109979E+03  0.00000000000E+00 0. -1.
<mgrwt>
<rscale>  0 0.91531913E+02</rscale>
<asrwt>0</asrwt>
<pdfrwt beam="1">  1        1 0.51287693E-01 0.91531913E+02</pdfrwt>
<pdfrwt beam="2">  1       -1 0.96659648E-03 0.91531913E+02</pdfrwt>
<totfact> 0.12933098E+05</totfact>
</mgrwt>
</event>
<event>
 7    1  0.3301067E-009  0.9108082E+02  0.7818608E-02  0.1300255E+00
          1   -1    0    0  501    0  0.00000000000E+00  0.00000000000E+00  0.17176742185E+02  0.17176742925E+02  0.50400000000E-02 0. -1.
         -1   -1    0    0    0  501 -0.00000000000E+00 -0.00000000000E+00 -0.12074051505E+03  0.12074051515E+03  0.50400000000E-02 0.  1.
         23    2    1    2    0    0  0.71054273576E-14  0.00000000000E+00 -0.10356377286E+03  0.13791725807E+03  0.91080815905E+02 0.  0.
    9000005    2    3    3    0    0  0.33920518986E+02  0.27830894850E+02 -0.40807785720E+02  0.61343932182E+02  0.13139342592E+02 0.  0.
         22    1    3    3    0    0 -0.33920518986E+02 -0.27830894850E+02 -0.62755987140E+02  0.76573325893E+02  0.00000000000E+00 0. -1.
         22    1    4    4    0    0  0.22905095692E+02  0.18313699941E+02 -0.35021735400E+02  0.45678845920E+02  0.00000000000E+00 0. -1.
         22    1    4    4    0    0  0.11015423294E+02  0.95171949093E+01 -0.57860503201E+01  0.15665086262E+02  0.00000000000E+00 0. -1.
<mgrwt>
<rscale>  0 0.91080816E+02</rscale>
<asrwt>0</asrwt>
<pdfrwt beam="1">  1        1 0.26425759E-02 0.91080816E+02</pdfrwt>
<pdfrwt beam="2">  1       -1 0.18575463E-01 0.91080816E+02</pdfrwt>
<totfact> 0.78645979E+04</totfact>
</mgrwt>
</event>
<event>
 7    1  0.3301067E-009  0.1077255E+03  0.7818608E-02  0.1264841E+00
          1   -1    0    0  501    0  0.00000000000E+00  0.00000000000E+00  0.68652287241E+01  0.68652305741E+01  0.50400000000E-02 0. -1.
         -1   -1    0    0    0  501 -0.00000000000E+00 -0.00000000000E+00 -0.42259267553E+03  0.42259267556E+03  0.50400000000E-02 0.  1.
         23    2    1    2    0    0  0.71054273576E-14  0.00000000000E+00 -0.41572744681E+03  0.42945790613E+03  0.10772549890E+03 0.  0.
    9000005    2    3    3    0    0  0.52354500771E+02  0.45899345426E+01 -0.24874282034E+03  0.25439812570E+03  0.91298651887E+01 0.  0.
         22    1    3    3    0    0 -0.52354500771E+02 -0.45899345426E+01 -0.16698462647E+03  0.17505978044E+03  0.00000000000E+00 0. -1.
         22    1    4    4    0    0  0.37720844243E+02  0.72833252962E+01 -0.17449586363E+03  0.17867488727E+03  0.00000000000E+00 0.  1.
         22    1    4    4    0    0  0.14633656528E+02 -0.26933907535E+01 -0.74246956711E+02  0.75723238428E+02  0.00000000000E+00 0.  1.
<mgrwt>
<rscale>  0 0.10772550E+03</rscale>
<asrwt>0</asrwt>
<pdfrwt beam="1">  1        1 0.10561895E-02 0.10772550E+03</pdfrwt>
<pdfrwt beam="2">  1       -1 0.65014238E-01 0.10772550E+03</pdfrwt>
<totfact> 0.33365000E+04</totfact>
</mgrwt>
</event>
<event>
 7    1  0.3301067E-009  0.9066578E+02  0.7818608E-02  0.1301247E+00
         -1   -1    0    0    0  501 -0.00000000000E+00  0.00000000000E+00  0.42428765333E+02  0.42428765632E+02  0.50400000000E-02 0.  1.
          1   -1    0    0  501    0  0.00000000000E+00 -0.00000000000E+00 -0.48435795369E+02  0.48435795631E+02  0.50400000000E-02 0. -1.
         23    2    1    2    0    0  0.00000000000E+00 -0.71054273576E-14 -0.60070300361E+01  0.90864561264E+02  0.90665782321E+02 0.  0.
    9000005    2    3    3    0    0  0.16219681110E+02 -0.37142756159E+02  0.15356580108E+02  0.45048993726E+02  0.12285149271E+02 0.  0.
         22    1    3    3    0    0 -0.16219681110E+02  0.37142756159E+02 -0.21363610145E+02  0.45815567538E+02  0.00000000000E+00 0. -1.
         22    1    4    4    0    0  0.32024604788E+01 -0.29032177835E+00  0.59393720260E+00  0.32699849011E+01  0.00000000000E+00 0.  1.
         22    1    4    4    0    0  0.13017220632E+02 -0.36852434381E+02  0.14762642906E+02  0.41779008824E+02  0.00000000000E+00 0.  1.
<mgrwt>
<rscale>  0 0.90665782E+02</rscale>
<asrwt>0</asrwt>
<pdfrwt beam="2">  1        1 0.74516609E-02 0.90665782E+02</pdfrwt>
<pdfrwt beam="1">  1       -1 0.65275024E-02 0.90665782E+02</pdfrwt>
<totfact> 0.94796179E+04</totfact>
</mgrwt>
</event>
<event>
 7    1  0.3301067E-009  0.9166319E+02  0.7818608E-02  0.1298873E+00
          1   -1    0    0  501    0  0.00000000000E+00  0.00000000000E+00  0.85463936396E+03  0.85463936398E+03  0.50400000000E-02 0. -1.
         -1   -1    0    0    0  501 -0.00000000000E+00 -0.00000000000E+00 -0.24578002874E+01  0.24578054549E+01  0.50400000000E-02 0.  1.
         23    2    1    2    0    0  0.00000000000E+00 -0.71054273576E-14  0.85218156367E+03  0.85709716943E+03  0.91663189892E+02 0.  0.
    9000005    2    3    3    0    0 -0.10046828108E+02  0.32634550731E+02  0.70613094110E+03  0.70710804645E+03  0.14660515965E+02 0.  0.
         22    1    3    3    0    0  0.10046828108E+02 -0.32634550731E+02  0.14605062258E+03  0.14998912298E+03  0.00000000000E+00 0.  1.
         22    1    4    4    0    0 -0.10761240195E+02  0.33812228149E+02  0.69228406160E+03  0.69319282527E+03  0.00000000000E+00 0.  1.
         22    1    4    4    0    0  0.71441208741E+00 -0.11776774180E+01  0.13846879497E+02  0.13915221182E+02  0.00000000000E+00 0.  1.
<mgrwt>
<rscale>  0 0.91663190E+02</rscale>
<asrwt>0</asrwt>
<pdfrwt beam="1">  1        1 0.13148308E+00 0.91663190E+02</pdfrwt>
<pdfrwt beam="2">  1       -1 0.37812323E-03 0.91663190E+02</pdfrwt>
<totfact> 0.13831910E+05</totfact>
</mgrwt>
</event>
<event>
 7    1  0.3301067E-009  0.8892063E+02  0.7818608E-02  0.1305487E+00
         -1   -1    0    0    0  501 -0.00000000000E+00  0.00000000000E+00  0.59246045248E+02  0.59246045463E+02  0.50400000000E-02 0.  1.
          1   -1    0    0  501    0  0.00000000000E+00 -0.00000000000E+00 -0.33364582631E+02  0.33364583011E+02  0.50400000000E-02 0. -1.
         23    2    1    2    0    0  0.00000000000E+00  0.00000000000E+00  0.25881462618E+02  0.92610628474E+02  0.88920629772E+02 0.  0.
    9000005    2    3    3    0    0  0.18678916881E+02 -0.36402568901E+02 -0.46217934963E+01  0.41576349876E+02  0.57604631296E+01 0.  0.
         22    1    3    3    0    0 -0.18678916881E+02  0.36402568901E+02  0.30503256114E+02  0.51034278598E+02  0.00000000000E+00 0.  1.
         22    1    4    4    0    0  0.10473306607E+02 -0.16984926580E+02  0.18397221547E+00  0.19955243120E+02  0.00000000000E+00 0.  1.
         22    1    4    4    0    0  0.82056102737E+01 -0.19417642322E+02 -0.48057657117E+01  0.21621106756E+02  0.00000000000E+00 0.  1.
<mgrwt>
<rscale>  0 0.88920630E+02</rscale>
<asrwt>0</asrwt>
<pdfrwt beam="2">  1        1 0.51330128E-02 0.88920630E+02</pdfrwt>
<pdfrwt beam="1">  1       -1 0.91147762E-02 0.88920630E+02</pdfrwt>
<totfact> 0.94674252E+04</totfact>
</mgrwt>
</event>
<event>
 7    1  0.3301067E-009  0.9016615E+02  0.7818608E-02  0.1302450E+00
          1   -1    0    0  501    0  0.00000000000E+00  0.00000000000E+00  0.14441401457E+03  0.14441401465E+03  0.50400000000E-02 0. -1.
         -1   -1    0    0    0  501 -0.00000000000E+00 -0.00000000000E+00 -0.14074004844E+02  0.14074005747E+02  0.50400000000E-02 0.  1.
         23    2    1    2    0    0  0.00000000000E+00 -0.22204460493E-15  0.13034000972E+03  0.15848802040E+03  0.90166149281E+02 0.  0.
    9000005    2    3    3    0    0  0.27295716253E+02 -0.15328971276E+01  0.59835670217E+01  0.31161940038E+02  0.13706112989E+02 0.  0.
         22    1    3    3    0    0 -0.27295716253E+02  0.15328971276E+01  0.12435644270E+03  0.12732608036E+03  0.00000000000E+00 0. -1.
         22    1    4    4    0    0  0.28497287292E+01  0.16140159251E+01 -0.34626268489E+01  0.47661080486E+01  0.00000000000E+00 0. -1.
         22    1    4    4    0    0  0.24445987524E+02 -0.31469130527E+01  0.94461938706E+01  0.26395831990E+02  0.00000000000E+00 0. -1.
<mgrwt>
<rscale>  0 0.90166149E+02</rscale>
<asrwt>0</asrwt>
<pdfrwt beam="1">  1        1 0.22217541E-01 0.90166149E+02</pdfrwt>
<pdfrwt beam="2">  1       -1 0.21652316E-02 0.90166149E+02</pdfrwt>
<totfact> 0.11475430E+05</totfact>
</mgrwt>
</event>
<event>
 7    1  0.3301067E-009  0.9090681E+02  0.7818608E-02  0.1300670E+00
         -1   -1    0    0    0  501 -0.00000000000E+00  0.00000000000E+00  0.88746556631E+01  0.88746570942E+01  0.50400000000E-02 0.  1.
          1   -1    0    0  501    0  0.00000000000E+00 -0.00000000000E+00 -0.23279909943E+03  0.23279909949E+03  0.50400000000E-02 0. -1.
         23    2    1    2    0    0  0.00000000000E+00  0.00000000000E+00 -0.22392444377E+03  0.24167375658E+03  0.90906809991E+02 0.  0.
    9000005    2    3    3    0    0 -0.14190693915E+02 -0.38101966913E+02 -0.60737069167E+02  0.73497495159E+02  0.77301065427E+01 0.  0.
         22    1    3    3    0    0  0.14190693915E+02  0.38101966913E+02 -0.16318737460E+03  0.16817626142E+03  0.00000000000E+00 0. -1.
         22    1    4    4    0    0 -0.12044758128E+02 -0.36928325418E+02 -0.58216460399E+02  0.69985239000E+02  0.00000000000E+00 0.  1.
         22    1    4    4    0    0 -0.21459357871E+01 -0.11736414954E+01 -0.25206087684E+01  0.35122561589E+01  0.00000000000E+00 0.  1.
<mgrwt>
<rscale>  0 0.90906810E+02</rscale>
<asrwt>0</asrwt>
<pdfrwt beam="2">  1        1 0.35815242E-01 0.90906810E+02</pdfrwt>
<pdfrwt beam="1">  1       -1 0.13653319E-02 0.90906810E+02</pdfrwt>
<totfact> 0.12293388E+05</totfact>
</mgrwt>
</event>
<event>
 7    1  0.3301067E-009  0.9455823E+02  0.7818608E-02  0.1292174E+00
         -1   -1    0    0    0  501 -0.00000000000E+00  0.00000000000E+00  0.47097617689E+02  0.47097617959E+02  0.50400000000E-02 0. -1.
          1   -1    0    0  501    0  0.00000000000E+00 -0.00000000000E+00 -0.47461308094E+02  0.47461308361E+02  0.50400000000E-02 0.  1.
         23    2    1    2    0    0  0.00000000000E+00 -0.35527136788E-14 -0.36369040479E+00  0.94558926320E+02  0.94558226908E+02 0.  0.
    9000005    2    3    3    0    0  0.17336814487E+02 -0.31418895001E+02  0.29751877112E+02  0.47711733165E+02  0.10174634647E+02 0.  0.
         22    1    3    3    0    0 -0.17336814487E+02  0.31418895001E+02 -0.30115567517E+02  0.46847193155E+02  0.00000000000E+00 0.  1.
         22    1    4    4    0    0  0.20455072056E+01 -0.14907913321E+01  0.61312445838E+01  0.66331529961E+01  0.00000000000E+00 0. -1.
         22    1    4    4    0    0  0.15291307282E+02 -0.29928103669E+02  0.23620632528E+02  0.41078580168E+02  0.00000000000E+00 0. -1.
<mgrwt>
<rscale>  0 0.94558227E+02</rscale>
<asrwt>0</asrwt>
<pdfrwt beam="2">  1        1 0.73017398E-02 0.94558227E+02</pdfrwt>
<pdfrwt beam="1">  1       -1 0.72457874E-02 0.94558227E+02</pdfrwt>
<totfact> 0.83976671E+04</totfact>
</mgrwt>
</event>
<event>
 7    1  0.3301067E-009  0.9565878E+02  0.7818608E-02  0.1289699E+00
          1   -1    0    0  501    0  0.00000000000E+00  0.00000000000E+00  0.11264606594E+02  0.11264607722E+02  0.50400000000E-02 0. -1.
         -1   -1    0    0    0  501 -0.00000000000E+00 -0.00000000000E+00 -0.20308303105E+03  0.20308303112E+03  0.50400000000E-02 0.  1.
         23    2    1    2    0    0  0.35527136788E-14  0.00000000000E+00 -0.19181842446E+03  0.21434763884E+03  0.95658780639E+02 0.  0.
    9000005    2    3    3    0    0 -0.30636292301E+02  0.19503956936E+02 -0.32161107621E+02  0.50611736966E+02  0.14429980358E+02 0.  0.
         22    1    3    3    0    0  0.30636292301E+02 -0.19503956936E+02 -0.15965731684E+03  0.16373590187E+03  0.00000000000E+00 0.  1.
         22    1    4    4    0    0 -0.11487035501E+02  0.10918714496E+02 -0.57069971526E+01  0.16844587479E+02  0.00000000000E+00 0. -1.
         22    1    4    4    0    0 -0.19149256800E+02  0.85852424406E+01 -0.26454110469E+02  0.33767149487E+02  0.00000000000E+00 0. -1.
<mgrwt>
<rscale>  0 0.95658781E+02</rscale>
<asrwt>0</asrwt>
<pdfrwt beam="1">  1        1 0.17330166E-02 0.95658781E+02</pdfrwt>
<pdfrwt beam="2">  1       -1 0.31243541E-01 0.95658781E+02</pdfrwt>
<totfact> 0.60979098E+04</totfact>
</mgrwt>
</event>
<event>
 7    1  0.3301067E-009  0.8926546E+02  0.7818608E-02  0.1304640E+00
          1   -1    0    0  501    0  0.00000000000E+00  0.00000000000E+00  0.82877026000E+02  0.82877026153E+02  0.50400000000E-02 0. -1.
         -1   -1    0    0    0  501 -0.00000000000E+00 -0.00000000000E+00 -0.24036582853E+02  0.24036583382E+02  0.50400000000E-02 0.  1.
         23    2    1    2    0    0  0.00000000000E+00 -0.35527136788E-14  0.58840443147E+02  0.10691360953E+03  0.89265458908E+02 0.  0.
    9000005    2    3    3    0    0  0.34391294090E+02  0.21109381222E+02  0.66325191883E+01  0.40928502057E+02  0.16687974984E+01 0.  0.
         22    1    3    3    0    0 -0.34391294090E+02 -0.21109381222E+02  0.52207923958E+02  0.65985107478E+02  0.00000000000E+00 0. -1.
         22    1    4    4    0    0  0.33501707504E+01  0.17566043512E+01  0.20508978883E+00  0.37883195120E+01  0.00000000000E+00 0. -1.
         22    1    4    4    0    0  0.31041123340E+02  0.19352776871E+02  0.64274293995E+01  0.37140182545E+02  0.00000000000E+00 0. -1.
<mgrwt>
<rscale>  0 0.89265459E+02</rscale>
<asrwt>0</asrwt>
<pdfrwt beam="1">  1        1 0.12750312E-01 0.89265459E+02</pdfrwt>
<pdfrwt beam="2">  1       -1 0.36979358E-02 0.89265459E+02</pdfrwt>
<totfact> 0.10735441E+05</totfact>
</mgrwt>
</event>
<event>
 7    1  0.3301067E-009  0.9238688E+02  0.7818608E-02  0.1297172E+00
         -1   -1    0    0    0  501 -0.00000000000E+00  0.00000000000E+00  0.61488360872E+01  0.61488381528E+01  0.50400000000E-02 0.  1.
          1   -1    0    0  501    0  0.00000000000E+00 -0.00000000000E+00 -0.34703049745E+03  0.34703049749E+03  0.50400000000E-02 0. -1.
         23    2    1    2    0    0 -0.71054273576E-14  0.88817841970E-15 -0.34088166136E+03  0.35317933564E+03  0.92386882561E+02 0.  0.
    9000005    2    3    3    0    0 -0.41860771921E+02  0.70492185332E+01 -0.11756406419E+03  0.12586289339E+03  0.14769666111E+02 0.  0.
         22    1    3    3    0    0  0.41860771921E+02 -0.70492185332E+01 -0.22331759718E+03  0.22731644225E+03  0.00000000000E+00 0. -1.
         22    1    4    4    0    0 -0.38228286978E+02  0.78467718164E+01 -0.90654853212E+02  0.98697903544E+02  0.00000000000E+00 0. -1.
         22    1    4    4    0    0 -0.36324849427E+01 -0.79755328316E+00 -0.26909210974E+02  0.27164989846E+02  0.00000000000E+00 0. -1.
<mgrwt>
<rscale>  0 0.92386883E+02</rscale>
<asrwt>0</asrwt>
<pdfrwt beam="2">  1        1 0.53389292E-01 0.92386883E+02</pdfrwt>
<pdfrwt beam="1">  1       -1 0.94597522E-03 0.92386883E+02</pdfrwt>
<totfact> 0.12709081E+05</totfact>
</mgrwt>
</event>
<event>
 7    1  0.6056455E-009  0.9032448E+02  0.7818608E-02  0.1302068E+00
          1   -1    0    0  501    0  0.00000000000E+00  0.00000000000E+00  0.52273496478E+03  0.52273496481E+03  0.50400000000E-02 0. -1.
         -1   -1    0    0    0  501 -0.00000000000E+00 -0.00000000000E+00 -0.39018382349E+01  0.39018414900E+01  0.50400000000E-02 0.  1.
         23    2    1    2    0    0  0.17763568394E-14  0.00000000000E+00  0.51883312655E+03  0.52663680630E+03  0.90324484739E+02 0.  0.
    9000005    2    3    3    0    0 -0.12286102678E+02  0.13837599939E+02  0.49871679872E+03  0.49930378348E+03  0.15601133922E+02 0.  0.
         22    1    3    3    0    0  0.12286102678E+02 -0.13837599939E+02  0.20116327828E+02  0.27333022818E+02  0.00000000000E+00 0.  1.
         22    1    4    4    0    0 -0.13295558552E+02  0.61275377236E+01  0.40515995501E+03  0.40542435514E+03  0.00000000000E+00 0. -1.
         22    1    4    4    0    0  0.10094558737E+01  0.77100622154E+01  0.93556843711E+02  0.93879428341E+02  0.00000000000E+00 0. -1.
<mgrwt>
<rscale>  0 0.90324485E+02</rscale>
<asrwt>0</asrwt>
<pdfrwt beam="1">  1        1 0.80420762E-01 0.90324485E+02</pdfrwt>
<pdfrwt beam="2">  1       -1 0.60028307E-03 0.90324485E+02</pdfrwt>
<totfact> 0.14348375E+05</totfact>
</mgrwt>
</event>
<event>
 7    1  0.3301067E-009  0.9154809E+02  0.7818608E-02  0.1299145E+00
         -1   -1    0    0    0  501 -0.00000000000E+00  0.00000000000E+00  0.96430351452E+01  0.96430364623E+01  0.50400000000E-02 0.  1.
          1   -1    0    0  501    0  0.00000000000E+00 -0.00000000000E+00 -0.21728252770E+03  0.21728252776E+03  0.50400000000E-02 0. -1.
         23    2    1    2    0    0  0.00000000000E+00 -0.71054273576E-14 -0.20763949255E+03  0.22692556422E+03  0.91548090250E+02 0.  0.
    9000005    2    3    3    0    0 -0.13258030197E+02 -0.38994642001E+02 -0.15159664746E+03  0.15737588445E+03  0.94481753192E+01 0.  0.
         22    1    3    3    0    0  0.13258030197E+02  0.38994642001E+02 -0.56042845096E+02  0.69549679768E+02  0.00000000000E+00 0.  1.
         22    1    4    4    0    0 -0.45109251868E+01 -0.23900972647E+02 -0.76219871990E+02  0.80006711129E+02  0.00000000000E+00 0. -1.
         22    1    4    4    0    0 -0.87471050103E+01 -0.15093669353E+02 -0.75376775466E+02  0.77369173321E+02  0.00000000000E+00 0. -1.
<mgrwt>
<rscale>  0 0.91548090E+02</rscale>
<asrwt>0</asrwt>
<pdfrwt beam="2">  1        1 0.33428078E-01 0.91548090E+02</pdfrwt>
<pdfrwt beam="1">  1       -1 0.14835441E-02 0.91548090E+02</pdfrwt>
<totfact> 0.11902750E+05</totfact>
</mgrwt>
</event>
<event>
 7    1  0.3301067E-009  0.9350620E+02  0.7818608E-02  0.1294576E+00
         -1   -1    0    0    0  501 -0.00000000000E+00  0.00000000000E+00  0.32965149145E+01  0.32965187673E+01  0.50400000000E-02 0.  1.
          1   -1    0    0  501    0  0.00000000000E+00 -0.00000000000E+00 -0.66307938858E+03  0.66307938860E+03  0.50400000000E-02 0. -1.
         23    2    1    2    0    0  0.17763568394E-14  0.00000000000E+00 -0.65978287367E+03  0.66637590737E+03  0.93506200523E+02 0.  0.
    9000005    2    3    3    0    0  0.14392260356E+02  0.32937747610E+02 -0.54255473959E+03  0.54376078679E+03  0.42562213920E+01 0.  0.
         22    1    3    3    0    0 -0.14392260356E+02 -0.32937747610E+02 -0.11722813408E+03  0.12261512058E+03  0.00000000000E+00 0.  1.
         22    1    4    4    0    0  0.11770288225E+02  0.25803991473E+02 -0.40059238270E+03  0.40159512290E+03  0.00000000000E+00 0. -1.
         22    1    4    4    0    0  0.26219721310E+01  0.71337561374E+01 -0.14196235689E+03  0.14216566389E+03  0.00000000000E+00 0. -1.
<mgrwt>
<rscale>  0 0.93506201E+02</rscale>
<asrwt>0</asrwt>
<pdfrwt beam="2">  1        1 0.10201211E+00 0.93506201E+02</pdfrwt>
<pdfrwt beam="1">  1       -1 0.50715697E-03 0.93506201E+02</pdfrwt>
<totfact> 0.13295408E+05</totfact>
</mgrwt>
</event>
<event>
 7    1  0.3301067E-009  0.9173473E+02  0.7818608E-02  0.1298704E+00
          1   -1    0    0  501    0  0.00000000000E+00  0.00000000000E+00  0.77231434626E+03  0.77231434628E+03  0.50400000000E-02 0. -1.
         -1   -1    0    0    0  501 -0.00000000000E+00 -0.00000000000E+00 -0.27240373785E+01  0.27240420409E+01  0.50400000000E-02 0.  1.
         23    2    1    2    0    0  0.00000000000E+00  0.55511151231E-16  0.76959030888E+03  0.77503838832E+03  0.91734725384E+02 0.  0.
    9000005    2    3    3    0    0 -0.31029915646E+02 -0.43967258399E+00  0.66840860830E+03  0.66920462476E+03  0.10085294657E+02 0.  0.
         22    1    3    3    0    0  0.31029915646E+02  0.43967258399E+00  0.10118170058E+03  0.10583376356E+03  0.00000000000E+00 0.  1.
         22    1    4    4    0    0 -0.46008994649E-01 -0.16043342144E+01  0.38334203485E+02  0.38367788077E+02  0.00000000000E+00 0. -1.
         22    1    4    4    0    0 -0.30983906651E+02  0.11646616304E+01  0.63007440482E+03  0.63083683668E+03  0.00000000000E+00 0. -1.
<mgrwt>
<rscale>  0 0.91734725E+02</rscale>
<asrwt>0</asrwt>
<pdfrwt beam="1">  1        1 0.11881757E+00 0.91734725E+02</pdfrwt>
<pdfrwt beam="2">  1       -1 0.41908312E-03 0.91734725E+02</pdfrwt>
<totfact> 0.13940992E+05</totfact>
</mgrwt>
</event>
<event>
 7    1  0.3301067E-009  0.8770261E+02  0.7818608E-02  0.1308512E+00
          1   -1    0    0  501    0  0.00000000000E+00  0.00000000000E+00  0.88017748865E+01  0.88017763295E+01  0.50400000000E-02 0. -1.
         -1   -1    0    0    0  501 -0.00000000000E+00 -0.00000000000E+00 -0.21847150248E+03  0.21847150253E+03  0.50400000000E-02 0.  1.
         23    2    1    2    0    0  0.00000000000E+00  0.00000000000E+00 -0.20966972759E+03  0.22727327886E+03  0.87702614658E+02 0.  0.
    9000005    2    3    3    0    0  0.27782598540E+02  0.26591147577E+02 -0.15547428842E+03  0.16081947884E+03  0.14549518993E+02 0.  0.
         22    1    3    3    0    0 -0.27782598540E+02 -0.26591147577E+02 -0.54195439170E+02  0.66453800026E+02  0.00000000000E+00 0. -1.
         22    1    4    4    0    0  0.18022499168E+02  0.13872688139E+02 -0.11609663521E+03  0.11830338397E+03  0.00000000000E+00 0. -1.
         22    1    4    4    0    0  0.97600993722E+01  0.12718459438E+02 -0.39377653214E+02  0.42516094869E+02  0.00000000000E+00 0. -1.
<mgrwt>
<rscale>  0 0.87702615E+02</rscale>
<asrwt>0</asrwt>
<pdfrwt beam="1">  1        1 0.13541195E-02 0.87702615E+02</pdfrwt>
<pdfrwt beam="2">  1       -1 0.33610996E-01 0.87702615E+02</pdfrwt>
<totfact> 0.74832950E+04</totfact>
</mgrwt>
</event>
<event>
 7    1  0.3301067E-009  0.8879040E+02  0.7818608E-02  0.1305808E+00
         -1   -1    0    0    0  501 -0.00000000000E+00  0.00000000000E+00  0.16280751129E+02  0.16280751909E+02  0.50400000000E-02 0.  1.
          1   -1    0    0  501    0  0.00000000000E+00 -0.00000000000E+00 -0.12105914645E+03  0.12105914655E+03  0.50400000000E-02 0. -1.
         23    2    1    2    0    0  0.00000000000E+00 -0.35527136788E-14 -0.10477839532E+03  0.13733989846E+03  0.88790402542E+02 0.  0.
    9000005    2    3    3    0    0 -0.79531150515E+01 -0.23106575910E+02  0.18209965160E+01  0.27975387632E+02  0.13495939965E+02 0.  0.
         22    1    3    3    0    0  0.79531150515E+01  0.23106575910E+02 -0.10659939183E+03  0.10936451083E+03  0.00000000000E+00 0. -1.
         22    1    4    4    0    0 -0.74225715210E+01 -0.24891569473E+02  0.22252623429E+01  0.26069840646E+02  0.00000000000E+00 0.  1.
         22    1    4    4    0    0 -0.53054353053E+00  0.17849935630E+01 -0.40426582697E+00  0.19055469862E+01  0.00000000000E+00 0.  1.
<mgrwt>
<rscale>  0 0.88790403E+02</rscale>
<asrwt>0</asrwt>
<pdfrwt beam="2">  1        1 0.18624484E-01 0.88790403E+02</pdfrwt>
<pdfrwt beam="1">  1       -1 0.25047311E-02 0.88790403E+02</pdfrwt>
<totfact> 0.11592938E+05</totfact>
</mgrwt>
</event>
<event>
 7    1  0.3301067E-009  0.9546910E+02  0.7818608E-02  0.1290123E+00
          1   -1    0    0  501    0  0.00000000000E+00  0.00000000000E+00  0.91030922054E+01  0.91030936006E+01  0.50400000000E-02 0. -1.
         -1   -1    0    0    0  501 -0.00000000000E+00 -0.00000000000E+00 -0.25030911336E+03  0.25030911341E+03  0.50400000000E-02 0.  1.
         23    2    1    2    0    0  0.00000000000E+00  0.71054273576E-14 -0.24120602116E+03  0.25941220702E+03  0.95469097123E+02 0.  0.
    9000005    2    3    3    0    0  0.20915638413E+02 -0.40964315112E+02 -0.99700659329E+02  0.11061937631E+03  0.13449382951E+02 0.  0.
         22    1    3    3    0    0 -0.20915638413E+02  0.40964315112E+02 -0.14150536183E+03  0.14879283071E+03  0.00000000000E+00 0.  1.
         22    1    4    4    0    0  0.15347571041E+02 -0.17519819868E+02 -0.57246730420E+02  0.61803561134E+02  0.00000000000E+00 0. -1.
         22    1    4    4    0    0  0.55680673727E+01 -0.23444495243E+02 -0.42453928909E+02  0.48815815176E+02  0.00000000000E+00 0. -1.
<mgrwt>
<rscale>  0 0.95469097E+02</rscale>
<asrwt>0</asrwt>
<pdfrwt beam="1">  1        1 0.14004760E-02 0.95469097E+02</pdfrwt>
<pdfrwt beam="2">  1       -1 0.38509089E-01 0.95469097E+02</pdfrwt>
<totfact> 0.57395856E+04</totfact>
</mgrwt>
</event>
<event>
 7    1  0.3301067E-009  0.9176489E+02  0.7818608E-02  0.1298633E+00
         -1   -1    0    0    0  501 -0.00000000000E+00  0.00000000000E+00  0.18047942584E+02  0.18047943288E+02  0.50400000000E-02 0.  1.
          1   -1    0    0  501    0  0.00000000000E+00 -0.00000000000E+00 -0.11664479989E+03  0.11664479999E+03  0.50400000000E-02 0. -1.
         23    2    1    2    0    0  0.00000000000E+00  0.00000000000E+00 -0.98596857301E+02  0.13469274328E+03  0.91764888837E+02 0.  0.
    9000005    2    3    3    0    0  0.22007334237E+02 -0.85156297669E+01 -0.10669819051E+03  0.10974338837E+03  0.10112799901E+02 0.  0.
         22    1    3    3    0    0 -0.22007334237E+02  0.85156297669E+01  0.81013332140E+01  0.24949354909E+02  0.00000000000E+00 0.  1.
         22    1    4    4    0    0  0.11584228478E+02 -0.29006772082E+01 -0.32872734053E+02  0.34974632547E+02  0.00000000000E+00 0.  1.
         22    1    4    4    0    0  0.10423105759E+02 -0.56149525587E+01 -0.73825456462E+02  0.74768755826E+02  0.00000000000E+00 0.  1.
<mgrwt>
<rscale>  0 0.91764889E+02</rscale>
<asrwt>0</asrwt>
<pdfrwt beam="2">  1        1 0.17945353E-01 0.91764889E+02</pdfrwt>
<pdfrwt beam="1">  1       -1 0.27766067E-02 0.91764889E+02</pdfrwt>
<totfact> 0.10535424E+05</totfact>
</mgrwt>
</event>
<event>
 7    1  0.3301067E-009  0.9118555E+02  0.7818608E-02  0.1300006E+00
         -1   -1    0    0    0  501 -0.00000000000E+00  0.00000000000E+00  0.41427008297E+01  0.41427038955E+01  0.50400000000E-02 0.  1.
          1   -1    0    0  501    0  0.00000000000E+00 -0.00000000000E+00 -0.50177423490E+03  0.50177423492E+03  0.50400000000E-02 0. -1.
         23    2    1    2    0    0  0.00000000000E+00  0.00000000000E+00 -0.49763153407E+03  0.50591693882E+03  0.91185554145E+02 0.  0.
    9000005    2    3    3    0    0  0.30436221210E+02 -0.32046450488E+02 -0.30793704937E+03  0.31114184782E+03  0.55393625001E+01 0.  0.
         22    1    3    3    0    0 -0.30436221210E+02  0.32046450488E+02 -0.18969448470E+03  0.19477509100E+03  0.00000000000E+00 0.  1.
         22    1    4    4    0    0  0.29675067764E+02 -0.29422547400E+02 -0.29123795061E+03  0.29422073315E+03  0.00000000000E+00 0. -1.
         22    1    4    4    0    0  0.76115344609E+00 -0.26239030881E+01 -0.16699098767E+02  0.16921114669E+02  0.00000000000E+00 0. -1.
<mgrwt>
<rscale>  0 0.91185554E+02</rscale>
<asrwt>0</asrwt>
<pdfrwt beam="2">  1        1 0.77195988E-01 0.91185554E+02</pdfrwt>
<pdfrwt beam="1">  1       -1 0.63733922E-03 0.91185554E+02</pdfrwt>
<totfact> 0.13928780E+05</totfact>
</mgrwt>
</event>
<event>
 7    1  0.3301067E-009  0.8719870E+02  0.7818608E-02  0.1309781E+00
          1   -1    0    0  501    0  0.00000000000E+00  0.00000000000E+00  0.15079709036E+03  0.15079709045E+03  0.50400000000E-02 0. -1.
         -1   -1    0    0    0  501 -0.00000000000E+00 -0.00000000000E+00 -0.12605703751E+02  0.12605704759E+02  0.50400000000E-02 0.  1.
         23    2    1    2    0    0  0.00000000000E+00  0.35527136788E-14  0.13819138661E+03  0.16340279521E+03  0.87198704965E+02 0.  0.
    9000005    2    3    3    0    0  0.37636322911E+02  0.19625928513E+02  0.62309497128E+02  0.76456081503E+02  0.12703900747E+02 0.  0.
         22    1    3    3    0    0 -0.37636322911E+02 -0.19625928513E+02  0.75881889485E+02  0.86946713705E+02  0.00000000000E+00 0. -1.
         22    1    4    4    0    0  0.48477967081E+01 -0.17322952113E+01  0.64159692881E+01  0.82259735915E+01  0.00000000000E+00 0.  1.
         22    1    4    4    0    0  0.32788526203E+02  0.21358223724E+02  0.55893527840E+02  0.68230107911E+02  0.00000000000E+00 0.  1.
<mgrwt>
<rscale>  0 0.87198705E+02</rscale>
<asrwt>0</asrwt>
<pdfrwt beam="1">  1        1 0.23199553E-01 0.87198705E+02</pdfrwt>
<pdfrwt beam="2">  1       -1 0.19393391E-02 0.87198705E+02</pdfrwt>
<totfact> 0.12654402E+05</totfact>
</mgrwt>
</event>
<event>
 7    1  0.3301067E-009  0.9174530E+02  0.7818608E-02  0.1298679E+00
         -1   -1    0    0    0  501 -0.00000000000E+00  0.00000000000E+00  0.86298359087E+01  0.86298373804E+01  0.50400000000E-02 0.  1.
          1   -1    0    0  501    0  0.00000000000E+00 -0.00000000000E+00 -0.24384006118E+03  0.24384006124E+03  0.50400000000E-02 0. -1.
         23    2    1    2    0    0  0.00000000000E+00  0.00000000000E+00 -0.23521022528E+03  0.25246989862E+03  0.91745297609E+02 0.  0.
    9000005    2    3    3    0    0 -0.34490222568E+02  0.39239580923E+01 -0.37774406198E+02  0.52005748319E+02  0.85275550227E+01 0.  0.
         22    1    3    3    0    0  0.34490222568E+02 -0.39239580923E+01 -0.19743581908E+03  0.20046415030E+03  0.00000000000E+00 0. -1.
         22    1    4    4    0    0 -0.21045631933E+01 -0.54121185093E+00 -0.17330717153E+00  0.21799385033E+01  0.00000000000E+00 0.  1.
         22    1    4    4    0    0 -0.32385659375E+02  0.44651699433E+01 -0.37601099027E+02  0.49825809815E+02  0.00000000000E+00 0.  1.
<mgrwt>
<rscale>  0 0.91745298E+02</rscale>
<asrwt>0</asrwt>
<pdfrwt beam="2">  1        1 0.37513851E-01 0.91745298E+02</pdfrwt>
<pdfrwt beam="1">  1       -1 0.13276674E-02 0.91745298E+02</pdfrwt>
<totfact> 0.12104075E+05</totfact>
</mgrwt>
</event>
<event>
 7    1  0.3301067E-009  0.9057319E+02  0.7818608E-02  0.1301470E+00
          1   -1    0    0  501    0  0.00000000000E+00  0.00000000000E+00  0.32825183207E+03  0.32825183211E+03  0.50400000000E-02 0. -1.
         -1   -1    0    0    0  501 -0.00000000000E+00 -0.00000000000E+00 -0.62478719164E+01  0.62478739492E+01  0.50400000000E-02 0.  1.
         23    2    1    2    0    0  0.17763568394E-14  0.00000000000E+00  0.32200396015E+03  0.33449970606E+03  0.90573191387E+02 0.  0.
    9000005    2    3    3    0    0  0.91234754901E+01  0.41031923615E+02  0.10208274502E+03  0.11059750101E+03  0.66380597844E+01 0.  0.
         22    1    3    3    0    0 -0.91234754901E+01 -0.41031923615E+02  0.21992121513E+03  0.22390220505E+03  0.00000000000E+00 0. -1.
         22    1    4    4    0    0  0.18469969496E+01  0.65589014496E+01  0.11019722806E+02  0.12956267853E+02  0.00000000000E+00 0.  1.
         22    1    4    4    0    0  0.72764785405E+01  0.34473022165E+02  0.91063022212E+02  0.97641233152E+02  0.00000000000E+00 0.  1.
<mgrwt>
<rscale>  0 0.90573191E+02</rscale>
<asrwt>0</asrwt>
<pdfrwt beam="1">  1        1 0.50500301E-01 0.90573191E+02</pdfrwt>
<pdfrwt beam="2">  1       -1 0.96121086E-03 0.90573191E+02</pdfrwt>
<totfact> 0.13262799E+05</totfact>
</mgrwt>
</event>
<event>
 7    1  0.3301067E-009  0.9605971E+02  0.7818608E-02  0.1288807E+00
         -1   -1    0    0    0  501 -0.00000000000E+00  0.00000000000E+00  0.14749999641E+01  0.14750085748E+01  0.50400000000E-02 0.  1.
          1   -1    0    0  501    0  0.00000000000E+00 -0.00000000000E+00 -0.15639729481E+04  0.15639729481E+04  0.50400000000E-02 0. -1.
         23    2    1    2    0    0 -0.88817841970E-15 -0.35527136788E-14 -0.15624979481E+04  0.15654479566E+04  0.96059706190E+02 0.  0.
    9000005    2    3    3    0    0  0.43534874531E+01 -0.28482498483E+02 -0.14025632803E+04  0.14029385614E+04  0.14921337079E+02 0.  0.
         22    1    3    3    0    0 -0.43534874531E+01  0.28482498483E+02 -0.15993466781E+03  0.16250939524E+03  0.00000000000E+00 0.  1.
         22    1    4    4    0    0  0.48450720339E+01 -0.10175438307E+02 -0.28121088570E+03  0.28143662964E+03  0.00000000000E+00 0.  1.
         22    1    4    4    0    0 -0.49158458086E+00 -0.18307060176E+02 -0.11213523946E+04  0.11215019318E+04  0.00000000000E+00 0.  1.
<mgrwt>
<rscale>  0 0.96059706E+02</rscale>
<asrwt>0</asrwt>
<pdfrwt beam="2">  1        1 0.24060990E+00 0.96059706E+02</pdfrwt>
<pdfrwt beam="1">  1       -1 0.22692499E-03 0.96059706E+02</pdfrwt>
<totfact> 0.92831297E+04</totfact>
</mgrwt>
</event>
<event>
 7    1  0.3301067E-009  0.9165384E+02  0.7818608E-02  0.1298895E+00
          1   -1    0    0  501    0  0.00000000000E+00  0.00000000000E+00  0.52785000086E+03  0.52785000088E+03  0.50400000000E-02 0. -1.
         -1   -1    0    0    0  501 -0.00000000000E+00 -0.00000000000E+00 -0.39786035572E+01  0.39786067495E+01  0.50400000000E-02 0.  1.
         23    2    1    2    0    0  0.00000000000E+00  0.00000000000E+00  0.52387139730E+03  0.53182860763E+03  0.91653843266E+02 0.  0.
    9000005    2    3    3    0    0  0.15238035198E+02 -0.18014889138E+02  0.48937837860E+03  0.49003743289E+03  0.94209469945E+01 0.  0.
         22    1    3    3    0    0 -0.15238035198E+02  0.18014889138E+02  0.34493018698E+02  0.41791174742E+02  0.00000000000E+00 0.  1.
         22    1    4    4    0    0  0.16463252069E+02 -0.15807235340E+02  0.42976719222E+03  0.43037279987E+03  0.00000000000E+00 0. -1.
         22    1    4    4    0    0 -0.12252168702E+01 -0.22076537985E+01  0.59611186379E+02  0.59664633018E+02  0.00000000000E+00 0. -1.
<mgrwt>
<rscale>  0 0.91653843E+02</rscale>
<asrwt>0</asrwt>
<pdfrwt beam="1">  1        1 0.81207659E-01 0.91653843E+02</pdfrwt>
<pdfrwt beam="2">  1       -1 0.61209335E-03 0.91653843E+02</pdfrwt>
<totfact> 0.13817828E+05</totfact>
</mgrwt>
</event>
<event>
 7    1  0.3301067E-009  0.9228395E+02  0.7818608E-02  0.1297413E+00
          1   -1    0    0  501    0  0.00000000000E+00  0.00000000000E+00  0.81492140057E+01  0.81492155643E+01  0.50400000000E-02 0.  1.
         -1   -1    0    0    0  501 -0.00000000000E+00 -0.00000000000E+00 -0.26126220413E+03  0.26126220418E+03  0.50400000000E-02 0. -1.
         23    2    1    2    0    0  0.00000000000E+00  0.00000000000E+00 -0.25311299013E+03  0.26941141975E+03  0.92283949408E+02 0.  0.
    9000005    2    3    3    0    0 -0.14527992186E+01  0.35035352453E+02 -0.21342887917E+03  0.21645469015E+03  0.84356314295E+01 0.  0.
         22    1    3    3    0    0  0.14527992186E+01 -0.35035352453E+02 -0.39684110963E+02  0.52956729600E+02  0.00000000000E+00 0.  1.
         22    1    4    4    0    0 -0.24959535468E+01  0.34652557756E+02 -0.20987474541E+03  0.21273090585E+03  0.00000000000E+00 0. -1.
         22    1    4    4    0    0  0.10431543282E+01  0.38279469639E+00 -0.35541337595E+01  0.37237842999E+01  0.00000000000E+00 0. -1.
<mgrwt>
<rscale>  0 0.92283949E+02</rscale>
<asrwt>0</asrwt>
<pdfrwt beam="1">  1        1 0.12537256E-02 0.92283949E+02</pdfrwt>
<pdfrwt beam="2">  1       -1 0.40194179E-01 0.92283949E+02</pdfrwt>
<totfact> 0.61805199E+04</totfact>
</mgrwt>
</event>
<event>
 7    1  0.3301067E-009  0.1147383E+03  0.7818608E-02  0.1252039E+00
         -1   -1    0    0    0  501 -0.00000000000E+00  0.00000000000E+00  0.35374492270E+03  0.35374492273E+03  0.50400000000E-02 0.  1.
          1   -1    0    0  501    0  0.00000000000E+00 -0.00000000000E+00 -0.93039285294E+01  0.93039298945E+01  0.50400000000E-02 0. -1.
         23    2    1    2    0    0  0.00000000000E+00 -0.44408920985E-15  0.34444099417E+03  0.36304885263E+03  0.11473827143E+03 0.  0.
    9000005    2    3    3    0    0 -0.47949668126E+02 -0.33119259706E+01  0.26822833486E+03  0.27294608371E+03  0.15587991104E+02 0.  0.
         22    1    3    3    0    0  0.47949668126E+02  0.33119259706E+01  0.76212659311E+02  0.90102768915E+02  0.00000000000E+00 0. -1.
         22    1    4    4    0    0 -0.42908641877E+02 -0.65029895888E+01  0.21162009107E+03  0.21602431198E+03  0.00000000000E+00 0. -1.
         22    1    4    4    0    0 -0.50410262493E+01  0.31910636182E+01  0.56608243789E+02  0.56921771736E+02  0.00000000000E+00 0. -1.
<mgrwt>
<rscale>  0 0.11473827E+03</rscale>
<asrwt>0</asrwt>
<pdfrwt beam="2">  1        1 0.14313739E-02 0.11473827E+03</pdfrwt>
<pdfrwt beam="1">  1       -1 0.54422290E-01 0.11473827E+03</pdfrwt>
<totfact> 0.30812519E+04</totfact>
</mgrwt>
</event>
<event>
 7    1  0.3301067E-009  0.9657818E+02  0.7818608E-02  0.1287661E+00
         -1   -1    0    0    0  501 -0.00000000000E+00  0.00000000000E+00  0.33378206500E+02  0.33378206880E+02  0.50400000000E-02 0.  1.
          1   -1    0    0  501    0  0.00000000000E+00 -0.00000000000E+00 -0.69861032953E+02  0.69861033135E+02  0.50400000000E-02 0. -1.
         23    2    1    2    0    0  0.00000000000E+00  0.35527136788E-14 -0.36482826454E+02  0.10323924002E+03  0.96578175862E+02 0.  0.
    9000005    2    3    3    0    0 -0.37010292980E+02  0.29262530904E+02 -0.11753779118E+02  0.49970268902E+02  0.11524710377E+02 0.  0.
         22    1    3    3    0    0  0.37010292980E+02 -0.29262530904E+02 -0.24729047336E+02  0.53268971113E+02  0.00000000000E+00 0.  1.
         22    1    4    4    0    0 -0.35861403574E+02  0.27115851557E+02 -0.82594843223E+01  0.45711363502E+02  0.00000000000E+00 0.  1.
         22    1    4    4    0    0 -0.11488894052E+01  0.21466793467E+01 -0.34942947959E+01  0.42589053997E+01  0.00000000000E+00 0.  1.
<mgrwt>
<rscale>  0 0.96578176E+02</rscale>
<asrwt>0</asrwt>
<pdfrwt beam="2">  1        1 0.10747851E-01 0.96578176E+02</pdfrwt>
<pdfrwt beam="1">  1       -1 0.51351088E-02 0.96578176E+02</pdfrwt>
<totfact> 0.84092876E+04</totfact>
</mgrwt>
</event>
<event>
 7    1  0.3301067E-009  0.9147250E+02  0.7818608E-02  0.1299325E+00
          1   -1    0    0  501    0  0.00000000000E+00  0.00000000000E+00  0.77865144331E+03  0.77865144333E+03  0.50400000000E-02 0. -1.
         -1   -1    0    0    0  501 -0.00000000000E+00 -0.00000000000E+00 -0.26864430399E+01  0.26864477677E+01  0.50400000000E-02 0.  1.
         23    2    1    2    0    0  0.00000000000E+00  0.00000000000E+00  0.77596500027E+03  0.78133789110E+03  0.91472500868E+02 0.  0.
    9000005    2    3    3    0    0  0.40486684467E+01  0.15181133770E+02  0.75435383943E+03  0.75461896874E+03  0.12377979940E+02 0.  0.
         22    1    3    3    0    0 -0.40486684467E+01 -0.15181133770E+02  0.21611160847E+02  0.26718922357E+02  0.00000000000E+00 0.  1.
         22    1    4    4    0    0 -0.15466179354E+01 -0.32871396237E+00  0.15351457551E+02  0.15432670826E+02  0.00000000000E+00 0.  1.
         22    1    4    4    0    0  0.55952863821E+01  0.15509847733E+02  0.73900238187E+03  0.73918629791E+03  0.00000000000E+00 0.  1.
<mgrwt>
<rscale>  0 0.91472501E+02</rscale>
<asrwt>0</asrwt>
<pdfrwt beam="1">  1        1 0.11979256E+00 0.91472501E+02</pdfrwt>
<pdfrwt beam="2">  1       -1 0.41329920E-03 0.91472501E+02</pdfrwt>
<totfact> 0.14039221E+05</totfact>
</mgrwt>
</event>
<event>
 7    1  0.3301067E-009  0.9147660E+02  0.7818608E-02  0.1299315E+00
          1   -1    0    0  501    0  0.00000000000E+00  0.00000000000E+00  0.34623378315E+02  0.34623378682E+02  0.50400000000E-02 0. -1.
         -1   -1    0    0    0  501 -0.00000000000E+00 -0.00000000000E+00 -0.60421377846E+02  0.60421378056E+02  0.50400000000E-02 0.  1.
         23    2    1    2    0    0  0.00000000000E+00  0.00000000000E+00 -0.25797999531E+02  0.95044756738E+02  0.91476603586E+02 0.  0.
    9000005    2    3    3    0    0 -0.39579842893E+02  0.17741187571E+02  0.26527411695E+00  0.44442306865E+02  0.96816614917E+01 0.  0.
         22    1    3    3    0    0  0.39579842893E+02 -0.17741187571E+02 -0.26063273648E+02  0.50602449873E+02  0.00000000000E+00 0.  1.
         22    1    4    4    0    0 -0.11775037060E+02  0.10083744595E+02  0.15059713156E+01  0.15575665392E+02  0.00000000000E+00 0.  1.
         22    1    4    4    0    0 -0.27804805833E+02  0.76574429766E+01 -0.12406971987E+01  0.28866641473E+02  0.00000000000E+00 0.  1.
<mgrwt>
<rscale>  0 0.91476604E+02</rscale>
<asrwt>0</asrwt>
<pdfrwt beam="1">  1        1 0.53266736E-02 0.91476604E+02</pdfrwt>
<pdfrwt beam="2">  1       -1 0.92955966E-02 0.91476604E+02</pdfrwt>
<totfact> 0.87848734E+04</totfact>
</mgrwt>
</event>
<event>
 7    1  0.3301067E-009  0.8674004E+02  0.7818608E-02  0.1310944E+00
          1   -1    0    0  501    0  0.00000000000E+00  0.00000000000E+00  0.30757411741E+03  0.30757411745E+03  0.50400000000E-02 0. -1.
         -1   -1    0    0    0  501 -0.00000000000E+00 -0.00000000000E+00 -0.61154639501E+01  0.61154660269E+01  0.50400000000E-02 0.  1.
         23    2    1    2    0    0  0.76327832943E-16  0.00000000000E+00  0.30145865346E+03  0.31368958348E+03  0.86740042869E+02 0.  0.
    9000005    2    3    3    0    0  0.50306925542E-01 -0.22106978093E+02  0.28492281688E+03  0.28608243038E+03  0.13169068981E+02 0.  0.
         22    1    3    3    0    0 -0.50306925542E-01  0.22106978093E+02  0.16535836578E+02  0.27607153104E+02  0.00000000000E+00 0.  1.
         22    1    4    4    0    0  0.14377793448E+01 -0.22804375037E+02  0.27974839469E+03  0.28068001543E+03  0.00000000000E+00 0.  1.
         22    1    4    4    0    0 -0.13874724192E+01  0.69739694398E+00  0.51744221976E+01  0.54024149499E+01  0.00000000000E+00 0.  1.
<mgrwt>
<rscale>  0 0.86740043E+02</rscale>
<asrwt>0</asrwt>
<pdfrwt beam="1">  1        1 0.47319110E-01 0.86740043E+02</pdfrwt>
<pdfrwt beam="2">  1       -1 0.94084047E-03 0.86740043E+02</pdfrwt>
<totfact> 0.14696377E+05</totfact>
</mgrwt>
</event>
<event>
 7    1  0.3301067E-009  0.1175646E+03  0.7818608E-02  0.1247170E+00
          1   -1    0    0  501    0  0.00000000000E+00  0.00000000000E+00  0.13087047481E+04  0.13087047481E+04  0.50400000000E-02 0. -1.
         -1   -1    0    0    0  501 -0.00000000000E+00 -0.00000000000E+00 -0.26402866119E+01  0.26402914223E+01  0.50400000000E-02 0.  1.
         23    2    1    2    0    0  0.00000000000E+00  0.00000000000E+00  0.13060644615E+04  0.13113450395E+04  0.11756459987E+03 0.  0.
    9000005    2    3    3    0    0 -0.17115443595E+01  0.27546793035E+02  0.12316362547E+04  0.12319642285E+04  0.68000944492E+01 0.  0.
         22    1    3    3    0    0  0.17115443595E+01 -0.27546793035E+02  0.74428206817E+02  0.79380811036E+02  0.00000000000E+00 0.  1.
         22    1    4    4    0    0 -0.48875288302E+00  0.44604048745E+01  0.11291465528E+03  0.11300377634E+03  0.00000000000E+00 0. -1.
         22    1    4    4    0    0 -0.12227914765E+01  0.23086388161E+02  0.11187215994E+04  0.11189604522E+04  0.00000000000E+00 0. -1.
<mgrwt>
<rscale>  0 0.11756460E+03</rscale>
<asrwt>0</asrwt>
<pdfrwt beam="1">  1        1 0.20133923E+00 0.11756460E+03</pdfrwt>
<pdfrwt beam="2">  1       -1 0.40619823E-03 0.11756460E+03</pdfrwt>
<totfact> 0.61572339E+04</totfact>
</mgrwt>
</event>
<event>
 7    1  0.3301067E-009  0.9350090E+02  0.7818608E-02  0.1294589E+00
          1   -1    0    0  501    0  0.00000000000E+00  0.00000000000E+00  0.27694086300E+02  0.27694086758E+02  0.50400000000E-02 0. -1.
         -1   -1    0    0    0  501 -0.00000000000E+00 -0.00000000000E+00 -0.78919531819E+02  0.78919531980E+02  0.50400000000E-02 0.  1.
         23    2    1    2    0    0  0.88817841970E-15  0.00000000000E+00 -0.51225445519E+02  0.10661361874E+03  0.93500895353E+02 0.  0.
    9000005    2    3    3    0    0  0.59397146951E+01  0.22076565915E+02 -0.72043116191E+02  0.75693877707E+02  0.40862646227E+01 0.  0.
         22    1    3    3    0    0 -0.59397146951E+01 -0.22076565915E+02  0.20817670672E+02  0.30919741031E+02  0.00000000000E+00 0. -1.
         22    1    4    4    0    0  0.49644649556E+01  0.21358551018E+02 -0.66574881653E+02  0.70093141469E+02  0.00000000000E+00 0. -1.
         22    1    4    4    0    0  0.97524973950E+00  0.71801489738E+00 -0.54682345378E+01  0.56007362380E+01  0.00000000000E+00 0. -1.
<mgrwt>
<rscale>  0 0.93500895E+02</rscale>
<asrwt>0</asrwt>
<pdfrwt beam="1">  1        1 0.42606287E-02 0.93500895E+02</pdfrwt>
<pdfrwt beam="2">  1       -1 0.12141466E-01 0.93500895E+02</pdfrwt>
<totfact> 0.79546456E+04</totfact>
</mgrwt>
</event>
<event>
 7    1  0.3301067E-009  0.9102488E+02  0.7818608E-02  0.1300389E+00
          1   -1    0    0  501    0  0.00000000000E+00  0.00000000000E+00  0.50312624992E+03  0.50312624995E+03  0.50400000000E-02 0. -1.
         -1   -1    0    0    0  501 -0.00000000000E+00 -0.00000000000E+00 -0.41170210413E+01  0.41170241262E+01  0.50400000000E-02 0.  1.
         23    2    1    2    0    0  0.00000000000E+00  0.00000000000E+00  0.49900922888E+03  0.50724327407E+03  0.91024878932E+02 0.  0.
    9000005    2    3    3    0    0 -0.88566973191E+01  0.23877495519E+02  0.45862341504E+03  0.45949822366E+03  0.12434019509E+02 0.  0.
         22    1    3    3    0    0  0.88566973191E+01 -0.23877495519E+02  0.40385813838E+02  0.47745050414E+02  0.00000000000E+00 0.  1.
         22    1    4    4    0    0  0.24101132621E+01  0.39980585196E+01  0.44327367570E+02  0.44572509842E+02  0.00000000000E+00 0. -1.
         22    1    4    4    0    0 -0.11266810581E+02  0.19879437000E+02  0.41429604747E+03  0.41492571382E+03  0.00000000000E+00 0. -1.
<mgrwt>
<rscale>  0 0.91024879E+02</rscale>
<asrwt>0</asrwt>
<pdfrwt beam="1">  1        1 0.77404063E-01 0.91024879E+02</pdfrwt>
<pdfrwt beam="2">  1       -1 0.63338789E-03 0.91024879E+02</pdfrwt>
<totfact> 0.13998441E+05</totfact>
</mgrwt>
</event>
<event>
 7    1  0.3301067E-009  0.9056932E+02  0.7818608E-02  0.1301479E+00
         -1   -1    0    0    0  501 -0.00000000000E+00  0.00000000000E+00  0.10088905463E+03  0.10088905475E+03  0.50400000000E-02 0.  1.
          1   -1    0    0  501    0  0.00000000000E+00 -0.00000000000E+00 -0.20326290704E+02  0.20326291329E+02  0.50400000000E-02 0. -1.
         23    2    1    2    0    0 -0.35527136788E-14  0.00000000000E+00  0.80562763922E+02  0.12121534608E+03  0.90569317071E+02 0.  0.
    9000005    2    3    3    0    0 -0.31559997544E+02  0.10535787072E+02  0.81258654688E+02  0.87935915224E+02  0.47665469932E+01 0.  0.
         22    1    3    3    0    0  0.31559997544E+02 -0.10535787072E+02 -0.69589076633E+00  0.33279430857E+02  0.00000000000E+00 0. -1.
         22    1    4    4    0    0 -0.25912488547E-01  0.19110285259E+00  0.20033402767E+01  0.20126013072E+01  0.00000000000E+00 0.  1.
         22    1    4    4    0    0 -0.31534085056E+02  0.10344684219E+02  0.79255314412E+02  0.85923313916E+02  0.00000000000E+00 0.  1.
<mgrwt>
<rscale>  0 0.90569317E+02</rscale>
<asrwt>0</asrwt>
<pdfrwt beam="2">  1        1 0.31271217E-02 0.90569317E+02</pdfrwt>
<pdfrwt beam="1">  1       -1 0.15521393E-01 0.90569317E+02</pdfrwt>
<totfact> 0.82646501E+04</totfact>
</mgrwt>
</event>
<event>
 7    1  0.3301067E-009  0.9575694E+02  0.7818608E-02  0.1289480E+00
          1   -1    0    0  501    0  0.00000000000E+00  0.00000000000E+00  0.59458205970E+01  0.59458227331E+01  0.50400000000E-02 0. -1.
         -1   -1    0    0    0  501 -0.00000000000E+00 -0.00000000000E+00 -0.38553927887E+03  0.38553927890E+03  0.50400000000E-02 0.  1.
         23    2    1    2    0    0  0.00000000000E+00 -0.35527136788E-14 -0.37959345827E+03  0.39148510164E+03  0.95756938336E+02 0.  0.
    9000005    2    3    3    0    0 -0.36640583671E+02  0.22320886287E+02 -0.27066796915E+03  0.27441453950E+03  0.14192802157E+02 0.  0.
         22    1    3    3    0    0  0.36640583671E+02 -0.22320886287E+02 -0.10892548913E+03  0.11707056213E+03  0.00000000000E+00 0. -1.
         22    1    4    4    0    0 -0.16362679386E+02  0.18190296201E+02 -0.15156140012E+03  0.15352355571E+03  0.00000000000E+00 0. -1.
         22    1    4    4    0    0 -0.20277904285E+02  0.41305900861E+01 -0.11910656903E+03  0.12089098379E+03  0.00000000000E+00 0. -1.
<mgrwt>
<rscale>  0 0.95756938E+02</rscale>
<asrwt>0</asrwt>
<pdfrwt beam="1">  1        1 0.91474210E-03 0.95756938E+02</pdfrwt>
<pdfrwt beam="2">  1       -1 0.59313716E-01 0.95756938E+02</pdfrwt>
<totfact> 0.47721334E+04</totfact>
</mgrwt>
</event>
<event>
 7    1  0.3301067E-009  0.9166033E+02  0.7818608E-02  0.1298880E+00
          1   -1    0    0  501    0  0.00000000000E+00  0.00000000000E+00  0.34528498775E+03  0.34528498778E+03  0.50400000000E-02 0. -1.
         -1   -1    0    0    0  501 -0.00000000000E+00 -0.00000000000E+00 -0.60831017474E+01  0.60831038353E+01  0.50400000000E-02 0.  1.
         23    2    1    2    0    0  0.00000000000E+00  0.00000000000E+00  0.33920188600E+03  0.35136809162E+03  0.91660331345E+02 0.  0.
    9000005    2    3    3    0    0 -0.32049808503E+02  0.59741635841E+01  0.29107581873E+03  0.29323893193E+03  0.14179495518E+02 0.  0.
         22    1    3    3    0    0  0.32049808503E+02 -0.59741635841E+01  0.48126067270E+02  0.58129159692E+02  0.00000000000E+00 0.  1.
         22    1    4    4    0    0 -0.12351180928E+02  0.42008973690E+01  0.64790642479E+02  0.66091047517E+02  0.00000000000E+00 0.  1.
         22    1    4    4    0    0 -0.19698627574E+02  0.17732662151E+01  0.22628517625E+03  0.22714788441E+03  0.00000000000E+00 0.  1.
<mgrwt>
<rscale>  0 0.91660331E+02</rscale>
<asrwt>0</asrwt>
<pdfrwt beam="1">  1        1 0.53120778E-01 0.91660331E+02</pdfrwt>
<pdfrwt beam="2">  1       -1 0.93586179E-03 0.91660331E+02</pdfrwt>
<totfact> 0.12967396E+05</totfact>
</mgrwt>
</event>
<event>
 7    1  0.3301067E-009  0.9381676E+02  0.7818608E-02  0.1293863E+00
          1   -1    0    0  501    0  0.00000000000E+00  0.00000000000E+00  0.11494102419E+03  0.11494102430E+03  0.50400000000E-02 0. -1.
         -1   -1    0    0    0  501 -0.00000000000E+00 -0.00000000000E+00 -0.19143698214E+02  0.19143698878E+02  0.50400000000E-02 0.  1.
         23    2    1    2    0    0  0.00000000000E+00  0.00000000000E+00  0.95797325976E+02  0.13408472318E+03  0.93816764631E+02 0.  0.
    9000005    2    3    3    0    0  0.44200104809E+02 -0.12765382988E+02  0.41164534864E+02  0.62661014701E+02  0.10736832161E+02 0.  0.
         22    1    3    3    0    0 -0.44200104809E+02  0.12765382988E+02  0.54632791112E+02  0.71423708477E+02  0.00000000000E+00 0.  1.
         22    1    4    4    0    0  0.27473798271E+02 -0.11520211090E+02  0.31260010816E+02  0.43182324292E+02  0.00000000000E+00 0. -1.
         22    1    4    4    0    0  0.16726306538E+02 -0.12451718974E+01  0.99045240476E+01  0.19478690409E+02  0.00000000000E+00 0. -1.
<mgrwt>
<rscale>  0 0.93816765E+02</rscale>
<asrwt>0</asrwt>
<pdfrwt beam="1">  1        1 0.17683234E-01 0.93816765E+02</pdfrwt>
<pdfrwt beam="2">  1       -1 0.29451844E-02 0.93816765E+02</pdfrwt>
<totfact> 0.98944769E+04</totfact>
</mgrwt>
</event>
<event>
 7    1  0.3301067E-009  0.9184361E+02  0.7818608E-02  0.1298448E+00
         -1   -1    0    0    0  501 -0.00000000000E+00  0.00000000000E+00  0.39170021144E+02  0.39170021469E+02  0.50400000000E-02 0.  1.
          1   -1    0    0  501    0  0.00000000000E+00 -0.00000000000E+00 -0.53837397020E+02  0.53837397256E+02  0.50400000000E-02 0. -1.
         23    2    1    2    0    0  0.00000000000E+00  0.71054273576E-14 -0.14667375875E+02  0.93007418724E+02  0.91843606324E+02 0.  0.
    9000005    2    3    3    0    0  0.89563536500E+01 -0.43683861601E+02 -0.84862649988E+01  0.47988509733E+02  0.15568697368E+02 0.  0.
         22    1    3    3    0    0 -0.89563536500E+01  0.43683861601E+02 -0.61811108764E+01  0.45018908991E+02  0.00000000000E+00 0. -1.
         22    1    4    4    0    0  0.84826237659E+01 -0.34514852859E+02 -0.82730403374E-01  0.35542042966E+02  0.00000000000E+00 0.  1.
         22    1    4    4    0    0  0.47372988409E+00 -0.91690087414E+01 -0.84035345955E+01  0.12446466768E+02  0.00000000000E+00 0.  1.
<mgrwt>
<rscale>  0 0.91843606E+02</rscale>
<asrwt>0</asrwt>
<pdfrwt beam="2">  1        1 0.82826765E-02 0.91843606E+02</pdfrwt>
<pdfrwt beam="1">  1       -1 0.60261572E-02 0.91843606E+02</pdfrwt>
<totfact> 0.92902235E+04</totfact>
</mgrwt>
</event>
<event>
 7    1  0.3301067E-009  0.9052908E+02  0.7818608E-02  0.1301575E+00
         -1   -1    0    0    0  501 -0.00000000000E+00  0.00000000000E+00  0.12486122327E+02  0.12486123344E+02  0.50400000000E-02 0.  1.
          1   -1    0    0  501    0  0.00000000000E+00 -0.00000000000E+00 -0.16409245175E+03  0.16409245183E+03  0.50400000000E-02 0. -1.
         23    2    1    2    0    0  0.00000000000E+00 -0.35527136788E-14 -0.15160632943E+03  0.17657857518E+03  0.90529078691E+02 0.  0.
    9000005    2    3    3    0    0  0.37153135130E+02  0.24242419229E+02 -0.67901880816E+02  0.81844816370E+02  0.10947977359E+02 0.  0.
         22    1    3    3    0    0 -0.37153135130E+02 -0.24242419229E+02 -0.83704448611E+02  0.94733758806E+02  0.00000000000E+00 0.  1.
         22    1    4    4    0    0  0.34993167996E+02  0.25402313992E+02 -0.64364257390E+02  0.77540679595E+02  0.00000000000E+00 0.  1.
         22    1    4    4    0    0  0.21599671338E+01 -0.11598947633E+01 -0.35376234253E+01  0.43041367752E+01  0.00000000000E+00 0.  1.
<mgrwt>
<rscale>  0 0.90529079E+02</rscale>
<asrwt>0</asrwt>
<pdfrwt beam="2">  1        1 0.25244991E-01 0.90529079E+02</pdfrwt>
<pdfrwt beam="1">  1       -1 0.19209421E-02 0.90529079E+02</pdfrwt>
<totfact> 0.11622385E+05</totfact>
</mgrwt>
</event>
<event>
 7    1  0.3301067E-009  0.9098884E+02  0.7818608E-02  0.1300475E+00
         -1   -1    0    0    0  501 -0.00000000000E+00  0.00000000000E+00  0.15911034759E+02  0.15911035557E+02  0.50400000000E-02 0.  1.
          1   -1    0    0  501    0  0.00000000000E+00 -0.00000000000E+00 -0.13008217194E+03  0.13008217204E+03  0.50400000000E-02 0. -1.
         23    2    1    2    0    0  0.00000000000E+00  0.00000000000E+00 -0.11417113718E+03  0.14599320760E+03  0.90988835023E+02 0.  0.
    9000005    2    3    3    0    0  0.42914914680E+01  0.26683093500E+02 -0.20995338996E+01  0.30708999484E+02  0.14430184648E+02 0.  0.
         22    1    3    3    0    0 -0.42914914680E+01 -0.26683093500E+02 -0.11207160328E+03  0.11528420811E+03  0.00000000000E+00 0. -1.
         22    1    4    4    0    0  0.73041587192E+00 -0.17495384990E+01  0.42596686130E+00  0.19431520971E+01  0.00000000000E+00 0. -1.
         22    1    4    4    0    0  0.35610755961E+01  0.28432631999E+02 -0.25255007609E+01  0.28765847387E+02  0.00000000000E+00 0. -1.
<mgrwt>
<rscale>  0 0.90988835E+02</rscale>
<asrwt>0</asrwt>
<pdfrwt beam="2">  1        1 0.20012641E-01 0.90988835E+02</pdfrwt>
<pdfrwt beam="1">  1       -1 0.24478517E-02 0.90988835E+02</pdfrwt>
<totfact> 0.10989191E+05</totfact>
</mgrwt>
</event>
<event>
 7    1  0.3301067E-009  0.9038921E+02  0.7818608E-02  0.1301912E+00
          1   -1    0    0  501    0  0.00000000000E+00  0.00000000000E+00  0.23774589347E+02  0.23774589881E+02  0.50400000000E-02 0. -1.
         -1   -1    0    0    0  501 -0.00000000000E+00 -0.00000000000E+00 -0.85913246140E+02  0.85913246288E+02  0.50400000000E-02 0.  1.
         23    2    1    2    0    0  0.00000000000E+00  0.00000000000E+00 -0.62138656793E+02  0.10968783617E+03  0.90389206964E+02 0.  0.
    9000005    2    3    3    0    0 -0.44234884143E+01  0.32931076363E+02 -0.67804904332E+02  0.75981317492E+02  0.84635994811E+01 0.  0.
         22    1    3    3    0    0  0.44234884143E+01 -0.32931076363E+02  0.56662475387E+01  0.33706518678E+02  0.00000000000E+00 0. -1.
         22    1    4    4    0    0 -0.13776506426E+01  0.21845319876E+02 -0.52159259659E+02  0.56565928702E+02  0.00000000000E+00 0.  1.
         22    1    4    4    0    0 -0.30458377717E+01  0.11085756487E+02 -0.15645644673E+02  0.19415388790E+02  0.00000000000E+00 0.  1.
<mgrwt>
<rscale>  0 0.90389207E+02</rscale>
<asrwt>0</asrwt>
<pdfrwt beam="1">  1        1 0.36576292E-02 0.90389207E+02</pdfrwt>
<pdfrwt beam="2">  1       -1 0.13217422E-01 0.90389207E+02</pdfrwt>
<totfact> 0.85502275E+04</totfact>
</mgrwt>
</event>
<event>
 7    1  0.5251318E-009  0.9130326E+02  0.7818608E-02  0.1299726E+00
          1   -1    0    0  501    0  0.00000000000E+00  0.00000000000E+00  0.25700085094E+03  0.25700085099E+03  0.50400000000E-02 0. -1.
         -1   -1    0    0    0  501 -0.00000000000E+00 -0.00000000000E+00 -0.81091986289E+01  0.81092001951E+01  0.50400000000E-02 0.  1.
         23    2    1    2    0    0  0.71054273576E-14 -0.44408920985E-15  0.24889165231E+03  0.26511005118E+03  0.91303256507E+02 0.  0.
    9000005    2    3    3    0    0 -0.43608949214E+02  0.39816463829E+01  0.10376451524E+03  0.11352021025E+03  0.14218634016E+02 0.  0.
         22    1    3    3    0    0  0.43608949214E+02 -0.39816463829E+01  0.14512713707E+03  0.15158984093E+03  0.00000000000E+00 0. -1.
         22    1    4    4    0    0 -0.88447552697E+01 -0.17016011134E+01  0.36445072374E+02  0.37541556207E+02  0.00000000000E+00 0. -1.
         22    1    4    4    0    0 -0.34764193944E+02  0.56832474964E+01  0.67319442869E+02  0.75978654047E+02  0.00000000000E+00 0. -1.
<mgrwt>
<rscale>  0 0.91303257E+02</rscale>
<asrwt>0</asrwt>
<pdfrwt beam="1">  1        1 0.39538598E-01 0.91303257E+02</pdfrwt>
<pdfrwt beam="2">  1       -1 0.12475690E-02 0.91303257E+02</pdfrwt>
<totfact> 0.12387721E+05</totfact>
</mgrwt>
</event>
<event>
 7    1  0.3301067E-009  0.9047736E+02  0.7818608E-02  0.1301700E+00
         -1   -1    0    0    0  501 -0.00000000000E+00  0.00000000000E+00  0.11338933233E+02  0.11338934353E+02  0.50400000000E-02 0.  1.
          1   -1    0    0  501    0  0.00000000000E+00 -0.00000000000E+00 -0.18048771652E+03  0.18048771659E+03  0.50400000000E-02 0. -1.
         23    2    1    2    0    0 -0.17763568394E-14  0.00000000000E+00 -0.16914878329E+03  0.19182665095E+03  0.90477362500E+02 0.  0.
    9000005    2    3    3    0    0  0.61759546776E+01  0.32033485399E+02 -0.24401275636E+02  0.43448325120E+02  0.15101261541E+02 0.  0.
         22    1    3    3    0    0 -0.61759546776E+01 -0.32033485399E+02 -0.14474750766E+03  0.14837832583E+03  0.00000000000E+00 0. -1.
         22    1    4    4    0    0 -0.24096061288E+01  0.14628566408E+01  0.77698220485E+00  0.29240130974E+01  0.00000000000E+00 0.  1.
         22    1    4    4    0    0  0.85855608063E+01  0.30570628758E+02 -0.25178257841E+02  0.40524312023E+02  0.00000000000E+00 0.  1.
<mgrwt>
<rscale>  0 0.90477362E+02</rscale>
<asrwt>0</asrwt>
<pdfrwt beam="2">  1        1 0.27767339E-01 0.90477362E+02</pdfrwt>
<pdfrwt beam="1">  1       -1 0.17444515E-02 0.90477362E+02</pdfrwt>
<totfact> 0.11851122E+05</totfact>
</mgrwt>
</event>
<event>
 7    1  0.3301067E-009  0.9093619E+02  0.7818608E-02  0.1300600E+00
         -1   -1    0    0    0  501 -0.00000000000E+00  0.00000000000E+00  0.39260613393E+03  0.39260613397E+03  0.50400000000E-02 0.  1.
          1   -1    0    0  501    0  0.00000000000E+00 -0.00000000000E+00 -0.52657024345E+01  0.52657048465E+01  0.50400000000E-02 0. -1.
         23    2    1    2    0    0  0.00000000000E+00  0.00000000000E+00  0.38734043150E+03  0.39787183881E+03  0.90936187770E+02 0.  0.
    9000005    2    3    3    0    0 -0.22169516209E+02  0.10813978314E+02  0.36036517845E+03  0.36131922122E+03  0.89492014822E+01 0.  0.
         22    1    3    3    0    0  0.22169516209E+02 -0.10813978314E+02  0.26975253053E+02  0.36552617597E+02  0.00000000000E+00 0. -1.
         22    1    4    4    0    0 -0.92915821269E+01  0.94831946413E+01  0.18888060424E+03  0.18934663223E+03  0.00000000000E+00 0. -1.
         22    1    4    4    0    0 -0.12877934082E+02  0.13307836728E+01  0.17148457421E+03  0.17197258899E+03  0.00000000000E+00 0. -1.
<mgrwt>
<rscale>  0 0.90936188E+02</rscale>
<asrwt>0</asrwt>
<pdfrwt beam="2">  1        1 0.81010833E-03 0.90936188E+02</pdfrwt>
<pdfrwt beam="1">  1       -1 0.60400938E-01 0.90936188E+02</pdfrwt>
<totfact> 0.54164053E+04</totfact>
</mgrwt>
</event>
<event>
 7    1  0.3301067E-009  0.9273333E+02  0.7818608E-02  0.1296364E+00
          1   -1    0    0  501    0  0.00000000000E+00  0.00000000000E+00  0.20332894679E+03  0.20332894686E+03  0.50400000000E-02 0. -1.
         -1   -1    0    0    0  501 -0.00000000000E+00 -0.00000000000E+00 -0.10573345807E+02  0.10573347008E+02  0.50400000000E-02 0.  1.
         23    2    1    2    0    0  0.00000000000E+00  0.35527136788E-14  0.19275560099E+03  0.21390229387E+03  0.92733325233E+02 0.  0.
    9000005    2    3    3    0    0 -0.38647127123E+02  0.24964599063E+02  0.10877309229E+03  0.11814273347E+03  0.30476585432E+01 0.  0.
         22    1    3    3    0    0  0.38647127123E+02 -0.24964599063E+02  0.83982508692E+02  0.95759560397E+02  0.00000000000E+00 0.  1.
         22    1    4    4    0    0 -0.77163435741E+01  0.62032269048E+01  0.25260770501E+02  0.27131688272E+02  0.00000000000E+00 0. -1.
         22    1    4    4    0    0 -0.30930783549E+02  0.18761372158E+02  0.83512321794E+02  0.91011045196E+02  0.00000000000E+00 0. -1.
<mgrwt>
<rscale>  0 0.92733325E+02</rscale>
<asrwt>0</asrwt>
<pdfrwt beam="1">  1        1 0.31281375E-01 0.92733325E+02</pdfrwt>
<pdfrwt beam="2">  1       -1 0.16266688E-02 0.92733325E+02</pdfrwt>
<totfact> 0.11350706E+05</totfact>
</mgrwt>
</event>
<event>
 7    1  0.3301067E-009  0.9058825E+02  0.7818608E-02  0.1301433E+00
          1   -1    0    0  501    0  0.00000000000E+00  0.00000000000E+00  0.44528198566E+03  0.44528198569E+03  0.50400000000E-02 0. -1.
         -1   -1    0    0    0  501 -0.00000000000E+00 -0.00000000000E+00 -0.46073208967E+01  0.46073236533E+01  0.50400000000E-02 0.  1.
         23    2    1    2    0    0  0.00000000000E+00  0.00000000000E+00  0.44067466476E+03  0.44988930934E+03  0.90588247007E+02 0.  0.
    9000005    2    3    3    0    0  0.43879246579E+00 -0.44916581490E+02  0.23460309680E+03  0.23897894223E+03  0.73912090027E+01 0.  0.
         22    1    3    3    0    0 -0.43879246579E+00  0.44916581490E+02  0.20607156796E+03  0.21091036711E+03  0.00000000000E+00 0. -1.
         22    1    4    4    0    0  0.38818650920E+00 -0.23566965808E+02  0.10358762837E+03  0.10623534872E+03  0.00000000000E+00 0.  1.
         22    1    4    4    0    0  0.50605956593E-01 -0.21349615682E+02  0.13101546843E+03  0.13274359351E+03  0.00000000000E+00 0.  1.
<mgrwt>
<rscale>  0 0.90588247E+02</rscale>
<asrwt>0</asrwt>
<pdfrwt beam="1">  1        1 0.68504917E-01 0.90588247E+02</pdfrwt>
<pdfrwt beam="2">  1       -1 0.70881886E-03 0.90588247E+02</pdfrwt>
<totfact> 0.13952450E+05</totfact>
</mgrwt>
</event>
<event>
 7    1  0.3301067E-009  0.9135288E+02  0.7818608E-02  0.1299608E+00
          1   -1    0    0  501    0  0.00000000000E+00  0.00000000000E+00  0.69923608241E+02  0.69923608423E+02  0.50400000000E-02 0. -1.
         -1   -1    0    0    0  501 -0.00000000000E+00 -0.00000000000E+00 -0.29837377864E+02  0.29837378289E+02  0.50400000000E-02 0.  1.
         23    2    1    2    0    0  0.00000000000E+00  0.00000000000E+00  0.40086230377E+02  0.99760986712E+02  0.91352879560E+02 0.  0.
    9000005    2    3    3    0    0 -0.38315348319E+02 -0.22020065976E+02  0.29466299272E+02  0.54310660431E+02  0.11332952890E+02 0.  0.
         22    1    3    3    0    0  0.38315348319E+02  0.22020065976E+02  0.10619931105E+02  0.45450326281E+02  0.00000000000E+00 0.  1.
         22    1    4    4    0    0 -0.26596111969E+02 -0.92522251866E+01  0.20224206219E+02  0.34669516292E+02  0.00000000000E+00 0.  1.
         22    1    4    4    0    0 -0.11719236350E+02 -0.12767840789E+02  0.92420930537E+01  0.19641144138E+02  0.00000000000E+00 0.  1.
<mgrwt>
<rscale>  0 0.91352880E+02</rscale>
<asrwt>0</asrwt>
<pdfrwt beam="1">  1        1 0.10757478E-01 0.91352880E+02</pdfrwt>
<pdfrwt beam="2">  1       -1 0.45903659E-02 0.91352880E+02</pdfrwt>
<totfact> 0.98126331E+04</totfact>
</mgrwt>
</event>
<event>
 7    1  0.3301067E-009  0.9319456E+02  0.7818608E-02  0.1295295E+00
         -1   -1    0    0    0  501 -0.00000000000E+00  0.00000000000E+00  0.54927908407E+03  0.54927908409E+03  0.50400000000E-02 0.  1.
          1   -1    0    0  501    0  0.00000000000E+00 -0.00000000000E+00 -0.39530102255E+01  0.39530134385E+01  0.50400000000E-02 0. -1.
         23    2    1    2    0    0  0.00000000000E+00  0.00000000000E+00  0.54532607384E+03  0.55323209753E+03  0.93194564888E+02 0.  0.
    9000005    2    3    3    0    0  0.21279760210E+02  0.38316369507E+02  0.36086201692E+03  0.36363262321E+03  0.92906963438E+01 0.  0.
         22    1    3    3    0    0 -0.21279760210E+02 -0.38316369507E+02  0.18446405692E+03  0.18959947432E+03  0.00000000000E+00 0.  1.
         22    1    4    4    0    0  0.79046289092E+01  0.16066225093E+02  0.11229129248E+03  0.11370989893E+03  0.00000000000E+00 0.  1.
         22    1    4    4    0    0  0.13375131301E+02  0.22250144414E+02  0.24857072444E+03  0.24992272428E+03  0.00000000000E+00 0.  1.
<mgrwt>
<rscale>  0 0.93194565E+02</rscale>
<asrwt>0</asrwt>
<pdfrwt beam="2">  1        1 0.60815564E-03 0.93194565E+02</pdfrwt>
<pdfrwt beam="1">  1       -1 0.84504478E-01 0.93194565E+02</pdfrwt>
<totfact> 0.41802908E+04</totfact>
</mgrwt>
</event>
<event>
 7    1  0.3301067E-009  0.9171841E+02  0.7818608E-02  0.1298743E+00
         -1   -1    0    0    0  501 -0.00000000000E+00  0.00000000000E+00  0.18372454490E+03  0.18372454497E+03  0.50400000000E-02 0.  1.
          1   -1    0    0  501    0  0.00000000000E+00 -0.00000000000E+00 -0.11446845841E+02  0.11446846951E+02  0.50400000000E-02 0. -1.
         23    2    1    2    0    0  0.00000000000E+00  0.00000000000E+00  0.17227769906E+03  0.19517139192E+03  0.91718409444E+02 0.  0.
    9000005    2    3    3    0    0  0.89452993994E+01  0.44624864116E+02  0.85903594114E+02  0.97540029727E+02  0.79519204368E+01 0.  0.
         22    1    3    3    0    0 -0.89452993994E+01 -0.44624864116E+02  0.86374104943E+02  0.97631362191E+02  0.00000000000E+00 0.  1.
         22    1    4    4    0    0  0.54376180524E+01  0.28788524776E+02  0.62950099581E+02  0.69433866997E+02  0.00000000000E+00 0. -1.
         22    1    4    4    0    0  0.35076813470E+01  0.15836339340E+02  0.22953494534E+02  0.28106162730E+02  0.00000000000E+00 0. -1.
<mgrwt>
<rscale>  0 0.91718409E+02</rscale>
<asrwt>0</asrwt>
<pdfrwt beam="2">  1        1 0.17610532E-02 0.91718409E+02</pdfrwt>
<pdfrwt beam="1">  1       -1 0.28265315E-01 0.91718409E+02</pdfrwt>
<totfact> 0.69990886E+04</totfact>
</mgrwt>
</event>
<event>
 7    1  0.3301067E-009  0.9399594E+02  0.7818608E-02  0.1293454E+00
         -1   -1    0    0    0  501 -0.00000000000E+00  0.00000000000E+00  0.18130717175E+03  0.18130717182E+03  0.50400000000E-02 0.  1.
          1   -1    0    0  501    0  0.00000000000E+00 -0.00000000000E+00 -0.12182689896E+02  0.12182690938E+02  0.50400000000E-02 0. -1.
         23    2    1    2    0    0  0.22204460493E-15 -0.71054273576E-14  0.16912448186E+03  0.19348986276E+03  0.93995939423E+02 0.  0.
    9000005    2    3    3    0    0  0.15484749573E+01 -0.35551550334E+02  0.25906553922E+02  0.45917218319E+02  0.13074054313E+02 0.  0.
         22    1    3    3    0    0 -0.15484749573E+01  0.35551550334E+02  0.14321792794E+03  0.14757264444E+03  0.00000000000E+00 0.  1.
         22    1    4    4    0    0 -0.16429895019E+01 -0.25816438568E+02  0.11673836619E+02  0.28380739530E+02  0.00000000000E+00 0. -1.
         22    1    4    4    0    0  0.31914644592E+01 -0.97351117658E+01  0.14232717303E+02  0.17536478789E+02  0.00000000000E+00 0. -1.
<mgrwt>
<rscale>  0 0.93995939E+02</rscale>
<asrwt>0</asrwt>
<pdfrwt beam="2">  1        1 0.18742601E-02 0.93995939E+02</pdfrwt>
<pdfrwt beam="1">  1       -1 0.27893411E-01 0.93995939E+02</pdfrwt>
<totfact> 0.65889145E+04</totfact>
</mgrwt>
</event>
<event>
 7    1  0.3301067E-009  0.9041630E+02  0.7818608E-02  0.1301847E+00
          1   -1    0    0  501    0  0.00000000000E+00  0.00000000000E+00  0.24923722724E+02  0.24923723234E+02  0.50400000000E-02 0. -1.
         -1   -1    0    0    0  501 -0.00000000000E+00 -0.00000000000E+00 -0.82001268734E+02  0.82001268889E+02  0.50400000000E-02 0.  1.
         23    2    1    2    0    0  0.00000000000E+00  0.00000000000E+00 -0.57077546010E+02  0.10692499212E+03  0.90416302080E+02 0.  0.
    9000005    2    3    3    0    0 -0.42295551801E+02  0.55532198526E+01 -0.11234695482E+02  0.44304556980E+02  0.41138101201E+01 0.  0.
         22    1    3    3    0    0  0.42295551801E+02 -0.55532198526E+01 -0.45842850528E+02  0.62620435143E+02  0.00000000000E+00 0.  1.
         22    1    4    4    0    0 -0.16600822267E+02  0.22531229894E+01 -0.64991751122E+01  0.17969505844E+02  0.00000000000E+00 0. -1.
         22    1    4    4    0    0 -0.25694729535E+02  0.33000968632E+01 -0.47355203702E+01  0.26335051136E+02  0.00000000000E+00 0. -1.
<mgrwt>
<rscale>  0 0.90416302E+02</rscale>
<asrwt>0</asrwt>
<pdfrwt beam="1">  1        1 0.38344190E-02 0.90416302E+02</pdfrwt>
<pdfrwt beam="2">  1       -1 0.12615580E-01 0.90416302E+02</pdfrwt>
<totfact> 0.86122993E+04</totfact>
</mgrwt>
</event>
<event>
 7    1  0.3301067E-009  0.8933184E+02  0.7818608E-02  0.1304478E+00
         -1   -1    0    0    0  501 -0.00000000000E+00  0.00000000000E+00  0.29702434099E+01  0.29702476859E+01  0.50400000000E-02 0.  1.
          1   -1    0    0  501    0  0.00000000000E+00 -0.00000000000E+00 -0.67167666013E+03  0.67167666015E+03  0.50400000000E-02 0. -1.
         23    2    1    2    0    0  0.00000000000E+00  0.00000000000E+00 -0.66870641672E+03  0.67464690783E+03  0.89331844762E+02 0.  0.
    9000005    2    3    3    0    0  0.19157607545E+02  0.31674800850E+02 -0.52267528582E+03  0.52399698873E+03  0.36170222860E+01 0.  0.
         22    1    3    3    0    0 -0.19157607545E+02 -0.31674800850E+02 -0.14603113089E+03  0.15064991910E+03  0.00000000000E+00 0.  1.
         22    1    4    4    0    0  0.84363692375E+01  0.11964798969E+02 -0.22700525831E+03  0.22747684726E+03  0.00000000000E+00 0. -1.
         22    1    4    4    0    0  0.10721238308E+02  0.19710001882E+02 -0.29567002752E+03  0.29652014147E+03  0.00000000000E+00 0. -1.
<mgrwt>
<rscale>  0 0.89331845E+02</rscale>
<asrwt>0</asrwt>
<pdfrwt beam="2">  1        1 0.10333475E+00 0.89331845E+02</pdfrwt>
<pdfrwt beam="1">  1       -1 0.45696139E-03 0.89331845E+02</pdfrwt>
<totfact> 0.15005942E+05</totfact>
</mgrwt>
</event>
<event>
 7    1  0.3301067E-009  0.9143033E+02  0.7818608E-02  0.1299424E+00
         -1   -1    0    0    0  501 -0.00000000000E+00  0.00000000000E+00  0.38576380996E+01  0.38576413920E+01  0.50400000000E-02 0.  1.
          1   -1    0    0  501    0  0.00000000000E+00 -0.00000000000E+00 -0.54175004750E+03  0.54175004753E+03  0.50400000000E-02 0. -1.
         23    2    1    2    0    0  0.00000000000E+00  0.00000000000E+00 -0.53789240940E+03  0.54560768892E+03  0.91430334754E+02 0.  0.
    9000005    2    3    3    0    0  0.25055171792E+02 -0.32709284430E+02 -0.38458638191E+03  0.38686135987E+03  0.75741458938E+01 0.  0.
         22    1    3    3    0    0 -0.25055171792E+02  0.32709284430E+02 -0.15330602749E+03  0.15874632905E+03  0.00000000000E+00 0. -1.
         22    1    4    4    0    0  0.58048587051E+01 -0.69356692044E+01 -0.11680343454E+03  0.11715307171E+03  0.00000000000E+00 0. -1.
         22    1    4    4    0    0  0.19250313087E+02 -0.25773615226E+02 -0.26778294738E+03  0.26970828816E+03  0.00000000000E+00 0. -1.
<mgrwt>
<rscale>  0 0.91430335E+02</rscale>
<asrwt>0</asrwt>
<pdfrwt beam="2">  1        1 0.83346101E-01 0.91430335E+02</pdfrwt>
<pdfrwt beam="1">  1       -1 0.59348347E-03 0.91430335E+02</pdfrwt>
<totfact> 0.13943408E+05</totfact>
</mgrwt>
</event>
<event>
 7    1  0.3301067E-009  0.9319098E+02  0.7818608E-02  0.1295303E+00
         -1   -1    0    0    0  501 -0.00000000000E+00  0.00000000000E+00  0.10676596174E+02  0.10676597364E+02  0.50400000000E-02 0. -1.
          1   -1    0    0  501    0  0.00000000000E+00 -0.00000000000E+00 -0.20335502178E+03  0.20335502184E+03  0.50400000000E-02 0.  1.
         23    2    1    2    0    0  0.00000000000E+00  0.00000000000E+00 -0.19267842561E+03  0.21403161921E+03  0.93190977706E+02 0.  0.
    9000005    2    3    3    0    0  0.22901149455E+02 -0.39535664926E+02 -0.11612371719E+03  0.12487919452E+03  0.47501664488E+01 0.  0.
         22    1    3    3    0    0 -0.22901149455E+02  0.39535664926E+02 -0.76554708414E+02  0.89152424689E+02  0.00000000000E+00 0. -1.
         22    1    4    4    0    0  0.17955293391E+02 -0.30899634168E+02 -0.95821637776E+02  0.10226908731E+03  0.00000000000E+00 0.  1.
         22    1    4    4    0    0  0.49458560639E+01 -0.86360307579E+01 -0.20302079416E+02  0.22610107210E+02  0.00000000000E+00 0.  1.
<mgrwt>
<rscale>  0 0.93190978E+02</rscale>
<asrwt>0</asrwt>
<pdfrwt beam="2">  1        1 0.31285385E-01 0.93190978E+02</pdfrwt>
<pdfrwt beam="1">  1       -1 0.16425535E-02 0.93190978E+02</pdfrwt>
<totfact> 0.11201736E+05</totfact>
</mgrwt>
</event>
<event>
 7    1  0.3301067E-009  0.9148821E+02  0.7818608E-02  0.1299287E+00
         -1   -1    0    0    0  501 -0.00000000000E+00  0.00000000000E+00  0.26339121868E+02  0.26339122350E+02  0.50400000000E-02 0.  1.
          1   -1    0    0  501    0  0.00000000000E+00 -0.00000000000E+00 -0.79445435532E+02  0.79445435692E+02  0.50400000000E-02 0. -1.
         23    2    1    2    0    0  0.00000000000E+00  0.00000000000E+00 -0.53106313664E+02  0.10578455804E+03  0.91488207814E+02 0.  0.
    9000005    2    3    3    0    0 -0.32709521676E+02 -0.22862672269E+02 -0.30915043072E+01  0.41799436751E+02  0.12042463295E+02 0.  0.
         22    1    3    3    0    0  0.32709521676E+02  0.22862672269E+02 -0.50014809357E+02  0.63985121291E+02  0.00000000000E+00 0. -1.
         22    1    4    4    0    0  0.96425833869E+00 -0.15732707828E+01 -0.94972846289E-01  0.18476999057E+01  0.00000000000E+00 0. -1.
         22    1    4    4    0    0 -0.33673780015E+02 -0.21289401486E+02 -0.29965314609E+01  0.39951736845E+02  0.00000000000E+00 0. -1.
<mgrwt>
<rscale>  0 0.91488208E+02</rscale>
<asrwt>0</asrwt>
<pdfrwt beam="2">  1        1 0.12222375E-01 0.91488208E+02</pdfrwt>
<pdfrwt beam="1">  1       -1 0.40521727E-02 0.91488208E+02</pdfrwt>
<totfact> 0.99695058E+04</totfact>
</mgrwt>
</event>
<event>
 7    1  0.3301067E-009  0.9283241E+02  0.7818608E-02  0.1296134E+00
          1   -1    0    0  501    0  0.00000000000E+00  0.00000000000E+00  0.87374372266E+03  0.87374372267E+03  0.50400000000E-02 0. -1.
         -1   -1    0    0    0  501 -0.00000000000E+00 -0.00000000000E+00 -0.24657825751E+01  0.24657877259E+01  0.50400000000E-02 0.  1.
         23    2    1    2    0    0  0.00000000000E+00  0.00000000000E+00  0.87127794008E+03  0.87620951040E+03  0.92832414800E+02 0.  0.
    9000005    2    3    3    0    0  0.17818962487E+02  0.33892527558E+02  0.67979887534E+03  0.68093931021E+03  0.92528061663E+01 0.  0.
         22    1    3    3    0    0 -0.17818962487E+02 -0.33892527558E+02  0.19147906474E+03  0.19527020019E+03  0.00000000000E+00 0.  1.
         22    1    4    4    0    0  0.66500428599E+01  0.22388050609E+02  0.40795436097E+03  0.40862232993E+03  0.00000000000E+00 0. -1.
         22    1    4    4    0    0  0.11168919627E+02  0.11504476949E+02  0.27184451437E+03  0.27231698028E+03  0.00000000000E+00 0. -1.
<mgrwt>
<rscale>  0 0.92832415E+02</rscale>
<asrwt>0</asrwt>
<pdfrwt beam="1">  1        1 0.13442217E+00 0.92832415E+02</pdfrwt>
<pdfrwt beam="2">  1       -1 0.37935141E-03 0.92832415E+02</pdfrwt>
<totfact> 0.13333974E+05</totfact>
</mgrwt>
</event>
<event>
 7    1  0.3301067E-009  0.9200111E+02  0.7818608E-02  0.1298077E+00
          1   -1    0    0  501    0  0.00000000000E+00  0.00000000000E+00  0.35583334295E+03  0.35583334299E+03  0.50400000000E-02 0. -1.
         -1   -1    0    0    0  501 -0.00000000000E+00 -0.00000000000E+00 -0.59467463542E+01  0.59467484899E+01  0.50400000000E-02 0.  1.
         23    2    1    2    0    0  0.00000000000E+00  0.35527136788E-14  0.34988659660E+03  0.36178009148E+03  0.92001109291E+02 0.  0.
    9000005    2    3    3    0    0  0.92229589015E+01  0.25475246146E+02  0.32042105614E+03  0.32175173638E+03  0.10976133722E+02 0.  0.
         22    1    3    3    0    0 -0.92229589015E+01 -0.25475246146E+02  0.29465540463E+02  0.40028355098E+02  0.00000000000E+00 0.  1.
         22    1    4    4    0    0  0.58324305048E+01  0.24721915912E+02  0.26230170564E+03  0.26352869892E+03  0.00000000000E+00 0.  1.
         22    1    4    4    0    0  0.33905283966E+01  0.75333023428E+00  0.58119350493E+02  0.58223037459E+02  0.00000000000E+00 0.  1.
<mgrwt>
<rscale>  0 0.92001109E+02</rscale>
<asrwt>0</asrwt>
<pdfrwt beam="1">  1        1 0.54743603E-01 0.92001109E+02</pdfrwt>
<pdfrwt beam="2">  1       -1 0.91488402E-03 0.92001109E+02</pdfrwt>
<totfact> 0.12909112E+05</totfact>
</mgrwt>
</event>
<event>
 7    1  0.3301067E-009  0.9220402E+02  0.7818608E-02  0.1297600E+00
          1   -1    0    0  501    0  0.00000000000E+00  0.00000000000E+00  0.15753328647E+02  0.15753329453E+02  0.50400000000E-02 0. -1.
         -1   -1    0    0    0  501 -0.00000000000E+00 -0.00000000000E+00 -0.13491722502E+03  0.13491722512E+03  0.50400000000E-02 0.  1.
         23    2    1    2    0    0  0.00000000000E+00  0.71054273576E-14 -0.11916389637E+03  0.15067055457E+03  0.92204022770E+02 0.  0.
    9000005    2    3    3    0    0 -0.58295851101E+01 -0.44273775437E+02 -0.66300003457E+02  0.81469814483E+02  0.15731781831E+02 0.  0.
         22    1    3    3    0    0  0.58295851101E+01  0.44273775437E+02 -0.52863892917E+02  0.69200740085E+02  0.00000000000E+00 0. -1.
         22    1    4    4    0    0 -0.23375852673E+01 -0.62431490365E+01 -0.21962589327E+02  0.22952048813E+02  0.00000000000E+00 0. -1.
         22    1    4    4    0    0 -0.34919998428E+01 -0.38030626400E+02 -0.44337414130E+02  0.58517765670E+02  0.00000000000E+00 0. -1.
<mgrwt>
<rscale>  0 0.92204023E+02</rscale>
<asrwt>0</asrwt>
<pdfrwt beam="1">  1        1 0.24235892E-02 0.92204023E+02</pdfrwt>
<pdfrwt beam="2">  1       -1 0.20756495E-01 0.92204023E+02</pdfrwt>
<totfact> 0.74411478E+04</totfact>
</mgrwt>
</event>
<event>
 7    1  0.3301067E-009  0.9228400E+02  0.7818608E-02  0.1297413E+00
         -1   -1    0    0    0  501 -0.00000000000E+00  0.00000000000E+00  0.75721699217E+01  0.75721715990E+01  0.50400000000E-02 0.  1.
          1   -1    0    0  501    0  0.00000000000E+00 -0.00000000000E+00 -0.28117221209E+03  0.28117221214E+03  0.50400000000E-02 0. -1.
         23    2    1    2    0    0  0.00000000000E+00  0.00000000000E+00 -0.27360004217E+03  0.28874438374E+03  0.92283996790E+02 0.  0.
    9000005    2    3    3    0    0 -0.44235027571E+02  0.49839777438E+01 -0.10775924423E+03  0.11703314951E+03  0.10155080926E+02 0.  0.
         22    1    3    3    0    0  0.44235027571E+02 -0.49839777438E+01 -0.16584079794E+03  0.17171123423E+03  0.00000000000E+00 0. -1.
         22    1    4    4    0    0 -0.43849449227E+02  0.61922915643E+01 -0.10318954076E+03  0.11229069416E+03  0.00000000000E+00 0.  1.
         22    1    4    4    0    0 -0.38557834356E+00 -0.12083138204E+01 -0.45697034667E+01  0.47424553473E+01  0.00000000000E+00 0.  1.
<mgrwt>
<rscale>  0 0.92283997E+02</rscale>
<asrwt>0</asrwt>
<pdfrwt beam="2">  1        1 0.43257255E-01 0.92283997E+02</pdfrwt>
<pdfrwt beam="1">  1       -1 0.11649496E-02 0.92283997E+02</pdfrwt>
<totfact> 0.12252224E+05</totfact>
</mgrwt>
</event>
<event>
 6    1  0.3301067E-009  0.1790157E+03  0.7818608E-02  0.1168759E+00
          1   -1    0    0  501    0  0.00000000000E+00  0.00000000000E+00  0.15504812607E+03  0.15504812616E+03  0.50400000000E-02 0. -1.
         -1   -1    0    0    0  501 -0.00000000000E+00 -0.00000000000E+00 -0.51672036525E+02  0.51672036771E+02  0.50400000000E-02 0.  1.
    9000005    2    1    2    0    0  0.79573369833E-01 -0.67796654587E+02 -0.15545059298E+02  0.69831038639E+02  0.61913151876E+01 0.  0.
         22    1    1    2    0    0 -0.79573369833E-01  0.67796654587E+02  0.11892114885E+03  0.13688912429E+03  0.00000000000E+00 0. -1.
         22    1    3    3    0    0 -0.16178046542E+01 -0.17507134695E+02 -0.18267200056E+01  0.17676367362E+02  0.00000000000E+00 0. -1.
         22    1    3    3    0    0  0.16973780241E+01 -0.50289519891E+02 -0.13718339293E+02  0.52154671277E+02  0.00000000000E+00 0. -1.
<mgrwt>
<rscale>  0 0.17901567E+03</rscale>
<asrwt>0</asrwt>
<pdfrwt beam="1">  1        1 0.23853558E-01 0.17901567E+03</pdfrwt>
<pdfrwt beam="2">  1       -1 0.79495442E-02 0.17901567E+03</pdfrwt>
<totfact> 0.16870377E+04</totfact>
</mgrwt>
</event>
<event>
 7    1  0.3301067E-009  0.8871626E+02  0.7818608E-02  0.1305991E+00
         -1   -1    0    0    0  501 -0.00000000000E+00  0.00000000000E+00  0.93717959979E+02  0.93717960115E+02  0.50400000000E-02 0.  1.
          1   -1    0    0  501    0  0.00000000000E+00 -0.00000000000E+00 -0.20995372064E+02  0.20995372669E+02  0.50400000000E-02 0. -1.
         23    2    1    2    0    0  0.00000000000E+00 -0.35527136788E-14  0.72722587915E+02  0.11471333278E+03  0.88716255136E+02 0.  0.
    9000005    2    3    3    0    0 -0.33401744438E+02 -0.28255283334E+02  0.34294320547E+02  0.56483020226E+02  0.10009674536E+02 0.  0.
         22    1    3    3    0    0  0.33401744438E+02  0.28255283334E+02  0.38428267369E+02  0.58230312559E+02  0.00000000000E+00 0. -1.
         22    1    4    4    0    0 -0.15187826210E+02 -0.15763948136E+02  0.22714952098E+02  0.31545858281E+02  0.00000000000E+00 0.  1.
         22    1    4    4    0    0 -0.18213918227E+02 -0.12491335197E+02  0.11579368448E+02  0.24937161945E+02  0.00000000000E+00 0.  1.
<mgrwt>
<rscale>  0 0.88716255E+02</rscale>
<asrwt>0</asrwt>
<pdfrwt beam="2">  1        1 0.32300573E-02 0.88716255E+02</pdfrwt>
<pdfrwt beam="1">  1       -1 0.14418148E-01 0.88716255E+02</pdfrwt>
<totfact> 0.88335879E+04</totfact>
</mgrwt>
</event>
<event>
 7    1  0.3301067E-009  0.9098464E+02  0.7818608E-02  0.1300485E+00
          1   -1    0    0  501    0  0.00000000000E+00  0.00000000000E+00  0.15362875933E+03  0.15362875941E+03  0.50400000000E-02 0. -1.
         -1   -1    0    0    0  501 -0.00000000000E+00 -0.00000000000E+00 -0.13471116668E+02  0.13471117611E+02  0.50400000000E-02 0.  1.
         23    2    1    2    0    0  0.00000000000E+00 -0.17763568394E-14  0.14015764266E+03  0.16709987702E+03  0.90984636642E+02 0.  0.
    9000005    2    3    3    0    0 -0.30281393457E+02 -0.14229820073E+02  0.15619071423E+02  0.38145209426E+02  0.95734550222E+01 0.  0.
         22    1    3    3    0    0  0.30281393457E+02  0.14229820073E+02  0.12453857124E+03  0.12895466760E+03  0.00000000000E+00 0. -1.
         22    1    4    4    0    0 -0.10324944351E+02 -0.76143578535E+01  0.10316469427E+02  0.16462456160E+02  0.00000000000E+00 0.  1.
         22    1    4    4    0    0 -0.19956449105E+02 -0.66154622197E+01  0.53026019956E+01  0.21682753266E+02  0.00000000000E+00 0.  1.
<mgrwt>
<rscale>  0 0.90984637E+02</rscale>
<asrwt>0</asrwt>
<pdfrwt beam="1">  1        1 0.23635192E-01 0.90984637E+02</pdfrwt>
<pdfrwt beam="2">  1       -1 0.20724797E-02 0.90984637E+02</pdfrwt>
<totfact> 0.11327072E+05</totfact>
</mgrwt>
</event>
<event>
 7    1  0.3301067E-009  0.8992698E+02  0.7818608E-02  0.1303029E+00
          1   -1    0    0  501    0  0.00000000000E+00  0.00000000000E+00  0.89480625934E+02  0.89480626076E+02  0.50400000000E-02 0. -1.
         -1   -1    0    0    0  501 -0.00000000000E+00 -0.00000000000E+00 -0.22593889732E+02  0.22593890295E+02  0.50400000000E-02 0.  1.
         23    2    1    2    0    0  0.00000000000E+00  0.00000000000E+00  0.66886736202E+02  0.11207451637E+03  0.89926980045E+02 0.  0.
    9000005    2    3    3    0    0  0.39421924253E+02  0.11716945315E+01  0.59186485271E+02  0.71890504074E+02  0.10475855928E+02 0.  0.
         22    1    3    3    0    0 -0.39421924253E+02 -0.11716945315E+01  0.77002509313E+01  0.40184012297E+02  0.00000000000E+00 0. -1.
         22    1    4    4    0    0  0.15861222276E+02 -0.11576700812E+01  0.15535115119E+02  0.22231922406E+02  0.00000000000E+00 0. -1.
         22    1    4    4    0    0  0.23560701977E+02  0.23293646127E+01  0.43651370152E+02  0.49658581668E+02  0.00000000000E+00 0. -1.
<mgrwt>
<rscale>  0 0.89926980E+02</rscale>
<asrwt>0</asrwt>
<pdfrwt beam="1">  1        1 0.13766250E-01 0.89926980E+02</pdfrwt>
<pdfrwt beam="2">  1       -1 0.34759831E-02 0.89926980E+02</pdfrwt>
<totfact> 0.10650343E+05</totfact>
</mgrwt>
</event>
<event>
 7    1  0.3301067E-009  0.9620165E+02  0.7818608E-02  0.1288492E+00
         -1   -1    0    0    0  501 -0.00000000000E+00  0.00000000000E+00  0.11889546736E+02  0.11889547804E+02  0.50400000000E-02 0.  1.
          1   -1    0    0  501    0  0.00000000000E+00 -0.00000000000E+00 -0.19459862776E+03  0.19459862783E+03  0.50400000000E-02 0. -1.
         23    2    1    2    0    0  0.00000000000E+00  0.00000000000E+00 -0.18270908102E+03  0.20648817563E+03  0.96201654800E+02 0.  0.
    9000005    2    3    3    0    0  0.18373563120E+02  0.12629302617E+02 -0.18266648716E+03  0.18419268459E+03  0.79254287762E+01 0.  0.
         22    1    3    3    0    0 -0.18373563120E+02 -0.12629302617E+02 -0.42593868398E-01  0.22295491037E+02  0.00000000000E+00 0.  1.
         22    1    4    4    0    0  0.30913428037E+01  0.90043883601E+00 -0.11393975106E+02  0.11840179861E+02  0.00000000000E+00 0. -1.
         22    1    4    4    0    0  0.15282220317E+02  0.11728863781E+02 -0.17127251205E+03  0.17235250473E+03  0.00000000000E+00 0. -1.
<mgrwt>
<rscale>  0 0.96201655E+02</rscale>
<asrwt>0</asrwt>
<pdfrwt beam="2">  1        1 0.29938248E-01 0.96201655E+02</pdfrwt>
<pdfrwt beam="1">  1       -1 0.18291613E-02 0.96201655E+02</pdfrwt>
<totfact> 0.10193660E+05</totfact>
</mgrwt>
</event>
<event>
 7    1  0.3301067E-009  0.8908412E+02  0.7818608E-02  0.1305085E+00
          1   -1    0    0  501    0  0.00000000000E+00  0.00000000000E+00  0.13048377809E+02  0.13048378783E+02  0.50400000000E-02 0. -1.
         -1   -1    0    0    0  501 -0.00000000000E+00 -0.00000000000E+00 -0.15204916852E+03  0.15204916861E+03  0.50400000000E-02 0.  1.
         23    2    1    2    0    0  0.00000000000E+00 -0.71054273576E-14 -0.13900079071E+03  0.16509754739E+03  0.89084119432E+02 0.  0.
    9000005    2    3    3    0    0 -0.10193085870E+01 -0.40966540977E+02 -0.39095625703E+02  0.57114500269E+02  0.73689702248E+01 0.  0.
         22    1    3    3    0    0  0.10193085870E+01  0.40966540977E+02 -0.99905165010E+02  0.10798304712E+03  0.00000000000E+00 0.  1.
         22    1    4    4    0    0 -0.16018968999E+01 -0.55939426719E+01 -0.87344232470E+01  0.10495161635E+02  0.00000000000E+00 0. -1.
         22    1    4    4    0    0  0.58258831296E+00 -0.35372598306E+02 -0.30361202456E+02  0.46619338633E+02  0.00000000000E+00 0. -1.
<mgrwt>
<rscale>  0 0.89084119E+02</rscale>
<asrwt>0</asrwt>
<pdfrwt beam="1">  1        1 0.20074429E-02 0.89084119E+02</pdfrwt>
<pdfrwt beam="2">  1       -1 0.23392179E-01 0.89084119E+02</pdfrwt>
<totfact> 0.79175840E+04</totfact>
</mgrwt>
</event>
<event>
 7    1  0.3301067E-009  0.9067035E+02  0.7818608E-02  0.1301236E+00
          1   -1    0    0  501    0  0.00000000000E+00  0.00000000000E+00  0.36156063314E+02  0.36156063665E+02  0.50400000000E-02 0. -1.
         -1   -1    0    0    0  501 -0.00000000000E+00 -0.00000000000E+00 -0.56844631615E+02  0.56844631838E+02  0.50400000000E-02 0.  1.
         23    2    1    2    0    0  0.00000000000E+00 -0.35527136788E-14 -0.20688568301E+02  0.93000695503E+02  0.90670350753E+02 0.  0.
    9000005    2    3    3    0    0  0.27810422998E+02  0.28471488435E+02 -0.31106385505E+02  0.51859764591E+02  0.11738086862E+02 0.  0.
         22    1    3    3    0    0 -0.27810422998E+02 -0.28471488435E+02  0.10417817204E+02  0.41140930912E+02  0.00000000000E+00 0. -1.
         22    1    4    4    0    0  0.24641562896E+02  0.18855209029E+02 -0.26194019836E+02  0.40606061181E+02  0.00000000000E+00 0.  1.
         22    1    4    4    0    0  0.31688601019E+01  0.96162794061E+01 -0.49123656693E+01  0.11253703410E+02  0.00000000000E+00 0.  1.
<mgrwt>
<rscale>  0 0.90670351E+02</rscale>
<asrwt>0</asrwt>
<pdfrwt beam="1">  1        1 0.55624713E-02 0.90670351E+02</pdfrwt>
<pdfrwt beam="2">  1       -1 0.87453280E-02 0.90670351E+02</pdfrwt>
<totfact> 0.90694320E+04</totfact>
</mgrwt>
</event>
<event>
 7    1  0.3301067E-009  0.9182276E+02  0.7818608E-02  0.1298497E+00
         -1   -1    0    0    0  501 -0.00000000000E+00  0.00000000000E+00  0.96433441513E+01  0.96433454684E+01  0.50400000000E-02 0.  1.
          1   -1    0    0  501    0  0.00000000000E+00 -0.00000000000E+00 -0.21858129619E+03  0.21858129625E+03  0.50400000000E-02 0. -1.
         23    2    1    2    0    0  0.00000000000E+00  0.00000000000E+00 -0.20893795204E+03  0.22822464172E+03  0.91822760166E+02 0.  0.
    9000005    2    3    3    0    0 -0.44666360029E+02  0.43444341705E+01 -0.11371374634E+03  0.12295542885E+03  0.13162961313E+02 0.  0.
         22    1    3    3    0    0  0.44666360029E+02 -0.43444341705E+01 -0.95224205700E+02  0.10526921287E+03  0.00000000000E+00 0.  1.
         22    1    4    4    0    0 -0.23048920430E+02  0.69605848102E+01 -0.47510121116E+02  0.53262689402E+02  0.00000000000E+00 0. -1.
         22    1    4    4    0    0 -0.21617439600E+02 -0.26161506396E+01 -0.66203625222E+02  0.69692739446E+02  0.00000000000E+00 0. -1.
<mgrwt>
<rscale>  0 0.91822760E+02</rscale>
<asrwt>0</asrwt>
<pdfrwt beam="2">  1        1 0.33627888E-01 0.91822760E+02</pdfrwt>
<pdfrwt beam="1">  1       -1 0.14835917E-02 0.91822760E+02</pdfrwt>
<totfact> 0.11821275E+05</totfact>
</mgrwt>
</event>
<event>
 7    1  0.3301067E-009  0.9217220E+02  0.7818608E-02  0.1297675E+00
          1   -1    0    0  501    0  0.00000000000E+00  0.00000000000E+00  0.78946847041E+02  0.78946847202E+02  0.50400000000E-02 0. -1.
         -1   -1    0    0    0  501 -0.00000000000E+00 -0.00000000000E+00 -0.26903274680E+02  0.26903275152E+02  0.50400000000E-02 0.  1.
         23    2    1    2    0    0  0.00000000000E+00  0.88817841970E-15  0.52043572361E+02  0.10585012235E+03  0.92172202850E+02 0.  0.
    9000005    2    3    3    0    0  0.16556028583E+02 -0.79378019838E+01  0.73754501913E+02  0.77416423250E+02  0.14712758192E+02 0.  0.
         22    1    3    3    0    0 -0.16556028583E+02  0.79378019838E+01 -0.21710929551E+02  0.28433699104E+02  0.00000000000E+00 0.  1.
         22    1    4    4    0    0  0.22067148237E+01  0.40839456969E+01  0.18652362212E+02  0.19221311580E+02  0.00000000000E+00 0. -1.
         22    1    4    4    0    0  0.14349313759E+02 -0.12021747681E+02  0.55102139701E+02  0.58195111670E+02  0.00000000000E+00 0. -1.
<mgrwt>
<rscale>  0 0.92172203E+02</rscale>
<asrwt>0</asrwt>
<pdfrwt beam="1">  1        1 0.12145669E-01 0.92172203E+02</pdfrwt>
<pdfrwt beam="2">  1       -1 0.41389654E-02 0.92172203E+02</pdfrwt>
<totfact> 0.97575783E+04</totfact>
</mgrwt>
</event>
<event>
 7    1  0.3477098E-009  0.9208541E+02  0.7818608E-02  0.1297879E+00
         -1   -1    0    0    0  501 -0.00000000000E+00  0.00000000000E+00  0.29609198824E+01  0.29609241719E+01  0.50400000000E-02 0.  1.
          1   -1    0    0  501    0  0.00000000000E+00 -0.00000000000E+00 -0.71596983553E+03  0.71596983554E+03  0.50400000000E-02 0. -1.
         23    2    1    2    0    0  0.00000000000E+00  0.00000000000E+00 -0.71300891564E+03  0.71893075972E+03  0.92085414035E+02 0.  0.
    9000005    2    3    3    0    0 -0.16558410232E+02 -0.11160942311E+02 -0.67935531098E+03  0.67979876910E+03  0.14282168251E+02 0.  0.
         22    1    3    3    0    0  0.16558410232E+02  0.11160942311E+02 -0.33653604659E+02  0.39131990611E+02  0.00000000000E+00 0.  1.
         22    1    4    4    0    0 -0.90653805188E+01 -0.12681625800E+02 -0.33979184537E+03  0.34014923628E+03  0.00000000000E+00 0. -1.
         22    1    4    4    0    0 -0.74930297128E+01  0.15206834887E+01 -0.33956346561E+03  0.33964953283E+03  0.00000000000E+00 0. -1.
<mgrwt>
<rscale>  0 0.92085414E+02</rscale>
<asrwt>0</asrwt>
<pdfrwt beam="2">  1        1 0.11014907E+00 0.92085414E+02</pdfrwt>
<pdfrwt beam="1">  1       -1 0.45552704E-03 0.92085414E+02</pdfrwt>
<totfact> 0.13844649E+05</totfact>
</mgrwt>
</event>
<event>
 7    1  0.3301067E-009  0.9060842E+02  0.7818608E-02  0.1301385E+00
          1   -1    0    0  501    0  0.00000000000E+00  0.00000000000E+00  0.47469665516E+02  0.47469665783E+02  0.50400000000E-02 0. -1.
         -1   -1    0    0    0  501 -0.00000000000E+00 -0.00000000000E+00 -0.43237534238E+02  0.43237534531E+02  0.50400000000E-02 0.  1.
         23    2    1    2    0    0  0.16653345369E-15  0.00000000000E+00  0.42321312781E+01  0.90707200315E+02  0.90608417125E+02 0.  0.
    9000005    2    3    3    0    0 -0.23202385896E+00 -0.40856673162E+02  0.20770425853E+02  0.46629578279E+02  0.85781934800E+01 0.  0.
         22    1    3    3    0    0  0.23202385896E+00  0.40856673162E+02 -0.16538294574E+02  0.44077622036E+02  0.00000000000E+00 0.  1.
         22    1    4    4    0    0 -0.25799933815E+01 -0.50151327877E+01  0.13580948401E+01  0.58010640680E+01  0.00000000000E+00 0.  1.
         22    1    4    4    0    0  0.23479695226E+01 -0.35841540375E+02  0.19412331012E+02  0.40828514210E+02  0.00000000000E+00 0.  1.
<mgrwt>
<rscale>  0 0.90608417E+02</rscale>
<asrwt>0</asrwt>
<pdfrwt beam="1">  1        1 0.73030255E-02 0.90608417E+02</pdfrwt>
<pdfrwt beam="2">  1       -1 0.66519284E-02 0.90608417E+02</pdfrwt>
<totfact> 0.94678621E+04</totfact>
</mgrwt>
</event>
<event>
 7    1  0.3301067E-009  0.9012152E+02  0.7818608E-02  0.1302558E+00
         -1   -1    0    0    0  501 -0.00000000000E+00  0.00000000000E+00  0.68443321070E+01  0.68443339627E+01  0.50400000000E-02 0.  1.
          1   -1    0    0  501    0  0.00000000000E+00 -0.00000000000E+00 -0.29666470848E+03  0.29666470852E+03  0.50400000000E-02 0. -1.
         23    2    1    2    0    0  0.00000000000E+00  0.00000000000E+00 -0.28982037637E+03  0.30350904249E+03  0.90121519680E+02 0.  0.
    9000005    2    3    3    0    0 -0.38275584736E+01  0.40363907670E+02 -0.20888285344E+03  0.21298403011E+03  0.92873772598E+01 0.  0.
         22    1    3    3    0    0  0.38275584736E+01 -0.40363907670E+02 -0.80937522933E+02  0.90525012370E+02  0.00000000000E+00 0. -1.
         22    1    4    4    0    0  0.14553560077E+01  0.18580200669E+02 -0.78001708079E+02  0.80197309065E+02  0.00000000000E+00 0.  1.
         22    1    4    4    0    0 -0.52829144813E+01  0.21783707000E+02 -0.13088114536E+03  0.13278672105E+03  0.00000000000E+00 0.  1.
<mgrwt>
<rscale>  0 0.90121520E+02</rscale>
<asrwt>0</asrwt>
<pdfrwt beam="2">  1        1 0.45640714E-01 0.90121520E+02</pdfrwt>
<pdfrwt beam="1">  1       -1 0.10529746E-02 0.90121520E+02</pdfrwt>
<totfact> 0.13187299E+05</totfact>
</mgrwt>
</event>
<event>
 7    1  0.3301067E-009  0.9074448E+02  0.7818608E-02  0.1301059E+00
         -1   -1    0    0    0  501 -0.00000000000E+00  0.00000000000E+00  0.23261025403E+01  0.23261080004E+01  0.50400000000E-02 0.  1.
          1   -1    0    0  501    0  0.00000000000E+00 -0.00000000000E+00 -0.88501596091E+03  0.88501596092E+03  0.50400000000E-02 0. -1.
         23    2    1    2    0    0  0.00000000000E+00  0.00000000000E+00 -0.88268985837E+03  0.88734206892E+03  0.90744483110E+02 0.  0.
    9000005    2    3    3    0    0  0.14412061072E+02  0.18839654439E+02 -0.81815492969E+03  0.81858599935E+03  0.11954466573E+02 0.  0.
         22    1    3    3    0    0 -0.14412061072E+02 -0.18839654439E+02 -0.64534928677E+02  0.68756069572E+02  0.00000000000E+00 0.  1.
         22    1    4    4    0    0 -0.38844572469E+00  0.64702717030E+01 -0.30460141204E+03  0.30467037191E+03  0.00000000000E+00 0. -1.
         22    1    4    4    0    0  0.14800506796E+02  0.12369382736E+02 -0.51355351766E+03  0.51391562744E+03  0.00000000000E+00 0. -1.
<mgrwt>
<rscale>  0 0.90744483E+02</rscale>
<asrwt>0</asrwt>
<pdfrwt beam="2">  1        1 0.13615603E+00 0.90744483E+02</pdfrwt>
<pdfrwt beam="1">  1       -1 0.35786306E-03 0.90744483E+02</pdfrwt>
<totfact> 0.14132967E+05</totfact>
</mgrwt>
</event>
<event>
 7    1  0.3301067E-009  0.9132183E+02  0.7818608E-02  0.1299682E+00
          1   -1    0    0  501    0  0.00000000000E+00  0.00000000000E+00  0.20603139333E+02  0.20603139949E+02  0.50400000000E-02 0. -1.
         -1   -1    0    0    0  501 -0.00000000000E+00 -0.00000000000E+00 -0.10119423428E+03  0.10119423441E+03  0.50400000000E-02 0.  1.
         23    2    1    2    0    0 -0.35527136788E-14 -0.71054273576E-14 -0.80591094950E+02  0.12179737436E+03  0.91321825514E+02 0.  0.
    9000005    2    3    3    0    0 -0.27621609348E+02 -0.34860237868E+02 -0.40042670746E+02  0.61611294633E+02  0.14640582594E+02 0.  0.
         22    1    3    3    0    0  0.27621609348E+02  0.34860237868E+02 -0.40548424204E+02  0.60186079725E+02  0.00000000000E+00 0.  1.
         22    1    4    4    0    0 -0.19988007758E+02 -0.29574799025E+02 -0.37937692882E+02  0.52090860356E+02  0.00000000000E+00 0.  1.
         22    1    4    4    0    0 -0.76336015905E+01 -0.52854388431E+01 -0.21049778644E+01  0.95204342766E+01  0.00000000000E+00 0.  1.
<mgrwt>
<rscale>  0 0.91321826E+02</rscale>
<asrwt>0</asrwt>
<pdfrwt beam="1">  1        1 0.31697139E-02 0.91321826E+02</pdfrwt>
<pdfrwt beam="2">  1       -1 0.15568344E-01 0.91321826E+02</pdfrwt>
<totfact> 0.80858652E+04</totfact>
</mgrwt>
</event>
<event>
 7    1  0.3301067E-009  0.9220312E+02  0.7818608E-02  0.1297603E+00
         -1   -1    0    0    0  501 -0.00000000000E+00  0.00000000000E+00  0.53699570994E+02  0.53699571231E+02  0.50400000000E-02 0.  1.
          1   -1    0    0  501    0  0.00000000000E+00 -0.00000000000E+00 -0.39578598504E+02  0.39578598825E+02  0.50400000000E-02 0. -1.
         23    2    1    2    0    0  0.35527136788E-14  0.00000000000E+00  0.14120972490E+02  0.93278170056E+02  0.92203118954E+02 0.  0.
    9000005    2    3    3    0    0  0.24696970112E+02  0.24103460960E+02 -0.21962448925E+02  0.43348915465E+02  0.14347896929E+02 0.  0.
         22    1    3    3    0    0 -0.24696970112E+02 -0.24103460960E+02  0.36083421415E+02  0.49929254591E+02  0.00000000000E+00 0.  1.
         22    1    4    4    0    0  0.20426038543E+02  0.14576350321E+02 -0.21252694407E+02  0.32884191625E+02  0.00000000000E+00 0.  1.
         22    1    4    4    0    0  0.42709315691E+01  0.95271106383E+01 -0.70975451771E+00  0.10464723841E+02  0.00000000000E+00 0.  1.
<mgrwt>
<rscale>  0 0.92203119E+02</rscale>
<asrwt>0</asrwt>
<pdfrwt beam="2">  1        1 0.60890152E-02 0.92203119E+02</pdfrwt>
<pdfrwt beam="1">  1       -1 0.82614725E-02 0.92203119E+02</pdfrwt>
<totfact> 0.87693718E+04</totfact>
</mgrwt>
</event>
<event>
 7    1  0.3301067E-009  0.9178582E+02  0.7818608E-02  0.1298584E+00
         -1   -1    0    0    0  501 -0.00000000000E+00  0.00000000000E+00  0.26381758731E+02  0.26381759213E+02  0.50400000000E-02 0.  1.
          1   -1    0    0  501    0  0.00000000000E+00 -0.00000000000E+00 -0.79833915718E+02  0.79833915877E+02  0.50400000000E-02 0. -1.
         23    2    1    2    0    0  0.71054273576E-14 -0.16653345369E-15 -0.53452156987E+02  0.10621567509E+03  0.91785818884E+02 0.  0.
    9000005    2    3    3    0    0  0.39487177067E+02 -0.26638489367E+00 -0.53363387559E+02  0.66727499725E+02  0.67527752914E+01 0.  0.
         22    1    3    3    0    0 -0.39487177067E+02  0.26638489367E+00 -0.88769427448E-01  0.39488175365E+02  0.00000000000E+00 0.  1.
         22    1    4    4    0    0  0.16028322117E+02  0.28117028551E+01 -0.24399936013E+02  0.29328649138E+02  0.00000000000E+00 0. -1.
         22    1    4    4    0    0  0.23458854950E+02 -0.30780877488E+01 -0.28963451546E+02  0.37398850587E+02  0.00000000000E+00 0. -1.
<mgrwt>
<rscale>  0 0.91785819E+02</rscale>
<asrwt>0</asrwt>
<pdfrwt beam="2">  1        1 0.12282141E-01 0.91785819E+02</pdfrwt>
<pdfrwt beam="1">  1       -1 0.40587322E-02 0.91785819E+02</pdfrwt>
<totfact> 0.98884965E+04</totfact>
</mgrwt>
</event>
<event>
 7    1  0.3301067E-009  0.9145906E+02  0.7818608E-02  0.1299356E+00
         -1   -1    0    0    0  501 -0.00000000000E+00  0.00000000000E+00  0.11921410594E+03  0.11921410605E+03  0.50400000000E-02 0.  1.
          1   -1    0    0  501    0  0.00000000000E+00 -0.00000000000E+00 -0.17541463757E+02  0.17541464481E+02  0.50400000000E-02 0. -1.
         23    2    1    2    0    0  0.00000000000E+00 -0.35527136788E-14  0.10167264218E+03  0.13675557053E+03  0.91459061344E+02 0.  0.
    9000005    2    3    3    0    0 -0.19315607885E+02  0.22954331080E+02  0.12297372067E+01  0.31928230662E+02  0.10858436182E+02 0.  0.
         22    1    3    3    0    0  0.19315607885E+02 -0.22954331080E+02  0.10044290498E+03  0.10482733987E+03  0.00000000000E+00 0.  1.
         22    1    4    4    0    0 -0.39759705298E+01  0.99458631169E+01 -0.34968753515E+01  0.11267505137E+02  0.00000000000E+00 0.  1.
         22    1    4    4    0    0 -0.15339637355E+02  0.13008467963E+02  0.47266125583E+01  0.20660725525E+02  0.00000000000E+00 0.  1.
<mgrwt>
<rscale>  0 0.91459061E+02</rscale>
<asrwt>0</asrwt>
<pdfrwt beam="2">  1        1 0.26986866E-02 0.91459061E+02</pdfrwt>
<pdfrwt beam="1">  1       -1 0.18340633E-01 0.91459061E+02</pdfrwt>
<totfact> 0.78009745E+04</totfact>
</mgrwt>
</event>
<event>
 7    1  0.3301067E-009  0.9256871E+02  0.7818608E-02  0.1296748E+00
          1   -1    0    0  501    0  0.00000000000E+00  0.00000000000E+00  0.14986573762E+04  0.14986573762E+04  0.50400000000E-02 0. -1.
         -1   -1    0    0    0  501 -0.00000000000E+00 -0.00000000000E+00 -0.14294361617E+01  0.14294450468E+01  0.50400000000E-02 0.  1.
         23    2    1    2    0    0  0.00000000000E+00  0.00000000000E+00  0.14972279401E+04  0.15000868213E+04  0.92568714330E+02 0.  0.
    9000005    2    3    3    0    0 -0.15133069060E+02 -0.66903095502E+00  0.14571903454E+04  0.14572795045E+04  0.55130933193E+01 0.  0.
         22    1    3    3    0    0  0.15133069060E+02  0.66903095502E+00  0.40037594696E+02  0.42807316788E+02  0.00000000000E+00 0.  1.
         22    1    4    4    0    0 -0.86003602807E+00  0.14076032389E+01  0.11899178154E+03  0.11900321459E+03  0.00000000000E+00 0. -1.
         22    1    4    4    0    0 -0.14273033032E+02 -0.20766341940E+01  0.13381985638E+04  0.13382762899E+04  0.00000000000E+00 0. -1.
<mgrwt>
<rscale>  0 0.92568714E+02</rscale>
<asrwt>0</asrwt>
<pdfrwt beam="1">  1        1 0.23056305E+00 0.92568714E+02</pdfrwt>
<pdfrwt beam="2">  1       -1 0.21991358E-03 0.92568714E+02</pdfrwt>
<totfact> 0.10624086E+05</totfact>
</mgrwt>
</event>
<event>
 7    1  0.3301067E-009  0.9066889E+02  0.7818608E-02  0.1301240E+00
          1   -1    0    0  501    0  0.00000000000E+00  0.00000000000E+00  0.44673788655E+03  0.44673788658E+03  0.50400000000E-02 0. -1.
         -1   -1    0    0    0  501 -0.00000000000E+00 -0.00000000000E+00 -0.46004859861E+01  0.46004887468E+01  0.50400000000E-02 0.  1.
         23    2    1    2    0    0  0.00000000000E+00  0.00000000000E+00  0.44213740057E+03  0.45133837533E+03  0.90668892482E+02 0.  0.
    9000005    2    3    3    0    0 -0.16826755316E+02  0.27388461923E+02  0.37983521171E+03  0.38123252480E+03  0.54938488477E+01 0.  0.
         22    1    3    3    0    0  0.16826755316E+02 -0.27388461923E+02  0.62302188861E+02  0.70105850525E+02  0.00000000000E+00 0.  1.
         22    1    4    4    0    0 -0.15570526891E+02  0.21500546429E+02  0.31696069756E+03  0.31807043025E+03  0.00000000000E+00 0. -1.
         22    1    4    4    0    0 -0.12562284241E+01  0.58879154938E+01  0.62874514148E+02  0.63162094551E+02  0.00000000000E+00 0. -1.
<mgrwt>
<rscale>  0 0.90668892E+02</rscale>
<asrwt>0</asrwt>
<pdfrwt beam="1">  1        1 0.68728903E-01 0.90668892E+02</pdfrwt>
<pdfrwt beam="2">  1       -1 0.70776732E-03 0.90668892E+02</pdfrwt>
<totfact> 0.13926156E+05</totfact>
</mgrwt>
</event>
<event>
 7    1  0.3301067E-009  0.9143718E+02  0.7818608E-02  0.1299408E+00
          1   -1    0    0  501    0  0.00000000000E+00  0.00000000000E+00  0.11456699651E+03  0.11456699662E+03  0.50400000000E-02 0. -1.
         -1   -1    0    0    0  501 -0.00000000000E+00 -0.00000000000E+00 -0.18244255614E+02  0.18244256311E+02  0.50400000000E-02 0.  1.
         23    2    1    2    0    0  0.00000000000E+00  0.00000000000E+00  0.96322740892E+02  0.13281125293E+03  0.91437183308E+02 0.  0.
    9000005    2    3    3    0    0  0.20343289303E+02  0.69263786978E+01  0.10594440389E+03  0.10926554121E+03  0.15903384466E+02 0.  0.
         22    1    3    3    0    0 -0.20343289303E+02 -0.69263786978E+01 -0.96216630010E+01  0.23545711721E+02  0.00000000000E+00 0.  1.
         22    1    4    4    0    0 -0.19496650144E+01 -0.15091293576E+01  0.17204612619E+02  0.17380372851E+02  0.00000000000E+00 0.  1.
         22    1    4    4    0    0  0.22292954317E+02  0.84355080554E+01  0.88739791274E+02  0.91885168356E+02  0.00000000000E+00 0.  1.
<mgrwt>
<rscale>  0 0.91437183E+02</rscale>
<asrwt>0</asrwt>
<pdfrwt beam="1">  1        1 0.17625692E-01 0.91437183E+02</pdfrwt>
<pdfrwt beam="2">  1       -1 0.28068086E-02 0.91437183E+02</pdfrwt>
<totfact> 0.10605476E+05</totfact>
</mgrwt>
</event>
<event>
 7    1  0.3301067E-009  0.9087877E+02  0.7818608E-02  0.1300737E+00
          1   -1    0    0  501    0  0.00000000000E+00  0.00000000000E+00  0.40582809945E+03  0.40582809948E+03  0.50400000000E-02 0. -1.
         -1   -1    0    0    0  501 -0.00000000000E+00 -0.00000000000E+00 -0.50877134673E+01  0.50877159637E+01  0.50400000000E-02 0.  1.
         23    2    1    2    0    0  0.35527136788E-14  0.35527136788E-14  0.40074038599E+03  0.41091581545E+03  0.90878767737E+02 0.  0.
    9000005    2    3    3    0    0  0.25291791249E+02  0.22637057913E+02  0.33562286669E+03  0.33748283638E+03  0.99922525303E+01 0.  0.
         22    1    3    3    0    0 -0.25291791249E+02 -0.22637057913E+02  0.65117519296E+02  0.73432979068E+02  0.00000000000E+00 0.  1.
         22    1    4    4    0    0  0.15574555214E+01  0.19827968771E+01  0.89515705505E+01  0.92998799174E+01  0.00000000000E+00 0. -1.
         22    1    4    4    0    0  0.23734335727E+02  0.20654261036E+02  0.32667129614E+03  0.32818295646E+03  0.00000000000E+00 0. -1.
<mgrwt>
<rscale>  0 0.90878768E+02</rscale>
<asrwt>0</asrwt>
<pdfrwt beam="1">  1        1 0.62435084E-01 0.90878768E+02</pdfrwt>
<pdfrwt beam="2">  1       -1 0.78272544E-03 0.90878768E+02</pdfrwt>
<totfact> 0.13638963E+05</totfact>
</mgrwt>
</event>
<event>
 7    1  0.3301067E-009  0.9925963E+02  0.7818608E-02  0.1281861E+00
          1   -1    0    0  501    0  0.00000000000E+00  0.00000000000E+00  0.83616310900E+02  0.83616311051E+02  0.50400000000E-02 0. -1.
         -1   -1    0    0    0  501 -0.00000000000E+00 -0.00000000000E+00 -0.29457390714E+02  0.29457391145E+02  0.50400000000E-02 0.  1.
         23    2    1    2    0    0  0.00000000000E+00 -0.35527136788E-14  0.54158920186E+02  0.11307370220E+03  0.99259626701E+02 0.  0.
    9000005    2    3    3    0    0  0.39659116303E+02 -0.27092187554E+02  0.21141101271E+02  0.54789840809E+02  0.15752725494E+02 0.  0.
         22    1    3    3    0    0 -0.39659116303E+02  0.27092187554E+02  0.33017818915E+02  0.58283861388E+02  0.00000000000E+00 0. -1.
         22    1    4    4    0    0 -0.84087626742E+00  0.46659990222E+00 -0.66434603977E+00  0.11688216401E+01  0.00000000000E+00 0. -1.
         22    1    4    4    0    0  0.40499992571E+02 -0.27558787456E+02  0.21805447311E+02  0.53621019169E+02  0.00000000000E+00 0. -1.
<mgrwt>
<rscale>  0 0.99259627E+02</rscale>
<asrwt>0</asrwt>
<pdfrwt beam="1">  1        1 0.12864048E-01 0.99259627E+02</pdfrwt>
<pdfrwt beam="2">  1       -1 0.45319063E-02 0.99259627E+02</pdfrwt>
<totfact> 0.80258132E+04</totfact>
</mgrwt>
</event>
<event>
 7    1  0.3301067E-009  0.8989245E+02  0.7818608E-02  0.1303112E+00
          1   -1    0    0  501    0  0.00000000000E+00  0.00000000000E+00  0.37272008682E+02  0.37272009023E+02  0.50400000000E-02 0. -1.
         -1   -1    0    0    0  501 -0.00000000000E+00 -0.00000000000E+00 -0.54200540290E+02  0.54200540525E+02  0.50400000000E-02 0.  1.
         23    2    1    2    0    0  0.00000000000E+00  0.00000000000E+00 -0.16928531608E+02  0.91472549547E+02  0.89892447615E+02 0.  0.
    9000005    2    3    3    0    0 -0.18124390692E+02 -0.34986330141E+02  0.12110732825E+02  0.42525479016E+02  0.10450343597E+02 0.  0.
         22    1    3    3    0    0  0.18124390692E+02  0.34986330141E+02 -0.29039264434E+02  0.48947070531E+02  0.00000000000E+00 0.  1.
         22    1    4    4    0    0 -0.54519795937E+01 -0.30427882876E+01  0.32373054492E+01  0.70329786452E+01  0.00000000000E+00 0.  1.
         22    1    4    4    0    0 -0.12672411099E+02 -0.31943541853E+02  0.88734273760E+01  0.35492500371E+02  0.00000000000E+00 0.  1.
<mgrwt>
<rscale>  0 0.89892448E+02</rscale>
<asrwt>0</asrwt>
<pdfrwt beam="1">  1        1 0.57341552E-02 0.89892448E+02</pdfrwt>
<pdfrwt beam="2">  1       -1 0.83385448E-02 0.89892448E+02</pdfrwt>
<totfact> 0.93364334E+04</totfact>
</mgrwt>
</event>
<event>
 7    1  0.3301067E-009  0.9074939E+02  0.7818608E-02  0.1301047E+00
         -1   -1    0    0    0  501 -0.00000000000E+00  0.00000000000E+00  0.54878236778E+02  0.54878237010E+02  0.50400000000E-02 0.  1.
          1   -1    0    0  501    0  0.00000000000E+00 -0.00000000000E+00 -0.37516928682E+02  0.37516929020E+02  0.50400000000E-02 0. -1.
         23    2    1    2    0    0  0.00000000000E+00  0.00000000000E+00  0.17361308097E+02  0.92395166030E+02  0.90749389458E+02 0.  0.
    9000005    2    3    3    0    0 -0.11883776124E+02  0.47097103797E+01  0.52926791541E+02  0.54602188912E+02  0.40924643360E+01 0.  0.
         22    1    3    3    0    0  0.11883776124E+02 -0.47097103797E+01 -0.35565483444E+02  0.37792977118E+02  0.00000000000E+00 0. -1.
         22    1    4    4    0    0 -0.58311133791E+01  0.38148083339E+00  0.19475087689E+02  0.20332890875E+02  0.00000000000E+00 0.  1.
         22    1    4    4    0    0 -0.60526627448E+01  0.43282295463E+01  0.33451703853E+02  0.34269298037E+02  0.00000000000E+00 0.  1.
<mgrwt>
<rscale>  0 0.90749389E+02</rscale>
<asrwt>0</asrwt>
<pdfrwt beam="2">  1        1 0.57718352E-02 0.90749389E+02</pdfrwt>
<pdfrwt beam="1">  1       -1 0.84428057E-02 0.90749389E+02</pdfrwt>
<totfact> 0.90983866E+04</totfact>
</mgrwt>
</event>
<event>
 7    1  0.3301067E-009  0.8718597E+02  0.7818608E-02  0.1309813E+00
          1   -1    0    0  501    0  0.00000000000E+00  0.00000000000E+00  0.29514231520E+01  0.29514274553E+01  0.50400000000E-02 0. -1.
         -1   -1    0    0    0  501 -0.00000000000E+00 -0.00000000000E+00 -0.64387485175E+03  0.64387485177E+03  0.50400000000E-02 0.  1.
         23    2    1    2    0    0  0.71054273576E-14  0.00000000000E+00 -0.64092342860E+03  0.64682627922E+03  0.87185974619E+02 0.  0.
    9000005    2    3    3    0    0 -0.32511980181E+02 -0.12820302686E+02 -0.51206334427E+03  0.51331107279E+03  0.76157657674E+01 0.  0.
         22    1    3    3    0    0  0.32511980181E+02  0.12820302686E+02 -0.12886008433E+03  0.13351520644E+03  0.00000000000E+00 0.  1.
         22    1    4    4    0    0 -0.15948047820E+02 -0.54513117427E+01 -0.19364934784E+03  0.19438139558E+03  0.00000000000E+00 0.  1.
         22    1    4    4    0    0 -0.16563932360E+02 -0.73689909436E+01 -0.31841399643E+03  0.31892967721E+03  0.00000000000E+00 0.  1.
<mgrwt>
<rscale>  0 0.87185975E+02</rscale>
<asrwt>0</asrwt>
<pdfrwt beam="1">  1        1 0.45406595E-03 0.87185975E+02</pdfrwt>
<pdfrwt beam="2">  1       -1 0.99057558E-01 0.87185975E+02</pdfrwt>
<totfact> 0.44362193E+04</totfact>
</mgrwt>
</event>
<event>
 7    1  0.3301067E-009  0.8117674E+02  0.7818608E-02  0.1325745E+00
          1   -1    0    0  501    0  0.00000000000E+00  0.00000000000E+00  0.42012733317E+03  0.42012733321E+03  0.50400000000E-02 0. -1.
         -1   -1    0    0    0  501 -0.00000000000E+00 -0.00000000000E+00 -0.39212279582E+01  0.39212311972E+01  0.50400000000E-02 0.  1.
         23    2    1    2    0    0  0.00000000000E+00  0.00000000000E+00  0.41620610522E+03  0.42404856440E+03  0.81176738984E+02 0.  0.
    9000005    2    3    3    0    0 -0.36832399530E+02  0.13331952037E+02  0.21265231191E+03  0.21676008578E+03  0.15151317641E+02 0.  0.
         22    1    3    3    0    0  0.36832399530E+02 -0.13331952037E+02  0.20355379330E+03  0.20728847862E+03  0.00000000000E+00 0.  1.
         22    1    4    4    0    0 -0.17653443521E+02  0.13531720539E+02  0.13181679923E+03  0.13368029057E+03  0.00000000000E+00 0.  1.
         22    1    4    4    0    0 -0.19178956009E+02 -0.19976850269E+00  0.80835512685E+02  0.83079795210E+02  0.00000000000E+00 0.  1.
<mgrwt>
<rscale>  0 0.81176739E+02</rscale>
<asrwt>0</asrwt>
<pdfrwt beam="1">  1        1 0.64634987E-01 0.81176739E+02</pdfrwt>
<pdfrwt beam="2">  1       -1 0.60326598E-03 0.81176739E+02</pdfrwt>
<totfact> 0.18470774E+05</totfact>
</mgrwt>
</event>
<event>
 6    1  0.3301067E-009  0.1374691E+03  0.7818608E-02  0.1216776E+00
          1   -1    0    0  501    0  0.00000000000E+00  0.00000000000E+00  0.62485017212E+02  0.62485017415E+02  0.50400000000E-02 0. -1.
         -1   -1    0    0    0  501 -0.00000000000E+00 -0.00000000000E+00 -0.75609141573E+02  0.75609141741E+02  0.50400000000E-02 0.  1.
    9000005    2    1    2    0    0 -0.34313174790E+02 -0.22206099625E+02 -0.61028578436E+02  0.75123201207E+02  0.15763982649E+02 0.  0.
         22    1    1    2    0    0  0.34313174790E+02  0.22206099625E+02  0.47904454076E+02  0.62970957949E+02  0.00000000000E+00 0. -1.
         22    1    3    3    0    0 -0.23354398878E+02 -0.63828501672E+01 -0.38638612939E+02  0.45597271114E+02  0.00000000000E+00 0. -1.
         22    1    3    3    0    0 -0.10958775912E+02 -0.15823249458E+02 -0.22389965497E+02  0.29525930093E+02  0.00000000000E+00 0. -1.
<mgrwt>
<rscale>  0 0.13746910E+03</rscale>
<asrwt>0</asrwt>
<pdfrwt beam="1">  1        1 0.96130796E-02 0.13746910E+03</pdfrwt>
<pdfrwt beam="2">  1       -1 0.11632176E-01 0.13746910E+03</pdfrwt>
<totfact> 0.29909337E+04</totfact>
</mgrwt>
</event>
<event>
 7    1  0.3301067E-009  0.9132349E+02  0.7818608E-02  0.1299678E+00
         -1   -1    0    0    0  501 -0.00000000000E+00  0.00000000000E+00  0.97780873513E+01  0.97780886502E+01  0.50400000000E-02 0.  1.
          1   -1    0    0  501    0  0.00000000000E+00 -0.00000000000E+00 -0.21323134333E+03  0.21323134339E+03  0.50400000000E-02 0. -1.
         23    2    1    2    0    0  0.71054273576E-14  0.35527136788E-14 -0.20345325598E+03  0.22300943204E+03  0.91323487725E+02 0.  0.
    9000005    2    3    3    0    0  0.40321017118E+02  0.18112781588E+02 -0.75675899368E+02  0.87802516016E+02  0.53462879869E+01 0.  0.
         22    1    3    3    0    0 -0.40321017118E+02 -0.18112781588E+02 -0.12777735661E+03  0.13520691602E+03  0.00000000000E+00 0. -1.
         22    1    4    4    0    0  0.34065063133E+02  0.14153018173E+02 -0.66121670588E+02  0.75715333791E+02  0.00000000000E+00 0.  1.
         22    1    4    4    0    0  0.62559539852E+01  0.39597634142E+01 -0.95542287799E+01  0.12087182225E+02  0.00000000000E+00 0.  1.
<mgrwt>
<rscale>  0 0.91323488E+02</rscale>
<asrwt>0</asrwt>
<pdfrwt beam="2">  1        1 0.32804819E-01 0.91323488E+02</pdfrwt>
<pdfrwt beam="1">  1       -1 0.15043214E-02 0.91323488E+02</pdfrwt>
<totfact> 0.11937481E+05</totfact>
</mgrwt>
</event>
<event>
 7    1  0.3301067E-009  0.9022441E+02  0.7818608E-02  0.1302309E+00
          1   -1    0    0  501    0  0.00000000000E+00  0.00000000000E+00  0.11290392086E+03  0.11290392098E+03  0.50400000000E-02 0. -1.
         -1   -1    0    0    0  501 -0.00000000000E+00 -0.00000000000E+00 -0.18025156557E+02  0.18025157262E+02  0.50400000000E-02 0.  1.
         23    2    1    2    0    0 -0.44408920985E-15  0.00000000000E+00  0.94878764307E+02  0.13092907824E+03  0.90224406964E+02 0.  0.
    9000005    2    3    3    0    0  0.27444304821E+01 -0.38252056767E+02  0.80767491515E+02  0.90064915879E+02  0.10842031224E+02 0.  0.
         22    1    3    3    0    0 -0.27444304821E+01  0.38252056767E+02  0.14111272791E+02  0.40864162360E+02  0.00000000000E+00 0.  1.
         22    1    4    4    0    0  0.43140645535E+01 -0.19313507465E+02  0.51476637675E+02  0.55149496371E+02  0.00000000000E+00 0.  1.
         22    1    4    4    0    0 -0.15696340715E+01 -0.18938549302E+02  0.29290853840E+02  0.34915419508E+02  0.00000000000E+00 0.  1.
<mgrwt>
<rscale>  0 0.90224407E+02</rscale>
<asrwt>0</asrwt>
<pdfrwt beam="1">  1        1 0.17369835E-01 0.90224407E+02</pdfrwt>
<pdfrwt beam="2">  1       -1 0.27731010E-02 0.90224407E+02</pdfrwt>
<totfact> 0.10969326E+05</totfact>
</mgrwt>
</event>
<event>
 7    1  0.3301067E-009  0.9352600E+02  0.7818608E-02  0.1294531E+00
          1   -1    0    0  501    0  0.00000000000E+00  0.00000000000E+00  0.30330774000E+02  0.30330774418E+02  0.50400000000E-02 0. -1.
         -1   -1    0    0    0  501 -0.00000000000E+00 -0.00000000000E+00 -0.72097669716E+02  0.72097669893E+02  0.50400000000E-02 0.  1.
         23    2    1    2    0    0  0.00000000000E+00  0.00000000000E+00 -0.41766895717E+02  0.10242844431E+03  0.93525999734E+02 0.  0.
    9000005    2    3    3    0    0  0.22793387898E+02 -0.17222940875E+02  0.19560448956E+02  0.34773352641E+02  0.32259364970E+01 0.  0.
         22    1    3    3    0    0 -0.22793387898E+02  0.17222940875E+02 -0.61327344673E+02  0.67655091670E+02  0.00000000000E+00 0.  1.
         22    1    4    4    0    0  0.20127514935E+02 -0.13994968551E+02  0.15966831750E+02  0.29256037297E+02  0.00000000000E+00 0.  1.
         22    1    4    4    0    0  0.26658729629E+01 -0.32279723236E+01  0.35936172064E+01  0.55173153438E+01  0.00000000000E+00 0.  1.
<mgrwt>
<rscale>  0 0.93526000E+02</rscale>
<asrwt>0</asrwt>
<pdfrwt beam="1">  1        1 0.46662730E-02 0.93526000E+02</pdfrwt>
<pdfrwt beam="2">  1       -1 0.11091949E-01 0.93526000E+02</pdfrwt>
<totfact> 0.80705807E+04</totfact>
</mgrwt>
</event>
<event>
 7    1  0.4959132E-009  0.9038571E+02  0.7818608E-02  0.1301920E+00
          1   -1    0    0  501    0  0.00000000000E+00  0.00000000000E+00  0.28484904158E+03  0.28484904163E+03  0.50400000000E-02 0. -1.
         -1   -1    0    0    0  501 -0.00000000000E+00 -0.00000000000E+00 -0.71700927923E+01  0.71700945637E+01  0.50400000000E-02 0.  1.
         23    2    1    2    0    0  0.44408920985E-15  0.00000000000E+00  0.27767894879E+03  0.29201913619E+03  0.90385714028E+02 0.  0.
    9000005    2    3    3    0    0  0.23107822064E+01  0.23141376141E+02  0.26302138610E+03  0.26452900799E+03  0.15952539693E+02 0.  0.
         22    1    3    3    0    0 -0.23107822064E+01 -0.23141376141E+02  0.14657562694E+02  0.27490128196E+02  0.00000000000E+00 0.  1.
         22    1    4    4    0    0  0.12804772340E+01  0.24376472244E+02  0.25963614424E+03  0.26078109483E+03  0.00000000000E+00 0. -1.
         22    1    4    4    0    0  0.10303049724E+01 -0.12350961028E+01  0.33852418518E+01  0.37479131680E+01  0.00000000000E+00 0. -1.
<mgrwt>
<rscale>  0 0.90385714E+02</rscale>
<asrwt>0</asrwt>
<pdfrwt beam="1">  1        1 0.43822927E-01 0.90385714E+02</pdfrwt>
<pdfrwt beam="2">  1       -1 0.11030914E-02 0.90385714E+02</pdfrwt>
<totfact> 0.12983335E+05</totfact>
</mgrwt>
</event>
<event>
 7    1  0.3301067E-009  0.8762566E+02  0.7818608E-02  0.1308706E+00
          1   -1    0    0  501    0  0.00000000000E+00  0.00000000000E+00  0.24604643338E+03  0.24604643343E+03  0.50400000000E-02 0. -1.
         -1   -1    0    0    0  501 -0.00000000000E+00 -0.00000000000E+00 -0.78016327762E+01  0.78016344042E+01  0.50400000000E-02 0.  1.
         23    2    1    2    0    0  0.00000000000E+00  0.00000000000E+00  0.23824480060E+03  0.25384806783E+03  0.87625661362E+02 0.  0.
    9000005    2    3    3    0    0  0.69008914953E+01  0.15782748488E+02  0.23548646736E+03  0.23640313001E+03  0.11655304311E+02 0.  0.
         22    1    3    3    0    0 -0.69008914953E+01 -0.15782748488E+02  0.27583332446E+01  0.17444937820E+02  0.00000000000E+00 0.  1.
         22    1    4    4    0    0  0.39184774671E+01  0.28276033900E+01  0.23047379663E+02  0.23548492858E+02  0.00000000000E+00 0.  1.
         22    1    4    4    0    0  0.29824140282E+01  0.12955145098E+02  0.21243908769E+03  0.21285463715E+03  0.00000000000E+00 0.  1.
<mgrwt>
<rscale>  0 0.87625661E+02</rscale>
<asrwt>0</asrwt>
<pdfrwt beam="1">  1        1 0.37853296E-01 0.87625661E+02</pdfrwt>
<pdfrwt beam="2">  1       -1 0.12002514E-02 0.87625661E+02</pdfrwt>
<totfact> 0.13705497E+05</totfact>
</mgrwt>
</event>
<event>
 7    1  0.3301067E-009  0.9108418E+02  0.7818608E-02  0.1300247E+00
         -1   -1    0    0    0  501 -0.00000000000E+00  0.00000000000E+00  0.50582337017E+02  0.50582337268E+02  0.50400000000E-02 0.  1.
          1   -1    0    0  501    0  0.00000000000E+00 -0.00000000000E+00 -0.41004077179E+02  0.41004077488E+02  0.50400000000E-02 0. -1.
         23    2    1    2    0    0  0.00000000000E+00  0.00000000000E+00  0.95782598382E+01  0.91586414756E+02  0.91084182526E+02 0.  0.
    9000005    2    3    3    0    0 -0.61185643513E+01 -0.85927847610E+01 -0.38839811423E+02  0.42032581359E+02  0.12121640347E+02 0.  0.
         22    1    3    3    0    0  0.61185643513E+01  0.85927847610E+01  0.48418071261E+02  0.49553833397E+02  0.00000000000E+00 0.  1.
         22    1    4    4    0    0 -0.88907437796E+00 -0.92453337449E+01 -0.15205208114E+02  0.17817547617E+02  0.00000000000E+00 0. -1.
         22    1    4    4    0    0 -0.52294899733E+01  0.65254898393E+00 -0.23634603309E+02  0.24215033742E+02  0.00000000000E+00 0. -1.
<mgrwt>
<rscale>  0 0.91084183E+02</rscale>
<asrwt>0</asrwt>
<pdfrwt beam="2">  1        1 0.63083196E-02 0.91084183E+02</pdfrwt>
<pdfrwt beam="1">  1       -1 0.77818981E-02 0.91084183E+02</pdfrwt>
<totfact> 0.91267129E+04</totfact>
</mgrwt>
</event>
<event>
 7    1  0.3301067E-009  0.9144438E+02  0.7818608E-02  0.1299391E+00
          1   -1    0    0  501    0  0.00000000000E+00  0.00000000000E+00  0.12641359921E+03  0.12641359931E+03  0.50400000000E-02 0. -1.
         -1   -1    0    0    0  501 -0.00000000000E+00 -0.00000000000E+00 -0.16537132410E+02  0.16537133178E+02  0.50400000000E-02 0.  1.
         23    2    1    2    0    0 -0.17763568394E-14  0.00000000000E+00  0.10987646680E+03  0.14295073249E+03  0.91444376332E+02 0.  0.
    9000005    2    3    3    0    0  0.15819353343E+02 -0.27954413233E+02  0.42542638392E+01  0.32552585233E+02  0.31417964832E+01 0.  0.
         22    1    3    3    0    0 -0.15819353343E+02  0.27954413233E+02  0.10562220296E+03  0.11039814726E+03  0.00000000000E+00 0. -1.
         22    1    4    4    0    0  0.40739188385E+01 -0.52003574574E+01  0.16831161381E+01  0.68171410666E+01  0.00000000000E+00 0. -1.
         22    1    4    4    0    0  0.11745434505E+02 -0.22754055775E+02  0.25711477011E+01  0.25735444166E+02  0.00000000000E+00 0. -1.
<mgrwt>
<rscale>  0 0.91444376E+02</rscale>
<asrwt>0</asrwt>
<pdfrwt beam="1">  1        1 0.19448245E-01 0.91444376E+02</pdfrwt>
<pdfrwt beam="2">  1       -1 0.25441744E-02 0.91444376E+02</pdfrwt>
<totfact> 0.10786631E+05</totfact>
</mgrwt>
</event>
<event>
 7    1  0.3301067E-009  0.9221338E+02  0.7818608E-02  0.1297578E+00
         -1   -1    0    0    0  501 -0.00000000000E+00  0.00000000000E+00  0.61865217906E+02  0.61865218111E+02  0.50400000000E-02 0.  1.
          1   -1    0    0  501    0  0.00000000000E+00 -0.00000000000E+00 -0.34362230409E+02  0.34362230779E+02  0.50400000000E-02 0. -1.
         23    2    1    2    0    0  0.00000000000E+00  0.00000000000E+00  0.27502987497E+02  0.96227448890E+02  0.92213380800E+02 0.  0.
    9000005    2    3    3    0    0  0.91465879623E+01  0.42657479219E+02  0.26475872098E+02  0.52588297080E+02  0.12697896745E+02 0.  0.
         22    1    3    3    0    0 -0.91465879623E+01 -0.42657479219E+02  0.10271153982E+01  0.43639151810E+02  0.00000000000E+00 0. -1.
         22    1    4    4    0    0  0.94492758136E+01  0.43219375945E+02  0.24628208647E+02  0.50633506018E+02  0.00000000000E+00 0. -1.
         22    1    4    4    0    0 -0.30268785129E+00 -0.56189672650E+00  0.18476634513E+01  0.19547910620E+01  0.00000000000E+00 0. -1.
<mgrwt>
<rscale>  0 0.92213381E+02</rscale>
<asrwt>0</asrwt>
<pdfrwt beam="2">  1        1 0.52864971E-02 0.92213381E+02</pdfrwt>
<pdfrwt beam="1">  1       -1 0.95177257E-02 0.92213381E+02</pdfrwt>
<totfact> 0.85758222E+04</totfact>
</mgrwt>
</event>
<event>
 7    1  0.3301067E-009  0.1007080E+03  0.7818608E-02  0.1278814E+00
          1   -1    0    0  501    0  0.00000000000E+00  0.00000000000E+00  0.24107591200E+03  0.24107591206E+03  0.50400000000E-02 0. -1.
         -1   -1    0    0    0  501 -0.00000000000E+00 -0.00000000000E+00 -0.10517529758E+02  0.10517530966E+02  0.50400000000E-02 0.  1.
         23    2    1    2    0    0  0.00000000000E+00  0.00000000000E+00  0.23055838224E+03  0.25159344302E+03  0.10070795871E+03 0.  0.
    9000005    2    3    3    0    0 -0.22687030269E+02 -0.43523404694E+02  0.10010245578E+03  0.11221002633E+03  0.12712208993E+02 0.  0.
         22    1    3    3    0    0  0.22687030269E+02  0.43523404694E+02  0.13045592647E+03  0.13938341669E+03  0.00000000000E+00 0. -1.
         22    1    4    4    0    0 -0.53908363683E-01 -0.20329090941E+01  0.12567222113E+02  0.12730699004E+02  0.00000000000E+00 0. -1.
         22    1    4    4    0    0 -0.22633121905E+02 -0.41490495600E+02  0.87535233664E+02  0.99479327325E+02  0.00000000000E+00 0. -1.
<mgrwt>
<rscale>  0 0.10070796E+03</rscale>
<asrwt>0</asrwt>
<pdfrwt beam="1">  1        1 0.37088597E-01 0.10070796E+03</pdfrwt>
<pdfrwt beam="2">  1       -1 0.16180818E-02 0.10070796E+03</pdfrwt>
<totfact> 0.93991005E+04</totfact>
</mgrwt>
</event>
<event>
 7    1  0.3301067E-009  0.8714317E+02  0.7818608E-02  0.1309921E+00
         -1   -1    0    0    0  501 -0.00000000000E+00  0.00000000000E+00  0.16238605783E+02  0.16238606565E+02  0.50400000000E-02 0. -1.
          1   -1    0    0  501    0  0.00000000000E+00 -0.00000000000E+00 -0.11691169404E+03  0.11691169415E+03  0.50400000000E-02 0.  1.
         23    2    1    2    0    0  0.00000000000E+00  0.00000000000E+00 -0.10067308826E+03  0.13315030072E+03  0.87143168873E+02 0.  0.
    9000005    2    3    3    0    0 -0.13616947812E+02  0.29169967231E+02 -0.77865131236E+01  0.34843515110E+02  0.10822777030E+02 0.  0.
         22    1    3    3    0    0  0.13616947812E+02 -0.29169967231E+02 -0.92886575136E+02  0.98306785607E+02  0.00000000000E+00 0.  1.
         22    1    4    4    0    0  0.95209576211E+00  0.33458851030E+01  0.14777879887E+01  0.37795887081E+01  0.00000000000E+00 0.  1.
         22    1    4    4    0    0 -0.14569043574E+02  0.25824082128E+02 -0.92643011122E+01  0.31063926402E+02  0.00000000000E+00 0.  1.
<mgrwt>
<rscale>  0 0.87143169E+02</rscale>
<asrwt>0</asrwt>
<pdfrwt beam="2">  1        1 0.17986414E-01 0.87143169E+02</pdfrwt>
<pdfrwt beam="1">  1       -1 0.24982472E-02 0.87143169E+02</pdfrwt>
<totfact> 0.12121420E+05</totfact>
</mgrwt>
</event>
<event>
 7    1  0.3301067E-009  0.9125958E+02  0.7818608E-02  0.1299830E+00
          1   -1    0    0  501    0  0.00000000000E+00  0.00000000000E+00  0.30504767840E+02  0.30504768257E+02  0.50400000000E-02 0. -1.
         -1   -1    0    0    0  501 -0.00000000000E+00 -0.00000000000E+00 -0.68254169644E+02  0.68254169830E+02  0.50400000000E-02 0.  1.
         23    2    1    2    0    0 -0.35527136788E-14 -0.23592239273E-15 -0.37749401804E+02  0.98758938086E+02  0.91259577664E+02 0.  0.
    9000005    2    3    3    0    0  0.29955180174E+02 -0.51986879934E-01  0.15902033288E+02  0.37311464508E+02  0.15554909166E+02 0.  0.
         22    1    3    3    0    0 -0.29955180174E+02  0.51986879934E-01 -0.53651435091E+02  0.61447473579E+02  0.00000000000E+00 0.  1.
         22    1    4    4    0    0  0.93010341779E+01  0.42634186038E+01  0.12143373053E+02  0.15879152498E+02  0.00000000000E+00 0.  1.
         22    1    4    4    0    0  0.20654145996E+02 -0.43154054837E+01  0.37586602348E+01  0.21432312009E+02  0.00000000000E+00 0.  1.
<mgrwt>
<rscale>  0 0.91259578E+02</rscale>
<asrwt>0</asrwt>
<pdfrwt beam="1">  1        1 0.46930413E-02 0.91259578E+02</pdfrwt>
<pdfrwt beam="2">  1       -1 0.10500641E-01 0.91259578E+02</pdfrwt>
<totfact> 0.86691550E+04</totfact>
</mgrwt>
</event>
<event>
 7    1  0.3301067E-009  0.9510937E+02  0.7818608E-02  0.1290930E+00
         -1   -1    0    0    0  501 -0.00000000000E+00  0.00000000000E+00  0.36080163807E+02  0.36080164159E+02  0.50400000000E-02 0.  1.
          1   -1    0    0  501    0  0.00000000000E+00 -0.00000000000E+00 -0.62678427731E+02  0.62678427934E+02  0.50400000000E-02 0. -1.
         23    2    1    2    0    0  0.00000000000E+00  0.35527136788E-14 -0.26598263925E+02  0.98758592093E+02  0.95109367931E+02 0.  0.
    9000005    2    3    3    0    0 -0.22532502334E+02 -0.17921886833E+02 -0.52525364942E+02  0.60014273073E+02  0.37271062611E+01 0.  0.
         22    1    3    3    0    0  0.22532502334E+02  0.17921886833E+02  0.25927101018E+02  0.38744319019E+02  0.00000000000E+00 0.  1.
         22    1    4    4    0    0 -0.43013978506E+01 -0.17230767697E+01 -0.89548465618E+01  0.10082672958E+02  0.00000000000E+00 0.  1.
         22    1    4    4    0    0 -0.18231104484E+02 -0.16198810064E+02 -0.43570518380E+02  0.49931600116E+02  0.00000000000E+00 0.  1.
<mgrwt>
<rscale>  0 0.95109368E+02</rscale>
<asrwt>0</asrwt>
<pdfrwt beam="2">  1        1 0.96428351E-02 0.95109368E+02</pdfrwt>
<pdfrwt beam="1">  1       -1 0.55507945E-02 0.95109368E+02</pdfrwt>
<totfact> 0.86265744E+04</totfact>
</mgrwt>
</event>
<event>
 7    1  0.3301067E-009  0.9058865E+02  0.7818608E-02  0.1301432E+00
         -1   -1    0    0    0  501 -0.00000000000E+00  0.00000000000E+00  0.15704913979E+02  0.15704914788E+02  0.50400000000E-02 0.  1.
          1   -1    0    0  501    0  0.00000000000E+00 -0.00000000000E+00 -0.13063272635E+03  0.13063272645E+03  0.50400000000E-02 0. -1.
         23    2    1    2    0    0  0.00000000000E+00  0.17763568394E-14 -0.11492781238E+03  0.14633764124E+03  0.90588648219E+02 0.  0.
    9000005    2    3    3    0    0 -0.23697656395E+02  0.14921317420E+02 -0.11424047603E+03  0.11832519644E+03  0.12874048230E+02 0.  0.
         22    1    3    3    0    0  0.23697656395E+02 -0.14921317420E+02 -0.68733634558E+00  0.28012444795E+02  0.00000000000E+00 0.  1.
         22    1    4    4    0    0 -0.10058549375E+02 -0.61352639284E+00 -0.33743517103E+02  0.35216129495E+02  0.00000000000E+00 0.  1.
         22    1    4    4    0    0 -0.13639107020E+02  0.15534843813E+02 -0.80496958927E+02  0.83109066949E+02  0.00000000000E+00 0.  1.
<mgrwt>
<rscale>  0 0.90588648E+02</rscale>
<asrwt>0</asrwt>
<pdfrwt beam="2">  1        1 0.20097342E-01 0.90588648E+02</pdfrwt>
<pdfrwt beam="1">  1       -1 0.24161408E-02 0.90588648E+02</pdfrwt>
<totfact> 0.11129238E+05</totfact>
</mgrwt>
</event>
<event>
 7    1  0.3301067E-009  0.9210930E+02  0.7818608E-02  0.1297823E+00
         -1   -1    0    0    0  501 -0.00000000000E+00  0.00000000000E+00  0.92693165610E+01  0.92693179312E+01  0.50400000000E-02 0.  1.
          1   -1    0    0  501    0  0.00000000000E+00 -0.00000000000E+00 -0.22882278677E+03  0.22882278682E+03  0.50400000000E-02 0. -1.
         23    2    1    2    0    0  0.00000000000E+00  0.00000000000E+00 -0.21955347021E+03  0.23809210476E+03  0.92109304995E+02 0.  0.
    9000005    2    3    3    0    0  0.33912693719E+02  0.18726330355E+02 -0.17073254015E+03  0.17576851809E+03  0.15627713825E+02 0.  0.
         22    1    3    3    0    0 -0.33912693719E+02 -0.18726330355E+02 -0.48820930054E+02  0.62323586668E+02  0.00000000000E+00 0.  1.
         22    1    4    4    0    0  0.29408754096E+02  0.21533398130E+02 -0.14734558252E+03  0.15178696499E+03  0.00000000000E+00 0.  1.
         22    1    4    4    0    0  0.45039396234E+01 -0.28070677756E+01 -0.23386957637E+02  0.23981553101E+02  0.00000000000E+00 0.  1.
<mgrwt>
<rscale>  0 0.92109305E+02</rscale>
<asrwt>0</asrwt>
<pdfrwt beam="2">  1        1 0.35203501E-01 0.92109305E+02</pdfrwt>
<pdfrwt beam="1">  1       -1 0.14260490E-02 0.92109305E+02</pdfrwt>
<totfact> 0.11828438E+05</totfact>
</mgrwt>
</event>
<event>
 7    1  0.3301067E-009  0.9069788E+02  0.7818608E-02  0.1301170E+00
          1   -1    0    0  501    0  0.00000000000E+00  0.00000000000E+00  0.27621595331E+01  0.27621641313E+01  0.50400000000E-02 0. -1.
         -1   -1    0    0    0  501 -0.00000000000E+00 -0.00000000000E+00 -0.74453504665E+03  0.74453504667E+03  0.50400000000E-02 0.  1.
         23    2    1    2    0    0  0.00000000000E+00  0.00000000000E+00 -0.74177288712E+03  0.74729721080E+03  0.90697878725E+02 0.  0.
    9000005    2    3    3    0    0 -0.32132906241E+02 -0.95105416462E+01 -0.62243952118E+03  0.62334792160E+03  0.29495381750E+01 0.  0.
         22    1    3    3    0    0  0.32132906241E+02  0.95105416462E+01 -0.11933336594E+03  0.12394928919E+03  0.00000000000E+00 0. -1.
         22    1    4    4    0    0 -0.13709834104E+02 -0.41750461497E+01 -0.29349597320E+03  0.29384566841E+03  0.00000000000E+00 0. -1.
         22    1    4    4    0    0 -0.18423072138E+02 -0.53354954964E+01 -0.32894354798E+03  0.32950225319E+03  0.00000000000E+00 0. -1.
<mgrwt>
<rscale>  0 0.90697879E+02</rscale>
<asrwt>0</asrwt>
<pdfrwt beam="1">  1        1 0.42494857E-03 0.90697879E+02</pdfrwt>
<pdfrwt beam="2">  1       -1 0.11454369E+00 0.90697879E+02</pdfrwt>
<totfact> 0.35400928E+04</totfact>
</mgrwt>
</event>
<event>
 7    1  0.3301067E-009  0.9792835E+02  0.7818608E-02  0.1284714E+00
         -1   -1    0    0    0  501 -0.00000000000E+00  0.00000000000E+00  0.10576168308E+02  0.10576169509E+02  0.50400000000E-02 0.  1.
          1   -1    0    0  501    0  0.00000000000E+00 -0.00000000000E+00 -0.22668796621E+03  0.22668796626E+03  0.50400000000E-02 0. -1.
         23    2    1    2    0    0  0.00000000000E+00  0.00000000000E+00 -0.21611179790E+03  0.23726413577E+03  0.97928345909E+02 0.  0.
    9000005    2    3    3    0    0  0.18976134439E+02 -0.26167206709E+02 -0.21718155236E+02  0.40201443481E+02  0.99830559423E+01 0.  0.
         22    1    3    3    0    0 -0.18976134439E+02  0.26167206709E+02 -0.19439364266E+03  0.19706269229E+03  0.00000000000E+00 0. -1.
         22    1    4    4    0    0  0.12189858640E+02 -0.17339349691E+02 -0.82941978593E+01  0.22760479334E+02  0.00000000000E+00 0. -1.
         22    1    4    4    0    0  0.67862757985E+01 -0.88278570175E+01 -0.13423957377E+02  0.17440964147E+02  0.00000000000E+00 0. -1.
<mgrwt>
<rscale>  0 0.97928346E+02</rscale>
<asrwt>0</asrwt>
<pdfrwt beam="2">  1        1 0.34875068E-01 0.97928346E+02</pdfrwt>
<pdfrwt beam="1">  1       -1 0.16271031E-02 0.97928346E+02</pdfrwt>
<totfact> 0.10013402E+05</totfact>
</mgrwt>
</event>
<event>
 7    1  0.3301067E-009  0.9109051E+02  0.7818608E-02  0.1300232E+00
          1   -1    0    0  501    0  0.00000000000E+00  0.00000000000E+00  0.66279945416E+01  0.66279964578E+01  0.50400000000E-02 0. -1.
         -1   -1    0    0    0  501 -0.00000000000E+00 -0.00000000000E+00 -0.31297096620E+03  0.31297096624E+03  0.50400000000E-02 0.  1.
         23    2    1    2    0    0  0.00000000000E+00  0.22204460493E-15 -0.30634297166E+03  0.31959896270E+03  0.91090508141E+02 0.  0.
    9000005    2    3    3    0    0 -0.44501889131E+02 -0.11841776921E+01 -0.12156186368E+03  0.12953087416E+03  0.43749568662E+01 0.  0.
         22    1    3    3    0    0  0.44501889131E+02  0.11841776921E+01 -0.18478110798E+03  0.19006808854E+03  0.00000000000E+00 0. -1.
         22    1    4    4    0    0 -0.26807357729E+01  0.63636974433E+00 -0.55189737164E+01  0.61684991382E+01  0.00000000000E+00 0.  1.
         22    1    4    4    0    0 -0.41821153358E+02 -0.18205474365E+01 -0.11604288996E+03  0.12336237502E+03  0.00000000000E+00 0.  1.
<mgrwt>
<rscale>  0 0.91090508E+02</rscale>
<asrwt>0</asrwt>
<pdfrwt beam="1">  1        1 0.10196919E-02 0.91090508E+02</pdfrwt>
<pdfrwt beam="2">  1       -1 0.48149368E-01 0.91090508E+02</pdfrwt>
<totfact> 0.59715452E+04</totfact>
</mgrwt>
</event>
<event>
 7    1  0.3301067E-009  0.9159691E+02  0.7818608E-02  0.1299030E+00
         -1   -1    0    0    0  501 -0.00000000000E+00  0.00000000000E+00  0.40164886195E+02  0.40164886511E+02  0.50400000000E-02 0.  1.
          1   -1    0    0  501    0  0.00000000000E+00 -0.00000000000E+00 -0.52222188790E+02  0.52222189033E+02  0.50400000000E-02 0. -1.
         23    2    1    2    0    0  0.35527136788E-14  0.00000000000E+00 -0.12057302596E+02  0.92387075544E+02  0.91596905962E+02 0.  0.
    9000005    2    3    3    0    0  0.21599508358E+02 -0.39234584171E+02 -0.35963995237E+01  0.46807713579E+02  0.13120084015E+02 0.  0.
         22    1    3    3    0    0 -0.21599508358E+02  0.39234584171E+02 -0.84609030720E+01  0.45579361965E+02  0.00000000000E+00 0. -1.
         22    1    4    4    0    0  0.34001466051E+01 -0.85095580374E+01  0.44725064492E+01  0.10196905848E+02  0.00000000000E+00 0.  1.
         22    1    4    4    0    0  0.18199361753E+02 -0.30725026134E+02 -0.80689059729E+01  0.36610807731E+02  0.00000000000E+00 0.  1.
<mgrwt>
<rscale>  0 0.91596906E+02</rscale>
<asrwt>0</asrwt>
<pdfrwt beam="2">  1        1 0.80341829E-02 0.91596906E+02</pdfrwt>
<pdfrwt beam="1">  1       -1 0.61792133E-02 0.91596906E+02</pdfrwt>
<totfact> 0.93173767E+04</totfact>
</mgrwt>
</event>
<event>
 7    1  0.3301067E-009  0.9116143E+02  0.7818608E-02  0.1300063E+00
          1   -1    0    0  501    0  0.00000000000E+00  0.00000000000E+00  0.44038593215E+02  0.44038593504E+02  0.50400000000E-02 0. -1.
         -1   -1    0    0    0  501 -0.00000000000E+00 -0.00000000000E+00 -0.47176839354E+02  0.47176839623E+02  0.50400000000E-02 0.  1.
         23    2    1    2    0    0  0.00000000000E+00  0.71054273576E-14 -0.31382461388E+01  0.91215433127E+02  0.91161431821E+02 0.  0.
    9000005    2    3    3    0    0 -0.59605545109E+01  0.33191788992E+02 -0.31481640968E+02  0.47163519468E+02  0.98020805940E+01 0.  0.
         22    1    3    3    0    0  0.59605545109E+01 -0.33191788992E+02  0.28343394830E+02  0.44051913659E+02  0.00000000000E+00 0. -1.
         22    1    4    4    0    0  0.33667803250E+00  0.18753837829E+02 -0.21424861918E+02  0.28475331317E+02  0.00000000000E+00 0.  1.
         22    1    4    4    0    0 -0.62972325434E+01  0.14437951163E+02 -0.10056779050E+02  0.18688188150E+02  0.00000000000E+00 0.  1.
<mgrwt>
<rscale>  0 0.91161432E+02</rscale>
<asrwt>0</asrwt>
<pdfrwt beam="1">  1        1 0.67751683E-02 0.91161432E+02</pdfrwt>
<pdfrwt beam="2">  1       -1 0.72579753E-02 0.91161432E+02</pdfrwt>
<totfact> 0.92035973E+04</totfact>
</mgrwt>
</event>
<event>
 7    1  0.3301067E-009  0.9084833E+02  0.7818608E-02  0.1300810E+00
          1   -1    0    0  501    0  0.00000000000E+00  0.00000000000E+00  0.24566641922E+03  0.24566641927E+03  0.50400000000E-02 0. -1.
         -1   -1    0    0    0  501 -0.00000000000E+00 -0.00000000000E+00 -0.83990084913E+01  0.83990100035E+01  0.50400000000E-02 0.  1.
         23    2    1    2    0    0  0.00000000000E+00  0.00000000000E+00  0.23726741073E+03  0.25406542927E+03  0.90848325019E+02 0.  0.
    9000005    2    3    3    0    0 -0.19614140716E+02 -0.34592006078E+02  0.17788276568E+03  0.18259615289E+03  0.10851512365E+02 0.  0.
         22    1    3    3    0    0  0.19614140716E+02  0.34592006078E+02  0.59384645041E+02  0.71469276386E+02  0.00000000000E+00 0.  1.
         22    1    4    4    0    0 -0.16956654686E+01 -0.42422139804E+01  0.92141252120E+01  0.10284540061E+02  0.00000000000E+00 0. -1.
         22    1    4    4    0    0 -0.17918475248E+02 -0.30349792097E+02  0.16866864047E+03  0.17231161283E+03  0.00000000000E+00 0. -1.
<mgrwt>
<rscale>  0 0.90848325E+02</rscale>
<asrwt>0</asrwt>
<pdfrwt beam="1">  1        1 0.37794834E-01 0.90848325E+02</pdfrwt>
<pdfrwt beam="2">  1       -1 0.12921553E-02 0.90848325E+02</pdfrwt>
<totfact> 0.12444363E+05</totfact>
</mgrwt>
</event>
<event>
 7    1  0.3301067E-009  0.9076627E+02  0.7818608E-02  0.1301007E+00
          1   -1    0    0  501    0  0.00000000000E+00  0.00000000000E+00  0.48094073038E+03  0.48094073041E+03  0.50400000000E-02 0. -1.
         -1   -1    0    0    0  501 -0.00000000000E+00 -0.00000000000E+00 -0.42824987247E+01  0.42825016905E+01  0.50400000000E-02 0.  1.
         23    2    1    2    0    0  0.00000000000E+00  0.00000000000E+00  0.47665823166E+03  0.48522323210E+03  0.90766266651E+02 0.  0.
    9000005    2    3    3    0    0  0.10051321088E+02 -0.33299799753E+01  0.47421776539E+03  0.47435705992E+03  0.44736407808E+01 0.  0.
         22    1    3    3    0    0 -0.10051321088E+02  0.33299799753E+01  0.24404662683E+01  0.10866172180E+02  0.00000000000E+00 0.  1.
         22    1    4    4    0    0  0.72993790296E+01 -0.22740518941E+01  0.41045947008E+03  0.41053066734E+03  0.00000000000E+00 0.  1.
         22    1    4    4    0    0  0.27519420581E+01 -0.10559280813E+01  0.63758295305E+02  0.63826392577E+02  0.00000000000E+00 0.  1.
<mgrwt>
<rscale>  0 0.90766267E+02</rscale>
<asrwt>0</asrwt>
<pdfrwt beam="1">  1        1 0.73990806E-01 0.90766267E+02</pdfrwt>
<pdfrwt beam="2">  1       -1 0.65884686E-03 0.90766267E+02</pdfrwt>
<totfact> 0.14026846E+05</totfact>
</mgrwt>
</event>
<event>
 7    1  0.3301067E-009  0.8989204E+02  0.7818608E-02  0.1303113E+00
         -1   -1    0    0    0  501 -0.00000000000E+00  0.00000000000E+00  0.75293928250E+01  0.75293945118E+01  0.50400000000E-02 0.  1.
          1   -1    0    0  501    0  0.00000000000E+00 -0.00000000000E+00 -0.26830110738E+03  0.26830110743E+03  0.50400000000E-02 0. -1.
         23    2    1    2    0    0 -0.88817841970E-15 -0.71054273576E-14 -0.26077171455E+03  0.27583050194E+03  0.89892039069E+02 0.  0.
    9000005    2    3    3    0    0  0.46739709404E+01  0.38107676626E+02 -0.20206465397E+03  0.20568379864E+03  0.12882598499E+01 0.  0.
         22    1    3    3    0    0 -0.46739709404E+01 -0.38107676626E+02 -0.58707060579E+02  0.70146703302E+02  0.00000000000E+00 0.  1.
         22    1    4    4    0    0  0.39343377876E+01  0.34974454310E+02 -0.18540799700E+03  0.18871888305E+03  0.00000000000E+00 0. -1.
         22    1    4    4    0    0  0.73963315277E+00  0.31332223169E+01 -0.16656656971E+02  0.16964915583E+02  0.00000000000E+00 0. -1.
<mgrwt>
<rscale>  0 0.89892039E+02</rscale>
<asrwt>0</asrwt>
<pdfrwt beam="2">  1        1 0.41277086E-01 0.89892039E+02</pdfrwt>
<pdfrwt beam="1">  1       -1 0.11583685E-02 0.89892039E+02</pdfrwt>
<totfact> 0.13022140E+05</totfact>
</mgrwt>
</event>
<event>
 7    1  0.3301067E-009  0.9889509E+02  0.7818608E-02  0.1282637E+00
         -1   -1    0    0    0  501 -0.00000000000E+00  0.00000000000E+00  0.10174837296E+03  0.10174837308E+03  0.50400000000E-02 0.  1.
          1   -1    0    0  501    0  0.00000000000E+00 -0.00000000000E+00 -0.24030455375E+02  0.24030455903E+02  0.50400000000E-02 0. -1.
         23    2    1    2    0    0  0.17763568394E-14  0.00000000000E+00  0.77717917585E+02  0.12577882899E+03  0.98895091424E+02 0.  0.
    9000005    2    3    3    0    0  0.96587870631E+01  0.41829499624E+02  0.78385546778E+01  0.43765875337E+02  0.33180865341E+01 0.  0.
         22    1    3    3    0    0 -0.96587870631E+01 -0.41829499624E+02  0.69879362907E+02  0.82012953651E+02  0.00000000000E+00 0.  1.
         22    1    4    4    0    0  0.55286015275E+01  0.24695649852E+02  0.29661896265E+01  0.25480165568E+02  0.00000000000E+00 0. -1.
         22    1    4    4    0    0  0.41301855356E+01  0.17133849772E+02  0.48723650513E+01  0.18285709769E+02  0.00000000000E+00 0. -1.
<mgrwt>
<rscale>  0 0.98895091E+02</rscale>
<asrwt>0</asrwt>
<pdfrwt beam="2">  1        1 0.36969932E-02 0.98895091E+02</pdfrwt>
<pdfrwt beam="1">  1       -1 0.15653596E-01 0.98895091E+02</pdfrwt>
<totfact> 0.65761279E+04</totfact>
</mgrwt>
</event>
<event>
 7    1  0.3301067E-009  0.9262635E+02  0.7818608E-02  0.1296613E+00
         -1   -1    0    0    0  501 -0.00000000000E+00  0.00000000000E+00  0.17330018066E+02  0.17330018799E+02  0.50400000000E-02 0.  1.
          1   -1    0    0  501    0  0.00000000000E+00 -0.00000000000E+00 -0.12376848626E+03  0.12376848636E+03  0.50400000000E-02 0. -1.
         23    2    1    2    0    0  0.11102230246E-15  0.00000000000E+00 -0.10643846819E+03  0.14109850516E+03  0.92626349638E+02 0.  0.
    9000005    2    3    3    0    0  0.78617812764E+00  0.36864019470E+02 -0.94058793289E+02  0.10220338518E+03  0.15456433601E+02 0.  0.
         22    1    3    3    0    0 -0.78617812764E+00 -0.36864019470E+02 -0.12379674902E+02  0.38895119979E+02  0.00000000000E+00 0.  1.
         22    1    4    4    0    0  0.28773708398E+01  0.28254633120E+02 -0.84615540009E+02  0.89254653474E+02  0.00000000000E+00 0.  1.
         22    1    4    4    0    0 -0.20911927122E+01  0.86093863497E+01 -0.94432532794E+01  0.12948731705E+02  0.00000000000E+00 0.  1.
<mgrwt>
<rscale>  0 0.92626350E+02</rscale>
<asrwt>0</asrwt>
<pdfrwt beam="2">  1        1 0.19041305E-01 0.92626350E+02</pdfrwt>
<pdfrwt beam="1">  1       -1 0.26661568E-02 0.92626350E+02</pdfrwt>
<totfact> 0.10378164E+05</totfact>
</mgrwt>
</event>
<event>
 7    1  0.3301067E-009  0.9138740E+02  0.7818608E-02  0.1299526E+00
          1   -1    0    0  501    0  0.00000000000E+00  0.00000000000E+00  0.11963961921E+02  0.11963962983E+02  0.50400000000E-02 0. -1.
         -1   -1    0    0    0  501 -0.00000000000E+00 -0.00000000000E+00 -0.17451695079E+03  0.17451695087E+03  0.50400000000E-02 0.  1.
         23    2    1    2    0    0  0.17763568394E-14  0.17763568394E-14 -0.16255298887E+03  0.18648091385E+03  0.91387400875E+02 0.  0.
    9000005    2    3    3    0    0 -0.14131801596E+02 -0.10738428350E+02 -0.16704122979E+03  0.16817337534E+03  0.80305704398E+01 0.  0.
         22    1    3    3    0    0  0.14131801596E+02  0.10738428350E+02  0.44882409220E+01  0.18307538511E+02  0.00000000000E+00 0. -1.
         22    1    4    4    0    0 -0.11045864160E+02 -0.97646917133E+01 -0.10292667735E+03  0.10397721495E+03  0.00000000000E+00 0.  1.
         22    1    4    4    0    0 -0.30859374359E+01 -0.97373663654E+00 -0.64114552444E+02  0.64196160383E+02  0.00000000000E+00 0.  1.
<mgrwt>
<rscale>  0 0.91387401E+02</rscale>
<asrwt>0</asrwt>
<pdfrwt beam="1">  1        1 0.18406097E-02 0.91387401E+02</pdfrwt>
<pdfrwt beam="2">  1       -1 0.26848760E-01 0.91387401E+02</pdfrwt>
<totfact> 0.71620125E+04</totfact>
</mgrwt>
</event>
<event>
 7    1  0.3301067E-009  0.9152584E+02  0.7818608E-02  0.1299198E+00
          1   -1    0    0  501    0  0.00000000000E+00  0.00000000000E+00  0.10295149038E+04  0.10295149038E+04  0.50400000000E-02 0. -1.
         -1   -1    0    0    0  501 -0.00000000000E+00 -0.00000000000E+00 -0.20342021127E+01  0.20342083563E+01  0.50400000000E-02 0.  1.
         23    2    1    2    0    0  0.00000000000E+00  0.17763568394E-14  0.10274807017E+04  0.10315491122E+04  0.91525835021E+02 0.  0.
    9000005    2    3    3    0    0 -0.35569206779E+02 -0.13945971463E+02  0.79658192750E+03  0.79751086206E+03  0.45988367745E+01 0.  0.
         22    1    3    3    0    0  0.35569206779E+02  0.13945971463E+02  0.23089877421E+03  0.23403825013E+03  0.00000000000E+00 0.  1.
         22    1    4    4    0    0 -0.63487339994E+01 -0.69473964423E+00  0.13910371679E+03  0.13925025354E+03  0.00000000000E+00 0.  1.
         22    1    4    4    0    0 -0.29220472780E+02 -0.13251231818E+02  0.65747821071E+03  0.65826060852E+03  0.00000000000E+00 0.  1.
<mgrwt>
<rscale>  0 0.91525835E+02</rscale>
<asrwt>0</asrwt>
<pdfrwt beam="1">  1        1 0.15838708E+00 0.91525835E+02</pdfrwt>
<pdfrwt beam="2">  1       -1 0.31295432E-03 0.91525835E+02</pdfrwt>
<totfact> 0.13355556E+05</totfact>
</mgrwt>
</event>
<event>
 7    1  0.3301067E-009  0.7915867E+02  0.7818608E-02  0.1331456E+00
         -1   -1    0    0    0  501 -0.00000000000E+00  0.00000000000E+00  0.64467822938E+02  0.64467823135E+02  0.50400000000E-02 0.  1.
          1   -1    0    0  501    0  0.00000000000E+00 -0.00000000000E+00 -0.24299311830E+02  0.24299312353E+02  0.50400000000E-02 0. -1.
         23    2    1    2    0    0  0.00000000000E+00  0.00000000000E+00  0.40168511108E+02  0.88767135488E+02  0.79158670139E+02 0.  0.
    9000005    2    3    3    0    0  0.24626347146E+02 -0.90537206348E+01  0.53249104118E+02  0.59449414830E+02  0.32154320341E+01 0.  0.
         22    1    3    3    0    0 -0.24626347146E+02  0.90537206348E+01 -0.13080593010E+02  0.29317720658E+02  0.00000000000E+00 0. -1.
         22    1    4    4    0    0  0.14496827002E+02 -0.49328534340E+01  0.34468541705E+02  0.37716990911E+02  0.00000000000E+00 0.  1.
         22    1    4    4    0    0  0.10129520144E+02 -0.41208672008E+01  0.18780562413E+02  0.21732423919E+02  0.00000000000E+00 0.  1.
<mgrwt>
<rscale>  0 0.79158670E+02</rscale>
<asrwt>0</asrwt>
<pdfrwt beam="2">  1        1 0.37383558E-02 0.79158670E+02</pdfrwt>
<pdfrwt beam="1">  1       -1 0.99181264E-02 0.79158670E+02</pdfrwt>
<totfact> 0.12552214E+05</totfact>
</mgrwt>
</event>
<event>
 7    1  0.3301067E-009  0.9314689E+02  0.7818608E-02  0.1295405E+00
         -1   -1    0    0    0  501 -0.00000000000E+00  0.00000000000E+00  0.30937141862E+02  0.30937142272E+02  0.50400000000E-02 0.  1.
          1   -1    0    0  501    0  0.00000000000E+00 -0.00000000000E+00 -0.70112675814E+02  0.70112675995E+02  0.50400000000E-02 0. -1.
         23    2    1    2    0    0  0.88817841970E-15  0.00000000000E+00 -0.39175533953E+02  0.10104981827E+03  0.93146891045E+02 0.  0.
    9000005    2    3    3    0    0  0.48450024369E+01  0.44881416283E+02 -0.12627361267E+02  0.48679778654E+02  0.13132213105E+02 0.  0.
         22    1    3    3    0    0 -0.48450024369E+01 -0.44881416283E+02 -0.26548172686E+02  0.52370039614E+02  0.00000000000E+00 0. -1.
         22    1    4    4    0    0  0.36874593570E+01  0.16140275060E+02 -0.10984023732E+02  0.19868432572E+02  0.00000000000E+00 0.  1.
         22    1    4    4    0    0  0.11575430799E+01  0.28741141223E+02 -0.16433375348E+01  0.28811346082E+02  0.00000000000E+00 0.  1.
<mgrwt>
<rscale>  0 0.93146891E+02</rscale>
<asrwt>0</asrwt>
<pdfrwt beam="2">  1        1 0.10786566E-01 0.93146891E+02</pdfrwt>
<pdfrwt beam="1">  1       -1 0.47595603E-02 0.93146891E+02</pdfrwt>
<totfact> 0.93028094E+04</totfact>
</mgrwt>
</event>
<event>
 7    1  0.3301067E-009  0.8765022E+02  0.7818608E-02  0.1308644E+00
          1   -1    0    0  501    0  0.00000000000E+00  0.00000000000E+00  0.24796246128E+04  0.24796246128E+04  0.50400000000E-02 0. -1.
         -1   -1    0    0    0  501 -0.00000000000E+00 -0.00000000000E+00 -0.77456078615E+00  0.77457718340E+00  0.50400000000E-02 0.  1.
         23    2    1    2    0    0 -0.33306690739E-15  0.00000000000E+00  0.24788500520E+04  0.24803991900E+04  0.87650221487E+02 0.  0.
    9000005    2    3    3    0    0 -0.29562149710E+00 -0.11984748311E+02  0.24306050431E+04  0.24306869936E+04  0.15958187596E+02 0.  0.
         22    1    3    3    0    0  0.29562149710E+00  0.11984748311E+02  0.48245008895E+02  0.49712196365E+02  0.00000000000E+00 0.  1.
         22    1    4    4    0    0 -0.51665933040E+01 -0.13778803010E+02  0.17158282109E+04  0.17158913131E+04  0.00000000000E+00 0. -1.
         22    1    4    4    0    0  0.48709718069E+01  0.17940546987E+01  0.71477683226E+03  0.71479568055E+03  0.00000000000E+00 0. -1.
<mgrwt>
<rscale>  0 0.87650221E+02</rscale>
<asrwt>0</asrwt>
<pdfrwt beam="1">  1        1 0.38148489E+00 0.87650221E+02</pdfrwt>
<pdfrwt beam="2">  1       -1 0.11916315E-03 0.87650221E+02</pdfrwt>
<totfact> 0.59212359E+04</totfact>
</mgrwt>
</event>
<event>
 7    1  0.3301067E-009  0.9122007E+02  0.7818608E-02  0.1299924E+00
         -1   -1    0    0    0  501 -0.00000000000E+00  0.00000000000E+00  0.33506940989E+03  0.33506940993E+03  0.50400000000E-02 0.  1.
          1   -1    0    0  501    0  0.00000000000E+00 -0.00000000000E+00 -0.62084892860E+01  0.62084913317E+01  0.50400000000E-02 0. -1.
         23    2    1    2    0    0  0.00000000000E+00  0.00000000000E+00  0.32886092061E+03  0.34127790126E+03  0.91220067900E+02 0.  0.
    9000005    2    3    3    0    0 -0.43031552124E+02 -0.88831254698E+01  0.13129416512E+03  0.13888410869E+03  0.10955065360E+02 0.  0.
         22    1    3    3    0    0  0.43031552124E+02  0.88831254698E+01  0.19756675549E+03  0.20239379257E+03  0.00000000000E+00 0.  1.
         22    1    4    4    0    0 -0.16308715466E+02 -0.52115945381E+01  0.67167907083E+02  0.69315673983E+02  0.00000000000E+00 0.  1.
         22    1    4    4    0    0 -0.26722836658E+02 -0.36715309317E+01  0.64126258034E+02  0.69568434709E+02  0.00000000000E+00 0.  1.
<mgrwt>
<rscale>  0 0.91220068E+02</rscale>
<asrwt>0</asrwt>
<pdfrwt beam="2">  1        1 0.95515217E-03 0.91220068E+02</pdfrwt>
<pdfrwt beam="1">  1       -1 0.51549150E-01 0.91220068E+02</pdfrwt>
<totfact> 0.57814763E+04</totfact>
</mgrwt>
</event>
<event>
 6    1  0.5895713E-009  0.4409967E+03  0.7818608E-02  0.1030441E+00
          1   -1    0    0  501    0  0.00000000000E+00  0.00000000000E+00  0.58359960900E+03  0.58359960903E+03  0.50400000000E-02 0.  1.
         -1   -1    0    0    0  501 -0.00000000000E+00 -0.00000000000E+00 -0.83309741310E+02  0.83309741462E+02  0.50400000000E-02 0. -1.
    9000005    2    1    2    0    0 -0.27785380486E+02  0.10546825429E+03 -0.38936099689E+02  0.11676371165E+03  0.14905182575E+02 0.  0.
         22    1    1    2    0    0  0.27785380486E+02 -0.10546825429E+03  0.53922596738E+03  0.55014563884E+03  0.00000000000E+00 0.  1.
         22    1    3    3    0    0 -0.13214215309E+02  0.26498447351E+02 -0.13372160386E+02  0.32489965707E+02  0.00000000000E+00 0.  1.
         22    1    3    3    0    0 -0.14571165177E+02  0.78969806939E+02 -0.25563939303E+02  0.84273745943E+02  0.00000000000E+00 0.  1.
<mgrwt>
<rscale>  0 0.44099675E+03</rscale>
<asrwt>0</asrwt>
<pdfrwt beam="1">  1        1 0.89784550E-01 0.44099675E+03</pdfrwt>
<pdfrwt beam="2">  1       -1 0.12816884E-01 0.44099675E+03</pdfrwt>
<totfact> 0.15137918E+03</totfact>
</mgrwt>
</event>
<event>
 7    1  0.3301067E-009  0.9128592E+02  0.7818608E-02  0.1299767E+00
         -1   -1    0    0    0  501 -0.00000000000E+00  0.00000000000E+00  0.80005611053E+01  0.80005626928E+01  0.50400000000E-02 0.  1.
          1   -1    0    0  501    0  0.00000000000E+00 -0.00000000000E+00 -0.26039166653E+03  0.26039166658E+03  0.50400000000E-02 0. -1.
         23    2    1    2    0    0  0.00000000000E+00  0.00000000000E+00 -0.25239110543E+03  0.26839222928E+03  0.91285916964E+02 0.  0.
    9000005    2    3    3    0    0 -0.42200134536E+02  0.52111271080E+01 -0.79905760290E+02  0.90743132773E+02  0.64326058024E+01 0.  0.
         22    1    3    3    0    0  0.42200134536E+02 -0.52111271080E+01 -0.17248534514E+03  0.17764909650E+03  0.00000000000E+00 0. -1.
         22    1    4    4    0    0 -0.29326100823E+02  0.55481324433E+01 -0.50866700155E+02  0.58976462659E+02  0.00000000000E+00 0. -1.
         22    1    4    4    0    0 -0.12874033712E+02 -0.33700533537E+00 -0.29039060135E+02  0.31766670114E+02  0.00000000000E+00 0. -1.
<mgrwt>
<rscale>  0 0.91285917E+02</rscale>
<asrwt>0</asrwt>
<pdfrwt beam="2">  1        1 0.40060250E-01 0.91285917E+02</pdfrwt>
<pdfrwt beam="1">  1       -1 0.12308559E-02 0.91285917E+02</pdfrwt>
<totfact> 0.12425889E+05</totfact>
</mgrwt>
</event>
<event>
 7    1  0.3301067E-009  0.9087020E+02  0.7818608E-02  0.1300758E+00
         -1   -1    0    0    0  501 -0.00000000000E+00  0.00000000000E+00  0.14652379121E+01  0.14652465802E+01  0.50400000000E-02 0.  1.
          1   -1    0    0  501    0  0.00000000000E+00 -0.00000000000E+00 -0.14088783982E+04  0.14088783982E+04  0.50400000000E-02 0. -1.
         23    2    1    2    0    0  0.00000000000E+00  0.00000000000E+00 -0.14074131603E+04  0.14103436448E+04  0.90870196686E+02 0.  0.
    9000005    2    3    3    0    0  0.28191771653E+02 -0.77733445913E+01 -0.12398980002E+04  0.12402950349E+04  0.11380762542E+02 0.  0.
         22    1    3    3    0    0 -0.28191771653E+02  0.77733445913E+01 -0.16751516008E+03  0.17004860991E+03  0.00000000000E+00 0.  1.
         22    1    4    4    0    0  0.53500732668E+01 -0.64792060903E+01 -0.29111705716E+03  0.29123829481E+03  0.00000000000E+00 0. -1.
         22    1    4    4    0    0  0.22841698386E+02 -0.12941385010E+01 -0.94878094303E+03  0.94905674005E+03  0.00000000000E+00 0. -1.
<mgrwt>
<rscale>  0 0.90870197E+02</rscale>
<asrwt>0</asrwt>
<pdfrwt beam="2">  1        1 0.21674944E+00 0.90870197E+02</pdfrwt>
<pdfrwt beam="1">  1       -1 0.22542301E-03 0.90870197E+02</pdfrwt>
<totfact> 0.11695506E+05</totfact>
</mgrwt>
</event>
<event>
 7    1  0.3301067E-009  0.9376960E+02  0.7818608E-02  0.1293972E+00
          1   -1    0    0  501    0  0.00000000000E+00  0.00000000000E+00  0.41774802719E+03  0.41774802722E+03  0.50400000000E-02 0. -1.
         -1   -1    0    0    0  501 -0.00000000000E+00 -0.00000000000E+00 -0.52619850477E+01  0.52619874614E+01  0.50400000000E-02 0.  1.
         23    2    1    2    0    0 -0.35527136788E-14  0.00000000000E+00  0.41248604214E+03  0.42301001468E+03  0.93769598266E+02 0.  0.
    9000005    2    3    3    0    0  0.18625460323E+02  0.45785242681E+01  0.39915996834E+03  0.39965503877E+03  0.52534784268E+01 0.  0.
         22    1    3    3    0    0 -0.18625460323E+02 -0.45785242681E+01  0.13326073804E+02  0.23354975910E+02  0.00000000000E+00 0.  1.
         22    1    4    4    0    0  0.93752483262E+01  0.32884661291E+00  0.15570650573E+03  0.15598884366E+03  0.00000000000E+00 0.  1.
         22    1    4    4    0    0  0.92502119965E+01  0.42496776552E+01  0.24345346261E+03  0.24366619511E+03  0.00000000000E+00 0.  1.
<mgrwt>
<rscale>  0 0.93769598E+02</rscale>
<asrwt>0</asrwt>
<pdfrwt beam="1">  1        1 0.64268945E-01 0.93769598E+02</pdfrwt>
<pdfrwt beam="2">  1       -1 0.80953613E-03 0.93769598E+02</pdfrwt>
<totfact> 0.12607436E+05</totfact>
</mgrwt>
</event>
<event>
 7    1  0.3301067E-009  0.9055708E+02  0.7818608E-02  0.1301508E+00
          1   -1    0    0  501    0  0.00000000000E+00  0.00000000000E+00  0.12233829091E+02  0.12233830129E+02  0.50400000000E-02 0. -1.
         -1   -1    0    0    0  501 -0.00000000000E+00 -0.00000000000E+00 -0.16758008852E+03  0.16758008859E+03  0.50400000000E-02 0.  1.
         23    2    1    2    0    0  0.00000000000E+00  0.00000000000E+00 -0.15534625943E+03  0.17981391872E+03  0.90557081715E+02 0.  0.
    9000005    2    3    3    0    0  0.90366768431E+01 -0.28644796814E+02 -0.10686921818E+02  0.32069173063E+02  0.34692434510E+01 0.  0.
         22    1    3    3    0    0 -0.90366768431E+01  0.28644796814E+02 -0.14465933761E+03  0.14774474566E+03  0.00000000000E+00 0.  1.
         22    1    4    4    0    0  0.47087281044E+01 -0.14519380564E+02 -0.72644943314E+01  0.16904360686E+02  0.00000000000E+00 0. -1.
         22    1    4    4    0    0  0.43279487387E+01 -0.14125416250E+02 -0.34224274870E+01  0.15164812377E+02  0.00000000000E+00 0. -1.
<mgrwt>
<rscale>  0 0.90557082E+02</rscale>
<asrwt>0</asrwt>
<pdfrwt beam="1">  1        1 0.18821278E-02 0.90557082E+02</pdfrwt>
<pdfrwt beam="2">  1       -1 0.25781551E-01 0.90557082E+02</pdfrwt>
<totfact> 0.74103611E+04</totfact>
</mgrwt>
</event>
<event>
 7    1  0.3301067E-009  0.8934803E+02  0.7818608E-02  0.1304438E+00
         -1   -1    0    0    0  501 -0.00000000000E+00  0.00000000000E+00  0.30578058871E+02  0.30578059286E+02  0.50400000000E-02 0.  1.
          1   -1    0    0  501    0  0.00000000000E+00 -0.00000000000E+00 -0.65267968269E+02  0.65267968464E+02  0.50400000000E-02 0. -1.
         23    2    1    2    0    0 -0.88817841970E-15  0.35527136788E-14 -0.34689909398E+02  0.95846027750E+02  0.89348034234E+02 0.  0.
    9000005    2    3    3    0    0  0.61470439941E+01  0.16614846549E+02  0.24432230546E+02  0.34126770567E+02  0.15933088343E+02 0.  0.
         22    1    3    3    0    0 -0.61470439941E+01 -0.16614846549E+02 -0.59122139944E+02  0.61719257183E+02  0.00000000000E+00 0. -1.
         22    1    4    4    0    0  0.93837325244E+01  0.30384261758E+01  0.97341254323E+01  0.13857837770E+02  0.00000000000E+00 0. -1.
         22    1    4    4    0    0 -0.32366885303E+01  0.13576420374E+02  0.14698105114E+02  0.20268932797E+02  0.00000000000E+00 0. -1.
<mgrwt>
<rscale>  0 0.89348034E+02</rscale>
<asrwt>0</asrwt>
<pdfrwt beam="2">  1        1 0.10041226E-01 0.89348034E+02</pdfrwt>
<pdfrwt beam="1">  1       -1 0.47043168E-02 0.89348034E+02</pdfrwt>
<totfact> 0.10322342E+05</totfact>
</mgrwt>
</event>
<event>
 7    1  0.3301067E-009  0.9192358E+02  0.7818608E-02  0.1298259E+00
         -1   -1    0    0    0  501 -0.00000000000E+00  0.00000000000E+00  0.25968730989E+01  0.25968779897E+01  0.50400000000E-02 0.  1.
          1   -1    0    0  501    0  0.00000000000E+00 -0.00000000000E+00 -0.81347229807E+03  0.81347229809E+03  0.50400000000E-02 0. -1.
         23    2    1    2    0    0  0.00000000000E+00 -0.44408920985E-15 -0.81087542498E+03  0.81606917608E+03  0.91923584124E+02 0.  0.
    9000005    2    3    3    0    0  0.24488952528E+02  0.34289961558E+01 -0.74692415542E+03  0.74750364766E+03  0.15954387955E+02 0.  0.
         22    1    3    3    0    0 -0.24488952528E+02 -0.34289961558E+01 -0.63951269554E+02  0.68565528425E+02  0.00000000000E+00 0.  1.
         22    1    4    4    0    0  0.16464917826E+02  0.29682730326E+01 -0.65914933047E+03  0.65936161855E+03  0.00000000000E+00 0. -1.
         22    1    4    4    0    0  0.80240347027E+01  0.46072312313E+00 -0.87774824955E+02  0.88142029105E+02  0.00000000000E+00 0. -1.
<mgrwt>
<rscale>  0 0.91923584E+02</rscale>
<asrwt>0</asrwt>
<pdfrwt beam="2">  1        1 0.12514938E+00 0.91923584E+02</pdfrwt>
<pdfrwt beam="1">  1       -1 0.39951997E-03 0.91923584E+02</pdfrwt>
<totfact> 0.13806890E+05</totfact>
</mgrwt>
</event>
<event>
 7    1  0.3301067E-009  0.9302393E+02  0.7818608E-02  0.1295690E+00
         -1   -1    0    0    0  501 -0.00000000000E+00  0.00000000000E+00  0.69834225448E+02  0.69834225630E+02  0.50400000000E-02 0.  1.
          1   -1    0    0  501    0  0.00000000000E+00 -0.00000000000E+00 -0.30978549087E+02  0.30978549497E+02  0.50400000000E-02 0. -1.
         23    2    1    2    0    0  0.00000000000E+00  0.00000000000E+00  0.38855676360E+02  0.10081277513E+03  0.93023932638E+02 0.  0.
    9000005    2    3    3    0    0  0.38793599816E+02 -0.21274505206E+02  0.41386830673E+01  0.44573842155E+02  0.34857923759E+01 0.  0.
         22    1    3    3    0    0 -0.38793599816E+02  0.21274505206E+02  0.34716993293E+02  0.56238932972E+02  0.00000000000E+00 0. -1.
         22    1    4    4    0    0  0.28400072156E+02 -0.15941884392E+02  0.15301456321E+01  0.32604434086E+02  0.00000000000E+00 0. -1.
         22    1    4    4    0    0  0.10393527660E+02 -0.53326208141E+01  0.26085374352E+01  0.11969408069E+02  0.00000000000E+00 0. -1.
<mgrwt>
<rscale>  0 0.93023933E+02</rscale>
<asrwt>0</asrwt>
<pdfrwt beam="2">  1        1 0.47659307E-02 0.93023933E+02</pdfrwt>
<pdfrwt beam="1">  1       -1 0.10743727E-01 0.93023933E+02</pdfrwt>
<totfact> 0.82252836E+04</totfact>
</mgrwt>
</event>
<event>
 7    1  0.3301067E-009  0.9075516E+02  0.7818608E-02  0.1301033E+00
          1   -1    0    0  501    0  0.00000000000E+00  0.00000000000E+00  0.61209704292E+03  0.61209704294E+03  0.50400000000E-02 0. -1.
         -1   -1    0    0    0  501 -0.00000000000E+00 -0.00000000000E+00 -0.33640472914E+01  0.33640510668E+01  0.50400000000E-02 0.  1.
         23    2    1    2    0    0  0.00000000000E+00 -0.71054273576E-14  0.60873299563E+03  0.61546109401E+03  0.90755155611E+02 0.  0.
    9000005    2    3    3    0    0  0.18950102301E+02 -0.40399705574E+02  0.35309103927E+03  0.35595376764E+03  0.62096776425E+01 0.  0.
         22    1    3    3    0    0 -0.18950102301E+02  0.40399705574E+02  0.25564195636E+03  0.25950732637E+03  0.00000000000E+00 0.  1.
         22    1    4    4    0    0  0.16537661413E+02 -0.34654205698E+02  0.31846122120E+03  0.32076776276E+03  0.00000000000E+00 0. -1.
         22    1    4    4    0    0  0.24124408884E+01 -0.57454998763E+01  0.34629818073E+02  0.35186004884E+02  0.00000000000E+00 0. -1.
<mgrwt>
<rscale>  0 0.90755156E+02</rscale>
<asrwt>0</asrwt>
<pdfrwt beam="1">  1        1 0.94168800E-01 0.90755156E+02</pdfrwt>
<pdfrwt beam="2">  1       -1 0.51754590E-03 0.90755156E+02</pdfrwt>
<totfact> 0.14349438E+05</totfact>
</mgrwt>
</event>
<event>
 7    1  0.3301067E-009  0.9463299E+02  0.7818608E-02  0.1292005E+00
         -1   -1    0    0    0  501 -0.00000000000E+00  0.00000000000E+00  0.19970149020E+02  0.19970149656E+02  0.50400000000E-02 0.  1.
          1   -1    0    0  501    0  0.00000000000E+00 -0.00000000000E+00 -0.11210986621E+03  0.11210986633E+03  0.50400000000E-02 0. -1.
         23    2    1    2    0    0  0.00000000000E+00  0.00000000000E+00 -0.92139717193E+02  0.13208001598E+03  0.94632991802E+02 0.  0.
    9000005    2    3    3    0    0  0.46277301831E+02 -0.68752583089E+01 -0.49300893195E+02  0.68644831084E+02  0.96268854338E+01 0.  0.
         22    1    3    3    0    0 -0.46277301831E+02  0.68752583089E+01 -0.42838823998E+02  0.63435184898E+02  0.00000000000E+00 0. -1.
         22    1    4    4    0    0  0.12989523373E+02  0.19250691354E+01 -0.16531267279E+02  0.21111996743E+02  0.00000000000E+00 0. -1.
         22    1    4    4    0    0  0.33287778458E+02 -0.88003274443E+01 -0.32769625916E+02  0.47532834341E+02  0.00000000000E+00 0. -1.
<mgrwt>
<rscale>  0 0.94632992E+02</rscale>
<asrwt>0</asrwt>
<pdfrwt beam="2">  1        1 0.17247671E-01 0.94632992E+02</pdfrwt>
<pdfrwt beam="1">  1       -1 0.30723307E-02 0.94632992E+02</pdfrwt>
<totfact> 0.96214028E+04</totfact>
</mgrwt>
</event>
<event>
 7    1  0.3301067E-009  0.9234936E+02  0.7818608E-02  0.1297260E+00
          1   -1    0    0  501    0  0.00000000000E+00  0.00000000000E+00  0.95807526297E+03  0.95807526298E+03  0.50400000000E-02 0. -1.
         -1   -1    0    0    0  501 -0.00000000000E+00 -0.00000000000E+00 -0.22253976797E+01  0.22254033869E+01  0.50400000000E-02 0.  1.
         23    2    1    2    0    0 -0.71054273576E-14  0.00000000000E+00  0.95584986529E+03  0.96030066637E+03  0.92349363048E+02 0.  0.
    9000005    2    3    3    0    0  0.36188010017E+02  0.15938836155E+02  0.72340881837E+03  0.72452013524E+03  0.67445759398E+01 0.  0.
         22    1    3    3    0    0 -0.36188010017E+02 -0.15938836155E+02  0.23244104692E+03  0.23578053113E+03  0.00000000000E+00 0.  1.
         22    1    4    4    0    0  0.27335258332E+02  0.14168701487E+02  0.59341200837E+03  0.59421021544E+03  0.00000000000E+00 0. -1.
         22    1    4    4    0    0  0.88527516846E+01  0.17701346684E+01  0.12999681000E+03  0.13030991980E+03  0.00000000000E+00 0. -1.
<mgrwt>
<rscale>  0 0.92349363E+02</rscale>
<asrwt>0</asrwt>
<pdfrwt beam="1">  1        1 0.14739657E+00 0.92349363E+02</pdfrwt>
<pdfrwt beam="2">  1       -1 0.34236845E-03 0.92349363E+02</pdfrwt>
<totfact> 0.13288601E+05</totfact>
</mgrwt>
</event>
<event>
 7    1  0.3301067E-009  0.8789781E+02  0.7818608E-02  0.1308024E+00
          1   -1    0    0  501    0  0.00000000000E+00  0.00000000000E+00  0.41988142090E+03  0.41988142093E+03  0.50400000000E-02 0. -1.
         -1   -1    0    0    0  501 -0.00000000000E+00 -0.00000000000E+00 -0.46001222626E+01  0.46001250235E+01  0.50400000000E-02 0.  1.
         23    2    1    2    0    0  0.17763568394E-14  0.00000000000E+00  0.41528129864E+03  0.42448154595E+03  0.87897814861E+02 0.  0.
    9000005    2    3    3    0    0 -0.84245201013E+01 -0.99453222690E+01  0.41027035278E+03  0.41051760839E+03  0.57499957551E+01 0.  0.
         22    1    3    3    0    0  0.84245201013E+01  0.99453222690E+01  0.50109458560E+01  0.13963937566E+02  0.00000000000E+00 0.  1.
         22    1    4    4    0    0 -0.10970849891E+01 -0.75053647735E+00  0.11937914814E+02  0.12011690580E+02  0.00000000000E+00 0.  1.
         22    1    4    4    0    0 -0.73274351122E+01 -0.91947857917E+01  0.39833243797E+03  0.39850591781E+03  0.00000000000E+00 0.  1.
<mgrwt>
<rscale>  0 0.87897815E+02</rscale>
<asrwt>0</asrwt>
<pdfrwt beam="1">  1        1 0.64597147E-01 0.87897815E+02</pdfrwt>
<pdfrwt beam="2">  1       -1 0.70771127E-03 0.87897815E+02</pdfrwt>
<totfact> 0.14978785E+05</totfact>
</mgrwt>
</event>
<event>
 7    1  0.3301067E-009  0.9251888E+02  0.7818608E-02  0.1296864E+00
         -1   -1    0    0    0  501 -0.00000000000E+00  0.00000000000E+00  0.15392157140E+03  0.15392157148E+03  0.50400000000E-02 0.  1.
          1   -1    0    0  501    0  0.00000000000E+00 -0.00000000000E+00 -0.13902767919E+02  0.13902768833E+02  0.50400000000E-02 0. -1.
         23    2    1    2    0    0 -0.44408920985E-15  0.00000000000E+00  0.14001880348E+03  0.16782434031E+03  0.92518883877E+02 0.  0.
    9000005    2    3    3    0    0  0.38107907440E+01 -0.30599741549E+02  0.81546933533E+01  0.32402739938E+02  0.57072079725E+01 0.  0.
         22    1    3    3    0    0 -0.38107907440E+01  0.30599741549E+02  0.13186411012E+03  0.13542160037E+03  0.00000000000E+00 0.  1.
         22    1    4    4    0    0  0.77852561708E+00 -0.66851874071E+00  0.10958141136E+01  0.15012754626E+01  0.00000000000E+00 0.  1.
         22    1    4    4    0    0  0.30322651269E+01 -0.29931222809E+02  0.70588792397E+01  0.30901464476E+02  0.00000000000E+00 0.  1.
<mgrwt>
<rscale>  0 0.92518884E+02</rscale>
<asrwt>0</asrwt>
<pdfrwt beam="2">  1        1 0.21388874E-02 0.92518884E+02</pdfrwt>
<pdfrwt beam="1">  1       -1 0.23680242E-01 0.92518884E+02</pdfrwt>
<totfact> 0.71563312E+04</totfact>
</mgrwt>
</event>
<event>
 7    1  0.3301067E-009  0.9243493E+02  0.7818608E-02  0.1297060E+00
         -1   -1    0    0    0  501 -0.00000000000E+00  0.00000000000E+00  0.13162992376E+02  0.13162993341E+02  0.50400000000E-02 0.  1.
          1   -1    0    0  501    0  0.00000000000E+00 -0.00000000000E+00 -0.16227721994E+03  0.16227722002E+03  0.50400000000E-02 0. -1.
         23    2    1    2    0    0  0.00000000000E+00  0.00000000000E+00 -0.14911422756E+03  0.17544021336E+03  0.92434926308E+02 0.  0.
    9000005    2    3    3    0    0 -0.39512780934E+02 -0.15529985535E+02 -0.46095853034E+02  0.64016581223E+02  0.13071139836E+02 0.  0.
         22    1    3    3    0    0  0.39512780934E+02  0.15529985535E+02 -0.10301837453E+03  0.11142363214E+03  0.00000000000E+00 0. -1.
         22    1    4    4    0    0 -0.34434024800E+02 -0.15967510546E+02 -0.44875877162E+02  0.58775061106E+02  0.00000000000E+00 0.  1.
         22    1    4    4    0    0 -0.50787561338E+01  0.43752501021E+00 -0.12199758720E+01  0.52415201163E+01  0.00000000000E+00 0.  1.
<mgrwt>
<rscale>  0 0.92434926E+02</rscale>
<asrwt>0</asrwt>
<pdfrwt beam="2">  1        1 0.24965725E-01 0.92434926E+02</pdfrwt>
<pdfrwt beam="1">  1       -1 0.20250759E-02 0.92434926E+02</pdfrwt>
<totfact> 0.10965055E+05</totfact>
</mgrwt>
</event>
<event>
 7    1  0.3301067E-009  0.9035711E+02  0.7818608E-02  0.1301989E+00
          1   -1    0    0  501    0  0.00000000000E+00  0.00000000000E+00  0.34437980785E+02  0.34437981154E+02  0.50400000000E-02 0. -1.
         -1   -1    0    0    0  501 -0.00000000000E+00 -0.00000000000E+00 -0.59268919230E+02  0.59268919445E+02  0.50400000000E-02 0.  1.
         23    2    1    2    0    0  0.00000000000E+00  0.17763568394E-14 -0.24830938445E+02  0.93706900598E+02  0.90357112148E+02 0.  0.
    9000005    2    3    3    0    0 -0.25791564274E+01 -0.11539182277E+02 -0.57580942401E+02  0.58887832050E+02  0.35223657228E+01 0.  0.
         22    1    3    3    0    0  0.25791564274E+01  0.11539182277E+02  0.32750003955E+02  0.34819068548E+02  0.00000000000E+00 0. -1.
         22    1    4    4    0    0  0.64111291995E+00 -0.18763157563E+01 -0.13542386101E+02  0.13686774927E+02  0.00000000000E+00 0. -1.
         22    1    4    4    0    0 -0.32202693474E+01 -0.96628665210E+01 -0.44038556300E+02  0.45201057123E+02  0.00000000000E+00 0. -1.
<mgrwt>
<rscale>  0 0.90357112E+02</rscale>
<asrwt>0</asrwt>
<pdfrwt beam="1">  1        1 0.52981509E-02 0.90357112E+02</pdfrwt>
<pdfrwt beam="2">  1       -1 0.91182953E-02 0.90357112E+02</pdfrwt>
<totfact> 0.90905195E+04</totfact>
</mgrwt>
</event>
<event>
 7    1  0.3301067E-009  0.9292350E+02  0.7818608E-02  0.1295923E+00
          1   -1    0    0  501    0  0.00000000000E+00  0.00000000000E+00  0.20372932712E+03  0.20372932718E+03  0.50400000000E-02 0.  1.
         -1   -1    0    0    0  501 -0.00000000000E+00 -0.00000000000E+00 -0.10595893199E+02  0.10595894398E+02  0.50400000000E-02 0. -1.
         23    2    1    2    0    0  0.00000000000E+00  0.00000000000E+00  0.19313343392E+03  0.21432522158E+03  0.92923502448E+02 0.  0.
    9000005    2    3    3    0    0 -0.34572560956E+01  0.43686083732E+02  0.67196481451E+02  0.80981520833E+02  0.11055001834E+02 0.  0.
         22    1    3    3    0    0  0.34572560956E+01 -0.43686083732E+02  0.12593695247E+03  0.13334370074E+03  0.00000000000E+00 0.  1.
         22    1    4    4    0    0 -0.56179649365E+01  0.25183462782E+02  0.31518210556E+02  0.40732860499E+02  0.00000000000E+00 0. -1.
         22    1    4    4    0    0  0.21607088409E+01  0.18502620949E+02  0.35678270895E+02  0.40248660334E+02  0.00000000000E+00 0. -1.
<mgrwt>
<rscale>  0 0.92923502E+02</rscale>
<asrwt>0</asrwt>
<pdfrwt beam="1">  1        1 0.31342973E-01 0.92923502E+02</pdfrwt>
<pdfrwt beam="2">  1       -1 0.16301376E-02 0.92923502E+02</pdfrwt>
<totfact> 0.11292700E+05</totfact>
</mgrwt>
</event>
<event>
 7    1  0.3301067E-009  0.9154786E+02  0.7818608E-02  0.1299146E+00
         -1   -1    0    0    0  501 -0.00000000000E+00  0.00000000000E+00  0.27412410654E+03  0.27412410659E+03  0.50400000000E-02 0.  1.
          1   -1    0    0  501    0  0.00000000000E+00 -0.00000000000E+00 -0.76434439268E+01  0.76434455885E+01  0.50400000000E-02 0. -1.
         23    2    1    2    0    0  0.00000000000E+00  0.17763568394E-14  0.26648066261E+03  0.28176755218E+03  0.91547855856E+02 0.  0.
    9000005    2    3    3    0    0  0.13176983541E+02 -0.12054411543E+02  0.26259232823E+03  0.26349021984E+03  0.12386419048E+02 0.  0.
         22    1    3    3    0    0 -0.13176983541E+02  0.12054411543E+02  0.38883343877E+01  0.18277332332E+02  0.00000000000E+00 0. -1.
         22    1    4    4    0    0  0.13474356912E+02 -0.48868532637E+01  0.15616068394E+03  0.15681708720E+03  0.00000000000E+00 0.  1.
         22    1    4    4    0    0 -0.29737337130E+00 -0.71675582791E+01  0.10643164429E+03  0.10667313264E+03  0.00000000000E+00 0.  1.
<mgrwt>
<rscale>  0 0.91547856E+02</rscale>
<asrwt>0</asrwt>
<pdfrwt beam="2">  1        1 0.11759147E-02 0.91547856E+02</pdfrwt>
<pdfrwt beam="1">  1       -1 0.42172936E-01 0.91547856E+02</pdfrwt>
<totfact> 0.62034074E+04</totfact>
</mgrwt>
</event>
<event>
 7    1  0.3301067E-009  0.9152959E+02  0.7818608E-02  0.1299189E+00
         -1   -1    0    0    0  501 -0.00000000000E+00  0.00000000000E+00  0.21677138318E+02  0.21677138904E+02  0.50400000000E-02 0.  1.
          1   -1    0    0  501    0  0.00000000000E+00 -0.00000000000E+00 -0.96618668153E+02  0.96618668285E+02  0.50400000000E-02 0. -1.
         23    2    1    2    0    0  0.00000000000E+00  0.00000000000E+00 -0.74941529835E+02  0.11829580719E+03  0.91529585951E+02 0.  0.
    9000005    2    3    3    0    0 -0.51991395017E+01 -0.30394580544E+02 -0.79921213577E+02  0.87060269285E+02  0.15531533422E+02 0.  0.
         22    1    3    3    0    0  0.51991395017E+01  0.30394580544E+02  0.49796837417E+01  0.31235537904E+02  0.00000000000E+00 0.  1.
         22    1    4    4    0    0 -0.69185898968E+01 -0.13937443188E+02 -0.22896219181E+02  0.27683136773E+02  0.00000000000E+00 0. -1.
         22    1    4    4    0    0  0.17194503951E+01 -0.16457137356E+02 -0.57024994395E+02  0.59377132512E+02  0.00000000000E+00 0. -1.
<mgrwt>
<rscale>  0 0.91529586E+02</rscale>
<asrwt>0</asrwt>
<pdfrwt beam="2">  1        1 0.14864410E-01 0.91529586E+02</pdfrwt>
<pdfrwt beam="1">  1       -1 0.33349445E-02 0.91529586E+02</pdfrwt>
<totfact> 0.10276863E+05</totfact>
</mgrwt>
</event>
<event>
 7    1  0.3301067E-009  0.9081785E+02  0.7818608E-02  0.1300883E+00
          1   -1    0    0  501    0  0.00000000000E+00  0.00000000000E+00  0.10976264101E+03  0.10976264113E+03  0.50400000000E-02 0. -1.
         -1   -1    0    0    0  501 -0.00000000000E+00 -0.00000000000E+00 -0.18785723013E+02  0.18785723689E+02  0.50400000000E-02 0.  1.
         23    2    1    2    0    0 -0.71054273576E-14  0.44408920985E-15  0.90976917999E+02  0.12854836482E+03  0.90817853356E+02 0.  0.
    9000005    2    3    3    0    0  0.30170497758E+02 -0.27896447627E+01  0.93206858343E+02  0.98167224501E+02  0.55896754019E+01 0.  0.
         22    1    3    3    0    0 -0.30170497758E+02  0.27896447627E+01 -0.22299403446E+01  0.30381140315E+02  0.00000000000E+00 0.  1.
         22    1    4    4    0    0  0.13128449169E+02 -0.36332743636E+01  0.37019498638E+02  0.39446167616E+02  0.00000000000E+00 0.  1.
         22    1    4    4    0    0  0.17042048589E+02  0.84362960091E+00  0.56187359705E+02  0.58721056885E+02  0.00000000000E+00 0.  1.
<mgrwt>
<rscale>  0 0.90817853E+02</rscale>
<asrwt>0</asrwt>
<pdfrwt beam="1">  1        1 0.16886560E-01 0.90817853E+02</pdfrwt>
<pdfrwt beam="2">  1       -1 0.28901113E-02 0.90817853E+02</pdfrwt>
<totfact> 0.10724433E+05</totfact>
</mgrwt>
</event>
<event>
 7    1  0.3301067E-009  0.9012926E+02  0.7818608E-02  0.1302539E+00
         -1   -1    0    0    0  501 -0.00000000000E+00  0.00000000000E+00  0.45501224982E+01  0.45501252896E+01  0.50400000000E-02 0.  1.
          1   -1    0    0  501    0  0.00000000000E+00 -0.00000000000E+00 -0.44632209581E+03  0.44632209584E+03  0.50400000000E-02 0. -1.
         23    2    1    2    0    0  0.00000000000E+00  0.00000000000E+00 -0.44177197331E+03  0.45087222113E+03  0.90129259295E+02 0.  0.
    9000005    2    3    3    0    0 -0.12513888306E+02 -0.42259272120E+02 -0.24192361479E+03  0.24622176332E+03  0.12477093192E+02 0.  0.
         22    1    3    3    0    0  0.12513888306E+02  0.42259272120E+02 -0.19984835852E+03  0.20465045781E+03  0.00000000000E+00 0. -1.
         22    1    4    4    0    0 -0.81032955721E+01 -0.23628417156E+02 -0.16857023707E+03  0.17041094543E+03  0.00000000000E+00 0. -1.
         22    1    4    4    0    0 -0.44105927336E+01 -0.18630854964E+02 -0.73353377720E+02  0.75810817882E+02  0.00000000000E+00 0. -1.
<mgrwt>
<rscale>  0 0.90129259E+02</rscale>
<asrwt>0</asrwt>
<pdfrwt beam="2">  1        1 0.68664903E-01 0.90129259E+02</pdfrwt>
<pdfrwt beam="1">  1       -1 0.70001942E-03 0.90129259E+02</pdfrwt>
<totfact> 0.14146231E+05</totfact>
</mgrwt>
</event>
<event>
 7    1  0.3301067E-009  0.9037637E+02  0.7818608E-02  0.1301943E+00
          1   -1    0    0  501    0  0.00000000000E+00  0.00000000000E+00  0.30851984634E+02  0.30851985046E+02  0.50400000000E-02 0. -1.
         -1   -1    0    0    0  501 -0.00000000000E+00 -0.00000000000E+00 -0.66186085114E+02  0.66186085306E+02  0.50400000000E-02 0.  1.
         23    2    1    2    0    0  0.00000000000E+00  0.00000000000E+00 -0.35334100480E+02  0.97038070352E+02  0.90376371032E+02 0.  0.
    9000005    2    3    3    0    0 -0.31459576631E+01 -0.16379124874E+02  0.25570015395E+02  0.33891541455E+02  0.14718631514E+02 0.  0.
         22    1    3    3    0    0  0.31459576631E+01  0.16379124874E+02 -0.60904115875E+02  0.63146528897E+02  0.00000000000E+00 0.  1.
         22    1    4    4    0    0 -0.32814210209E+01  0.52871827607E-01 -0.24411925485E+00  0.32909137876E+01  0.00000000000E+00 0. -1.
         22    1    4    4    0    0  0.13546335779E+00 -0.16431996702E+02  0.25814134649E+02  0.30600627667E+02  0.00000000000E+00 0. -1.
<mgrwt>
<rscale>  0 0.90376371E+02</rscale>
<asrwt>0</asrwt>
<pdfrwt beam="1">  1        1 0.47464592E-02 0.90376371E+02</pdfrwt>
<pdfrwt beam="2">  1       -1 0.10182475E-01 0.90376371E+02</pdfrwt>
<totfact> 0.89300833E+04</totfact>
</mgrwt>
</event>
<event>
 7    1  0.3301067E-009  0.9034301E+02  0.7818608E-02  0.1302023E+00
          1   -1    0    0  501    0  0.00000000000E+00  0.00000000000E+00  0.11378877337E+03  0.11378877348E+03  0.50400000000E-02 0. -1.
         -1   -1    0    0    0  501 -0.00000000000E+00 -0.00000000000E+00 -0.17932037922E+02  0.17932038630E+02  0.50400000000E-02 0.  1.
         23    2    1    2    0    0  0.55511151231E-16  0.71054273576E-14  0.95856735444E+02  0.13172081211E+03  0.90343005331E+02 0.  0.
    9000005    2    3    3    0    0  0.10580768620E+00 -0.36675410825E+02  0.85558447627E+02  0.93626827196E+02  0.10031842103E+02 0.  0.
         22    1    3    3    0    0 -0.10580768620E+00  0.36675410825E+02  0.10298287817E+02  0.38093984911E+02  0.00000000000E+00 0.  1.
         22    1    4    4    0    0  0.15970735100E+01 -0.18267596008E+01  0.11663267037E+02  0.11912996785E+02  0.00000000000E+00 0.  1.
         22    1    4    4    0    0 -0.14912658238E+01 -0.34848651224E+02  0.73895180590E+02  0.81713830411E+02  0.00000000000E+00 0.  1.
<mgrwt>
<rscale>  0 0.90343005E+02</rscale>
<asrwt>0</asrwt>
<pdfrwt beam="1">  1        1 0.17505965E-01 0.90343005E+02</pdfrwt>
<pdfrwt beam="2">  1       -1 0.27587752E-02 0.90343005E+02</pdfrwt>
<totfact> 0.10944904E+05</totfact>
</mgrwt>
</event>
<event>
 7    1  0.3301067E-009  0.9178982E+02  0.7818608E-02  0.1298574E+00
          1   -1    0    0  501    0  0.00000000000E+00  0.00000000000E+00  0.99090611922E+03  0.99090611923E+03  0.50400000000E-02 0. -1.
         -1   -1    0    0    0  501 -0.00000000000E+00 -0.00000000000E+00 -0.21256702900E+01  0.21256762650E+01  0.50400000000E-02 0.  1.
         23    2    1    2    0    0  0.00000000000E+00  0.00000000000E+00  0.98878044893E+03  0.99303179550E+03  0.91789817972E+02 0.  0.
    9000005    2    3    3    0    0  0.42485748831E+01 -0.28239389488E+02  0.88181397360E+03  0.88231892203E+03  0.86765561675E+01 0.  0.
         22    1    3    3    0    0 -0.42485748831E+01  0.28239389488E+02  0.10696647533E+03  0.11071287346E+03  0.00000000000E+00 0.  1.
         22    1    4    4    0    0  0.62283219616E+01 -0.12461138794E+02  0.39867895360E+03  0.39892227315E+03  0.00000000000E+00 0.  1.
         22    1    4    4    0    0 -0.19797470785E+01 -0.15778250693E+02  0.48313502000E+03  0.48339664888E+03  0.00000000000E+00 0.  1.
<mgrwt>
<rscale>  0 0.91789818E+02</rscale>
<asrwt>0</asrwt>
<pdfrwt beam="1">  1        1 0.15244678E+00 0.91789818E+02</pdfrwt>
<pdfrwt beam="2">  1       -1 0.32702733E-03 0.91789818E+02</pdfrwt>
<totfact> 0.13394618E+05</totfact>
</mgrwt>
</event>
<event>
 7    1  0.3301067E-009  0.9135881E+02  0.7818608E-02  0.1299594E+00
          1   -1    0    0  501    0  0.00000000000E+00  0.00000000000E+00  0.17943468294E+02  0.17943469002E+02  0.50400000000E-02 0. -1.
         -1   -1    0    0    0  501 -0.00000000000E+00 -0.00000000000E+00 -0.11628789090E+03  0.11628789101E+03  0.50400000000E-02 0.  1.
         23    2    1    2    0    0  0.00000000000E+00  0.00000000000E+00 -0.98344422607E+02  0.13423136001E+03  0.91358812124E+02 0.  0.
    9000005    2    3    3    0    0  0.11684378448E+02 -0.20305931093E+02 -0.10643998761E+03  0.10944439348E+03  0.99874303370E+01 0.  0.
         22    1    3    3    0    0 -0.11684378448E+02  0.20305931093E+02  0.80955650003E+01  0.24786966533E+02  0.00000000000E+00 0. -1.
         22    1    4    4    0    0  0.60777137020E+01 -0.94780741313E+01 -0.30103498607E+02  0.32140210352E+02  0.00000000000E+00 0. -1.
         22    1    4    4    0    0  0.56066647460E+01 -0.10827856961E+02 -0.76336489000E+02  0.77304183126E+02  0.00000000000E+00 0. -1.
<mgrwt>
<rscale>  0 0.91358812E+02</rscale>
<asrwt>0</asrwt>
<pdfrwt beam="1">  1        1 0.27605337E-02 0.91358812E+02</pdfrwt>
<pdfrwt beam="2">  1       -1 0.17890444E-01 0.91358812E+02</pdfrwt>
<totfact> 0.78626077E+04</totfact>
</mgrwt>
</event>
<event>
 7    1  0.3301067E-009  0.9382073E+02  0.7818608E-02  0.1293854E+00
         -1   -1    0    0    0  501 -0.00000000000E+00  0.00000000000E+00  0.76367393316E+02  0.76367393483E+02  0.50400000000E-02 0.  1.
          1   -1    0    0  501    0  0.00000000000E+00 -0.00000000000E+00 -0.28815730275E+02  0.28815730715E+02  0.50400000000E-02 0. -1.
         23    2    1    2    0    0 -0.35527136788E-14  0.00000000000E+00  0.47551663042E+02  0.10518312420E+03  0.93820727763E+02 0.  0.
    9000005    2    3    3    0    0  0.27525252933E+02 -0.51583334625E+01  0.65586700417E+02  0.71873808289E+02  0.89432149271E+01 0.  0.
         22    1    3    3    0    0 -0.27525252933E+02  0.51583334625E+01 -0.18035037376E+02  0.33309315908E+02  0.00000000000E+00 0. -1.
         22    1    4    4    0    0  0.22977144900E+02 -0.65184481409E+01  0.47393720500E+02  0.53071688279E+02  0.00000000000E+00 0.  1.
         22    1    4    4    0    0  0.45481080330E+01  0.13601146785E+01  0.18192979917E+02  0.18802120010E+02  0.00000000000E+00 0.  1.
<mgrwt>
<rscale>  0 0.93820728E+02</rscale>
<asrwt>0</asrwt>
<pdfrwt beam="2">  1        1 0.44331894E-02 0.93820728E+02</pdfrwt>
<pdfrwt beam="1">  1       -1 0.11748830E-01 0.93820728E+02</pdfrwt>
<totfact> 0.79293891E+04</totfact>
</mgrwt>
</event>
<event>
 7    1  0.3301067E-009  0.9159939E+02  0.7818608E-02  0.1299024E+00
          1   -1    0    0  501    0  0.00000000000E+00  0.00000000000E+00  0.33829260181E+03  0.33829260185E+03  0.50400000000E-02 0. -1.
         -1   -1    0    0    0  501 -0.00000000000E+00 -0.00000000000E+00 -0.62005838406E+01  0.62005858890E+01  0.50400000000E-02 0.  1.
         23    2    1    2    0    0  0.71054273576E-14  0.17763568394E-14  0.33209201797E+03  0.34449318774E+03  0.91599388633E+02 0.  0.
    9000005    2    3    3    0    0 -0.32404734421E+02 -0.10765759066E+02  0.28068275745E+03  0.28277705979E+03  0.37532432363E+01 0.  0.
         22    1    3    3    0    0  0.32404734421E+02  0.10765759066E+02  0.51409260524E+02  0.61716127947E+02  0.00000000000E+00 0.  1.
         22    1    4    4    0    0 -0.30688449808E+02 -0.92515125757E+01  0.26015588523E+03  0.26212297888E+03  0.00000000000E+00 0.  1.
         22    1    4    4    0    0 -0.17162846131E+01 -0.15142464907E+01  0.20526872217E+02  0.20654080912E+02  0.00000000000E+00 0.  1.
<mgrwt>
<rscale>  0 0.91599389E+02</rscale>
<asrwt>0</asrwt>
<pdfrwt beam="1">  1        1 0.52045044E-01 0.91599389E+02</pdfrwt>
<pdfrwt beam="2">  1       -1 0.95393562E-03 0.91599389E+02</pdfrwt>
<totfact> 0.12942358E+05</totfact>
</mgrwt>
</event>
<event>
 7    1  0.3301067E-009  0.9374942E+02  0.7818608E-02  0.1294018E+00
         -1   -1    0    0    0  501 -0.00000000000E+00  0.00000000000E+00  0.41220043209E+01  0.41220074021E+01  0.50400000000E-02 0.  1.
          1   -1    0    0  501    0  0.00000000000E+00 -0.00000000000E+00 -0.53305075346E+03  0.53305075348E+03  0.50400000000E-02 0. -1.
         23    2    1    2    0    0  0.00000000000E+00  0.00000000000E+00 -0.52892874913E+03  0.53717276088E+03  0.93749417981E+02 0.  0.
    9000005    2    3    3    0    0  0.26885466744E+02 -0.28380024361E+02 -0.40675949188E+03  0.40890124603E+03  0.14788193382E+02 0.  0.
         22    1    3    3    0    0 -0.26885466744E+02  0.28380024361E+02 -0.12216925726E+03  0.12827151486E+03  0.00000000000E+00 0. -1.
         22    1    4    4    0    0  0.18495767444E+02 -0.10771834204E+02 -0.17055151710E+03  0.17188934176E+03  0.00000000000E+00 0. -1.
         22    1    4    4    0    0  0.83896993004E+01 -0.17608190157E+02 -0.23620797478E+03  0.23701190427E+03  0.00000000000E+00 0. -1.
<mgrwt>
<rscale>  0 0.93749418E+02</rscale>
<asrwt>0</asrwt>
<pdfrwt beam="2">  1        1 0.82007754E-01 0.93749418E+02</pdfrwt>
<pdfrwt beam="1">  1       -1 0.63415517E-03 0.93749418E+02</pdfrwt>
<totfact> 0.13026202E+05</totfact>
</mgrwt>
</event>
<event>
 7    1  0.3301067E-009  0.8994827E+02  0.7818608E-02  0.1302977E+00
          1   -1    0    0  501    0  0.00000000000E+00  0.00000000000E+00  0.23587851949E+03  0.23587851954E+03  0.50400000000E-02 0. -1.
         -1   -1    0    0    0  501 -0.00000000000E+00 -0.00000000000E+00 -0.85750614204E+01  0.85750629015E+01  0.50400000000E-02 0.  1.
         23    2    1    2    0    0 -0.88817841970E-15 -0.71054273576E-14  0.22730345807E+03  0.24445358245E+03  0.89948273580E+02 0.  0.
    9000005    2    3    3    0    0 -0.24111615562E+01 -0.43746272767E+02  0.98954123637E+02  0.10883241253E+03  0.11533661619E+02 0.  0.
         22    1    3    3    0    0  0.24111615562E+01  0.43746272767E+02  0.12834933443E+03  0.13562116992E+03  0.00000000000E+00 0. -1.
         22    1    4    4    0    0 -0.40748403519E+01 -0.34811169635E+02  0.87157357733E+02  0.93940549617E+02  0.00000000000E+00 0. -1.
         22    1    4    4    0    0  0.16636787957E+01 -0.89351031320E+01  0.11796765904E+02  0.14891862909E+02  0.00000000000E+00 0. -1.
<mgrwt>
<rscale>  0 0.89948274E+02</rscale>
<asrwt>0</asrwt>
<pdfrwt beam="1">  1        1 0.36289009E-01 0.89948274E+02</pdfrwt>
<pdfrwt beam="2">  1       -1 0.13192401E-02 0.89948274E+02</pdfrwt>
<totfact> 0.12678698E+05</totfact>
</mgrwt>
</event>
<event>
 7    1  0.3301067E-009  0.9226249E+02  0.7818608E-02  0.1297463E+00
         -1   -1    0    0    0  501 -0.00000000000E+00  0.00000000000E+00  0.30632020273E+02  0.30632020688E+02  0.50400000000E-02 0.  1.
          1   -1    0    0  501    0  0.00000000000E+00 -0.00000000000E+00 -0.69472780669E+02  0.69472780851E+02  0.50400000000E-02 0. -1.
         23    2    1    2    0    0  0.00000000000E+00  0.00000000000E+00 -0.38840760395E+02  0.10010480154E+03  0.92262487627E+02 0.  0.
    9000005    2    3    3    0    0 -0.26276033243E+01 -0.41291384173E+02 -0.41456432172E+02  0.58647299866E+02  0.29978837593E+01 0.  0.
         22    1    3    3    0    0  0.26276033243E+01  0.41291384173E+02  0.26156717767E+01  0.41457501673E+02  0.00000000000E+00 0.  1.
         22    1    4    4    0    0 -0.17868033141E+01 -0.12755864686E+02 -0.11511422649E+02  0.17274767766E+02  0.00000000000E+00 0. -1.
         22    1    4    4    0    0 -0.84080001028E+00 -0.28535519486E+02 -0.29945009523E+02  0.41372532100E+02  0.00000000000E+00 0. -1.
<mgrwt>
<rscale>  0 0.92262488E+02</rscale>
<asrwt>0</asrwt>
<pdfrwt beam="2">  1        1 0.10688120E-01 0.92262488E+02</pdfrwt>
<pdfrwt beam="1">  1       -1 0.47126186E-02 0.92262488E+02</pdfrwt>
<totfact> 0.95380242E+04</totfact>
</mgrwt>
</event>
<event>
 7    1  0.3301067E-009  0.1138124E+03  0.7818608E-02  0.1253668E+00
         -1   -1    0    0    0  501 -0.00000000000E+00  0.00000000000E+00  0.29758712381E+02  0.29758712808E+02  0.50400000000E-02 0.  1.
          1   -1    0    0  501    0  0.00000000000E+00 -0.00000000000E+00 -0.10881912818E+03  0.10881912830E+03  0.50400000000E-02 0. -1.
         23    2    1    2    0    0 -0.35527136788E-14  0.00000000000E+00 -0.79060415802E+02  0.13857784111E+03  0.11381242770E+03 0.  0.
    9000005    2    3    3    0    0  0.29966421551E+02 -0.30194848951E+02  0.50197157988E+01  0.44348419727E+02  0.11483442941E+02 0.  0.
         22    1    3    3    0    0 -0.29966421551E+02  0.30194848951E+02 -0.84080131601E+02  0.94229421381E+02  0.00000000000E+00 0. -1.
         22    1    4    4    0    0  0.98535847414E+01 -0.17479126295E+02  0.18043251275E+00  0.20066029607E+02  0.00000000000E+00 0.  1.
         22    1    4    4    0    0  0.20112836810E+02 -0.12715722656E+02  0.48392832861E+01  0.24282390120E+02  0.00000000000E+00 0.  1.
<mgrwt>
<rscale>  0 0.11381243E+03</rscale>
<asrwt>0</asrwt>
<pdfrwt beam="2">  1        1 0.16741404E-01 0.11381243E+03</pdfrwt>
<pdfrwt beam="1">  1       -1 0.45782635E-02 0.11381243E+03</pdfrwt>
<totfact> 0.57440186E+04</totfact>
</mgrwt>
</event>
<event>
 7    1  0.3301067E-009  0.9208925E+02  0.7818608E-02  0.1297870E+00
         -1   -1    0    0    0  501 -0.00000000000E+00  0.00000000000E+00  0.15449541875E+03  0.15449541883E+03  0.50400000000E-02 0.  1.
          1   -1    0    0  501    0  0.00000000000E+00 -0.00000000000E+00 -0.13722786074E+02  0.13722786999E+02  0.50400000000E-02 0. -1.
         23    2    1    2    0    0  0.00000000000E+00  0.00000000000E+00  0.14077263268E+03  0.16821820583E+03  0.92089253784E+02 0.  0.
    9000005    2    3    3    0    0  0.87959309251E+01  0.32339545168E+02  0.14019911428E+02  0.37109598462E+02  0.75729650083E+01 0.  0.
         22    1    3    3    0    0 -0.87959309251E+01 -0.32339545168E+02  0.12675272125E+03  0.13110860737E+03  0.00000000000E+00 0.  1.
         22    1    4    4    0    0  0.36636304890E+01  0.35089015789E+01  0.22302993068E+01  0.55415533606E+01  0.00000000000E+00 0. -1.
         22    1    4    4    0    0  0.51323004361E+01  0.28830643589E+02  0.11789612121E+02  0.31568045101E+02  0.00000000000E+00 0. -1.
<mgrwt>
<rscale>  0 0.92089254E+02</rscale>
<asrwt>0</asrwt>
<pdfrwt beam="2">  1        1 0.21111980E-02 0.92089254E+02</pdfrwt>
<pdfrwt beam="1">  1       -1 0.23768525E-01 0.92089254E+02</pdfrwt>
<totfact> 0.72370425E+04</totfact>
</mgrwt>
</event>
<event>
 7    1  0.3301067E-009  0.9236170E+02  0.7818608E-02  0.1297231E+00
         -1   -1    0    0    0  501 -0.00000000000E+00  0.00000000000E+00  0.22434252979E+02  0.22434253545E+02  0.50400000000E-02 0.  1.
          1   -1    0    0  501    0  0.00000000000E+00 -0.00000000000E+00 -0.95063163777E+02  0.95063163911E+02  0.50400000000E-02 0. -1.
         23    2    1    2    0    0  0.00000000000E+00  0.00000000000E+00 -0.72628910799E+02  0.11749741746E+03  0.92361704320E+02 0.  0.
    9000005    2    3    3    0    0  0.62069971677E+01 -0.34348319208E+02 -0.74015363531E+02  0.82565253231E+02  0.10973292863E+02 0.  0.
         22    1    3    3    0    0 -0.62069971677E+01  0.34348319208E+02  0.13864527323E+01  0.34932164225E+02  0.00000000000E+00 0.  1.
         22    1    4    4    0    0 -0.24972432078E+01 -0.15354414194E+02 -0.35191307414E+02  0.38476257307E+02  0.00000000000E+00 0. -1.
         22    1    4    4    0    0  0.87042403755E+01 -0.18993905013E+02 -0.38824056117E+02  0.44088995924E+02  0.00000000000E+00 0. -1.
<mgrwt>
<rscale>  0 0.92361704E+02</rscale>
<asrwt>0</asrwt>
<pdfrwt beam="2">  1        1 0.14625102E-01 0.92361704E+02</pdfrwt>
<pdfrwt beam="1">  1       -1 0.34514236E-02 0.92361704E+02</pdfrwt>
<totfact> 0.99987616E+04</totfact>
</mgrwt>
</event>
<event>
 7    1  0.3301067E-009  0.9019489E+02  0.7818608E-02  0.1302380E+00
         -1   -1    0    0    0  501 -0.00000000000E+00  0.00000000000E+00  0.61444462073E+02  0.61444462280E+02  0.50400000000E-02 0.  1.
          1   -1    0    0  501    0  0.00000000000E+00 -0.00000000000E+00 -0.33099476530E+02  0.33099476913E+02  0.50400000000E-02 0. -1.
         23    2    1    2    0    0  0.00000000000E+00  0.00000000000E+00  0.28344985543E+02  0.94543939193E+02  0.90194890280E+02 0.  0.
    9000005    2    3    3    0    0 -0.27688886586E+02 -0.17547113739E+02  0.45404372859E+02  0.57589936209E+02  0.13433839247E+02 0.  0.
         22    1    3    3    0    0  0.27688886586E+02  0.17547113739E+02 -0.17059387316E+02  0.36954002984E+02  0.00000000000E+00 0. -1.
         22    1    4    4    0    0 -0.75763206978E+01 -0.72847536981E+01  0.25147676148E+02  0.27255712931E+02  0.00000000000E+00 0.  1.
         22    1    4    4    0    0 -0.20112565889E+02 -0.10262360041E+02  0.20256696711E+02  0.30334223278E+02  0.00000000000E+00 0.  1.
<mgrwt>
<rscale>  0 0.90194890E+02</rscale>
<asrwt>0</asrwt>
<pdfrwt beam="2">  1        1 0.50922272E-02 0.90194890E+02</pdfrwt>
<pdfrwt beam="1">  1       -1 0.94529941E-02 0.90194890E+02</pdfrwt>
<totfact> 0.90811091E+04</totfact>
</mgrwt>
</event>
<event>
 7    1  0.3301067E-009  0.9094940E+02  0.7818608E-02  0.1300569E+00
          1   -1    0    0  501    0  0.00000000000E+00  0.00000000000E+00  0.18838601398E+02  0.18838602072E+02  0.50400000000E-02 0. -1.
         -1   -1    0    0    0  501 -0.00000000000E+00 -0.00000000000E+00 -0.10977186201E+03  0.10977186213E+03  0.50400000000E-02 0.  1.
         23    2    1    2    0    0  0.00000000000E+00  0.00000000000E+00 -0.90933260615E+02  0.12861046420E+03  0.90949401405E+02 0.  0.
    9000005    2    3    3    0    0  0.46017968635E+01 -0.31964052854E+02 -0.14114089990E+01  0.33441986616E+02  0.85730498781E+01 0.  0.
         22    1    3    3    0    0 -0.46017968635E+01  0.31964052854E+02 -0.89521851616E+02  0.95168477585E+02  0.00000000000E+00 0.  1.
         22    1    4    4    0    0  0.31035679634E+01 -0.17060933994E+02  0.34772924405E+01  0.17686129186E+02  0.00000000000E+00 0. -1.
         22    1    4    4    0    0  0.14982289001E+01 -0.14903118860E+02 -0.48887014395E+01  0.15755857430E+02  0.00000000000E+00 0. -1.
<mgrwt>
<rscale>  0 0.90949401E+02</rscale>
<asrwt>0</asrwt>
<pdfrwt beam="1">  1        1 0.28982465E-02 0.90949401E+02</pdfrwt>
<pdfrwt beam="2">  1       -1 0.16887978E-01 0.90949401E+02</pdfrwt>
<totfact> 0.80456720E+04</totfact>
</mgrwt>
</event>
<event>
 7    1  0.3301067E-009  0.9530731E+02  0.7818608E-02  0.1290485E+00
          1   -1    0    0  501    0  0.00000000000E+00  0.00000000000E+00  0.63417394773E+03  0.63417394775E+03  0.50400000000E-02 0.  1.
         -1   -1    0    0    0  501 -0.00000000000E+00 -0.00000000000E+00 -0.35808307538E+01  0.35808343007E+01  0.50400000000E-02 0. -1.
         23    2    1    2    0    0  0.00000000000E+00 -0.35527136788E-14  0.63059311697E+03  0.63775478205E+03  0.95307307436E+02 0.  0.
    9000005    2    3    3    0    0  0.11204871646E+02  0.23918296649E+02  0.58058041844E+03  0.58119592706E+03  0.41772346648E+01 0.  0.
         22    1    3    3    0    0 -0.11204871646E+02 -0.23918296649E+02  0.50012698531E+02  0.56558854987E+02  0.00000000000E+00 0. -1.
         22    1    4    4    0    0  0.58736630659E+00  0.27968645687E+01  0.42130952087E+02  0.42227770180E+02  0.00000000000E+00 0. -1.
         22    1    4    4    0    0  0.10617505339E+02  0.21121432080E+02  0.53844946635E+03  0.53896815688E+03  0.00000000000E+00 0. -1.
<mgrwt>
<rscale>  0 0.95307307E+02</rscale>
<asrwt>0</asrwt>
<pdfrwt beam="1">  1        1 0.97565135E-01 0.95307307E+02</pdfrwt>
<pdfrwt beam="2">  1       -1 0.55089781E-03 0.95307307E+02</pdfrwt>
<totfact> 0.12623037E+05</totfact>
</mgrwt>
</event>
<event>
 7    1  0.3301067E-009  0.9075330E+02  0.7818608E-02  0.1301038E+00
          1   -1    0    0  501    0  0.00000000000E+00  0.00000000000E+00  0.26066129585E+02  0.26066130072E+02  0.50400000000E-02 0. -1.
         -1   -1    0    0    0  501 -0.00000000000E+00 -0.00000000000E+00 -0.78992941252E+02  0.78992941412E+02  0.50400000000E-02 0.  1.
         23    2    1    2    0    0  0.00000000000E+00  0.00000000000E+00 -0.52926811666E+02  0.10505907148E+03  0.90753298056E+02 0.  0.
    9000005    2    3    3    0    0 -0.21534948797E+02 -0.52903150070E+01 -0.72069895184E+02  0.75764036084E+02  0.73741385552E+01 0.  0.
         22    1    3    3    0    0  0.21534948797E+02  0.52903150070E+01  0.19143083517E+02  0.29295035400E+02  0.00000000000E+00 0. -1.
         22    1    4    4    0    0 -0.19502904035E+02 -0.29869849706E+01 -0.55280545923E+02  0.58696031404E+02  0.00000000000E+00 0.  1.
         22    1    4    4    0    0 -0.20320447615E+01 -0.23033300364E+01 -0.16789349261E+02  0.17068004681E+02  0.00000000000E+00 0.  1.
<mgrwt>
<rscale>  0 0.90753298E+02</rscale>
<asrwt>0</asrwt>
<pdfrwt beam="1">  1        1 0.40101739E-02 0.90753298E+02</pdfrwt>
<pdfrwt beam="2">  1       -1 0.12152760E-01 0.90753298E+02</pdfrwt>
<totfact> 0.85848065E+04</totfact>
</mgrwt>
</event>
<event>
 7    1  0.3301067E-009  0.9091387E+02  0.7818608E-02  0.1300654E+00
          1   -1    0    0  501    0  0.00000000000E+00  0.00000000000E+00  0.38014784986E+03  0.38014784989E+03  0.50400000000E-02 0. -1.
         -1   -1    0    0    0  501 -0.00000000000E+00 -0.00000000000E+00 -0.54356024982E+01  0.54356048348E+01  0.50400000000E-02 0.  1.
         23    2    1    2    0    0  0.00000000000E+00  0.17763568394E-14  0.37471224736E+03  0.38558345473E+03  0.90913872634E+02 0.  0.
    9000005    2    3    3    0    0 -0.47410620482E+01 -0.13673650778E+02  0.36983312770E+03  0.37031085824E+03  0.12005956418E+02 0.  0.
         22    1    3    3    0    0  0.47410620482E+01  0.13673650778E+02  0.48791196648E+01  0.15272596493E+02  0.00000000000E+00 0.  1.
         22    1    4    4    0    0  0.12494879265E+01 -0.12667051216E+02  0.24864083326E+03  0.24896642217E+03  0.00000000000E+00 0.  1.
         22    1    4    4    0    0 -0.59905499747E+01 -0.10065995626E+01  0.12119229444E+03  0.12134443606E+03  0.00000000000E+00 0.  1.
<mgrwt>
<rscale>  0 0.90913873E+02</rscale>
<asrwt>0</asrwt>
<pdfrwt beam="1">  1        1 0.58484292E-01 0.90913873E+02</pdfrwt>
<pdfrwt beam="2">  1       -1 0.83624662E-03 0.90913873E+02</pdfrwt>
<totfact> 0.13477716E+05</totfact>
</mgrwt>
</event>
<event>
 7    1  0.3301067E-009  0.9196124E+02  0.7818608E-02  0.1298171E+00
         -1   -1    0    0    0  501 -0.00000000000E+00  0.00000000000E+00  0.14905995120E+04  0.14905995120E+04  0.50400000000E-02 0.  1.
          1   -1    0    0  501    0  0.00000000000E+00 -0.00000000000E+00 -0.14183626018E+01  0.14183715563E+01  0.50400000000E-02 0. -1.
         23    2    1    2    0    0  0.00000000000E+00  0.00000000000E+00  0.14891811494E+04  0.14920178836E+04  0.91961237237E+02 0.  0.
    9000005    2    3    3    0    0 -0.10402912023E+02 -0.20391044902E+00  0.14711078002E+04  0.14711634330E+04  0.74447679944E+01 0.  0.
         22    1    3    3    0    0  0.10402912023E+02  0.20391044902E+00  0.18073349211E+02  0.20854450598E+02  0.00000000000E+00 0. -1.
         22    1    4    4    0    0 -0.10624980388E+02 -0.14779158307E+01  0.10749983241E+04  0.10750518459E+04  0.00000000000E+00 0.  1.
         22    1    4    4    0    0  0.22206836552E+00  0.12740053817E+01  0.39610947607E+03  0.39611158710E+03  0.00000000000E+00 0.  1.
<mgrwt>
<rscale>  0 0.91961237E+02</rscale>
<asrwt>0</asrwt>
<pdfrwt beam="2">  1        1 0.21821022E-03 0.91961237E+02</pdfrwt>
<pdfrwt beam="1">  1       -1 0.22932311E+00 0.91961237E+02</pdfrwt>
<totfact> 0.13649738E+04</totfact>
</mgrwt>
</event>
<event>
 7    1  0.3301067E-009  0.9053781E+02  0.7818608E-02  0.1301555E+00
         -1   -1    0    0    0  501 -0.00000000000E+00  0.00000000000E+00  0.60809560643E+03  0.60809560645E+03  0.50400000000E-02 0.  1.
          1   -1    0    0  501    0  0.00000000000E+00 -0.00000000000E+00 -0.33699839522E+01  0.33699877210E+01  0.50400000000E-02 0. -1.
         23    2    1    2    0    0  0.00000000000E+00  0.00000000000E+00  0.60472562247E+03  0.61146559417E+03  0.90537806329E+02 0.  0.
    9000005    2    3    3    0    0  0.34047980953E+02  0.72204833023E+01  0.49504283517E+03  0.49639294660E+03  0.11276010002E+02 0.  0.
         22    1    3    3    0    0 -0.34047980953E+02 -0.72204833023E+01  0.10968278731E+03  0.11507264756E+03  0.00000000000E+00 0. -1.
         22    1    4    4    0    0  0.32115327073E+02  0.34031400958E+01  0.43285338613E+03  0.43405648190E+03  0.00000000000E+00 0. -1.
         22    1    4    4    0    0  0.19326538797E+01  0.38173432065E+01  0.62189449034E+02  0.62336464701E+02  0.00000000000E+00 0. -1.
<mgrwt>
<rscale>  0 0.90537806E+02</rscale>
<asrwt>0</asrwt>
<pdfrwt beam="2">  1        1 0.51845966E-03 0.90537806E+02</pdfrwt>
<pdfrwt beam="1">  1       -1 0.93553116E-01 0.90537806E+02</pdfrwt>
<totfact> 0.41974797E+04</totfact>
</mgrwt>
</event>
<event>
 7    1  0.3301067E-009  0.9209055E+02  0.7818608E-02  0.1297867E+00
         -1   -1    0    0    0  501 -0.00000000000E+00  0.00000000000E+00  0.56639801338E+02  0.56639801562E+02  0.50400000000E-02 0.  1.
          1   -1    0    0  501    0  0.00000000000E+00 -0.00000000000E+00 -0.37432460988E+02  0.37432461327E+02  0.50400000000E-02 0. -1.
         23    2    1    2    0    0  0.00000000000E+00 -0.35527136788E-14  0.19207340350E+02  0.94072262889E+02  0.92090546321E+02 0.  0.
    9000005    2    3    3    0    0 -0.17330828032E+02  0.28552305577E+02 -0.22016651356E+02  0.41015602174E+02  0.90528962587E+01 0.  0.
         22    1    3    3    0    0  0.17330828032E+02 -0.28552305577E+02  0.41223991706E+02  0.53056660715E+02  0.00000000000E+00 0.  1.
         22    1    4    4    0    0 -0.14821524060E+02  0.19322264328E+02 -0.11938856197E+02  0.27121278759E+02  0.00000000000E+00 0.  1.
         22    1    4    4    0    0 -0.25093039726E+01  0.92300412495E+01 -0.10077795159E+02  0.13894323415E+02  0.00000000000E+00 0.  1.
<mgrwt>
<rscale>  0 0.92090546E+02</rscale>
<asrwt>0</asrwt>
<pdfrwt beam="2">  1        1 0.57588402E-02 0.92090546E+02</pdfrwt>
<pdfrwt beam="1">  1       -1 0.87138156E-02 0.92090546E+02</pdfrwt>
<totfact> 0.87244282E+04</totfact>
</mgrwt>
</event>
<event>
 7    1  0.3301067E-009  0.8734810E+02  0.7818608E-02  0.1309404E+00
          1   -1    0    0  501    0  0.00000000000E+00  0.00000000000E+00  0.18303334461E+03  0.18303334468E+03  0.50400000000E-02 0. -1.
         -1   -1    0    0    0  501 -0.00000000000E+00 -0.00000000000E+00 -0.10421175292E+02  0.10421176511E+02  0.50400000000E-02 0.  1.
         23    2    1    2    0    0  0.35527136788E-14  0.00000000000E+00  0.17261216932E+03  0.19345452119E+03  0.87348101137E+02 0.  0.
    9000005    2    3    3    0    0 -0.17689338049E+02  0.16620162197E+01  0.17442268223E+03  0.17559526769E+03  0.97340115742E+01 0.  0.
         22    1    3    3    0    0  0.17689338049E+02 -0.16620162197E+01 -0.18105129108E+01  0.17859253498E+02  0.00000000000E+00 0.  1.
         22    1    4    4    0    0 -0.71437780519E+01  0.38282219230E+01  0.10820751085E+03  0.10851061815E+03  0.00000000000E+00 0.  1.
         22    1    4    4    0    0 -0.10545559997E+02 -0.21662057033E+01  0.66215171381E+02  0.67084649539E+02  0.00000000000E+00 0.  1.
<mgrwt>
<rscale>  0 0.87348101E+02</rscale>
<asrwt>0</asrwt>
<pdfrwt beam="1">  1        1 0.28158975E-01 0.87348101E+02</pdfrwt>
<pdfrwt beam="2">  1       -1 0.16032579E-02 0.87348101E+02</pdfrwt>
<totfact> 0.13056934E+05</totfact>
</mgrwt>
</event>
<event>
 7    1  0.3301067E-009  0.9183681E+02  0.7818608E-02  0.1298464E+00
         -1   -1    0    0    0  501 -0.00000000000E+00  0.00000000000E+00  0.10823491474E+03  0.10823491486E+03  0.50400000000E-02 0.  1.
          1   -1    0    0  501    0  0.00000000000E+00 -0.00000000000E+00 -0.19480771657E+02  0.19480772309E+02  0.50400000000E-02 0. -1.
         23    2    1    2    0    0  0.00000000000E+00  0.00000000000E+00  0.88754143088E+02  0.12771568717E+03  0.91836805445E+02 0.  0.
    9000005    2    3    3    0    0 -0.13354450246E+02  0.37917522358E+02  0.73635782063E+02  0.84766360247E+02  0.12125493242E+02 0.  0.
         22    1    3    3    0    0  0.13354450246E+02 -0.37917522358E+02  0.15118361025E+02  0.42949326924E+02  0.00000000000E+00 0. -1.
         22    1    4    4    0    0  0.87376967178E+00  0.51274952922E+01  0.42575523855E+01  0.67217136005E+01  0.00000000000E+00 0. -1.
         22    1    4    4    0    0 -0.14228219918E+02  0.32790027065E+02  0.69378229678E+02  0.78044646647E+02  0.00000000000E+00 0. -1.
<mgrwt>
<rscale>  0 0.91836805E+02</rscale>
<asrwt>0</asrwt>
<pdfrwt beam="2">  1        1 0.29970419E-02 0.91836805E+02</pdfrwt>
<pdfrwt beam="1">  1       -1 0.16651525E-01 0.91836805E+02</pdfrwt>
<totfact> 0.78679454E+04</totfact>
</mgrwt>
</event>
<event>
 7    1  0.3301067E-009  0.9037383E+02  0.7818608E-02  0.1301949E+00
          1   -1    0    0  501    0  0.00000000000E+00  0.00000000000E+00  0.33812019623E+03  0.33812019627E+03  0.50400000000E-02 0. -1.
         -1   -1    0    0    0  501 -0.00000000000E+00 -0.00000000000E+00 -0.60388499928E+01  0.60388520960E+01  0.50400000000E-02 0.  1.
         23    2    1    2    0    0 -0.17763568394E-14  0.00000000000E+00  0.33208134624E+03  0.34415904837E+03  0.90373834996E+02 0.  0.
    9000005    2    3    3    0    0 -0.15125377150E+02  0.41742392660E+02  0.17277811641E+03  0.17878455392E+03  0.11850520305E+02 0.  0.
         22    1    3    3    0    0  0.15125377150E+02 -0.41742392660E+02  0.15930322983E+03  0.16537449444E+03  0.00000000000E+00 0.  1.
         22    1    4    4    0    0 -0.40567941883E+01  0.55825174238E+01  0.14598269101E+02  0.16147183674E+02  0.00000000000E+00 0. -1.
         22    1    4    4    0    0 -0.11068582962E+02  0.36159875236E+02  0.15817984731E+03  0.16263737025E+03  0.00000000000E+00 0. -1.
<mgrwt>
<rscale>  0 0.90373835E+02</rscale>
<asrwt>0</asrwt>
<pdfrwt beam="1">  1        1 0.52018495E-01 0.90373835E+02</pdfrwt>
<pdfrwt beam="2">  1       -1 0.92905395E-03 0.90373835E+02</pdfrwt>
<totfact> 0.13413159E+05</totfact>
</mgrwt>
</event>
<event>
 7    1  0.3301067E-009  0.9060625E+02  0.7818608E-02  0.1301390E+00
          1   -1    0    0  501    0  0.00000000000E+00  0.00000000000E+00  0.77051273185E+03  0.77051273186E+03  0.50400000000E-02 0. -1.
         -1   -1    0    0    0  501 -0.00000000000E+00 -0.00000000000E+00 -0.26636434880E+01  0.26636482562E+01  0.50400000000E-02 0.  1.
         23    2    1    2    0    0 -0.35527136788E-14  0.00000000000E+00  0.76784908836E+03  0.77317638012E+03  0.90606248577E+02 0.  0.
    9000005    2    3    3    0    0 -0.30431449089E+02  0.72572118912E+01  0.66026940469E+03  0.66114009780E+03  0.13107323483E+02 0.  0.
         22    1    3    3    0    0  0.30431449089E+02 -0.72572118912E+01  0.10757968367E+03  0.11203628232E+03  0.00000000000E+00 0.  1.
         22    1    4    4    0    0 -0.18454219324E+02  0.44976437329E+01  0.51551773166E+03  0.51586753985E+03  0.00000000000E+00 0. -1.
         22    1    4    4    0    0 -0.11977229764E+02  0.27595681583E+01  0.14475167303E+03  0.14527255795E+03  0.00000000000E+00 0. -1.
<mgrwt>
<rscale>  0 0.90606249E+02</rscale>
<asrwt>0</asrwt>
<pdfrwt beam="1">  1        1 0.11854063E+00 0.90606249E+02</pdfrwt>
<pdfrwt beam="2">  1       -1 0.40979094E-03 0.90606249E+02</pdfrwt>
<totfact> 0.14406953E+05</totfact>
</mgrwt>
</event>
<event>
 7    1  0.3301067E-009  0.8148310E+02  0.7818608E-02  0.1324895E+00
          1   -1    0    0  501    0  0.00000000000E+00  0.00000000000E+00  0.81147984256E+02  0.81147984413E+02  0.50400000000E-02 0. -1.
         -1   -1    0    0    0  501 -0.00000000000E+00 -0.00000000000E+00 -0.20454900110E+02  0.20454900731E+02  0.50400000000E-02 0.  1.
         23    2    1    2    0    0  0.00000000000E+00  0.00000000000E+00  0.60693084146E+02  0.10160288514E+03  0.81483101355E+02 0.  0.
    9000005    2    3    3    0    0  0.33989879790E+02  0.20710852591E+02  0.23126922904E+02  0.46872018043E+02  0.88249741786E+01 0.  0.
         22    1    3    3    0    0 -0.33989879790E+02 -0.20710852591E+02  0.37566161242E+02  0.54730867101E+02  0.00000000000E+00 0. -1.
         22    1    4    4    0    0  0.84603932346E+01  0.85507337375E+01  0.10236525247E+02  0.15794927992E+02  0.00000000000E+00 0. -1.
         22    1    4    4    0    0  0.25529486555E+02  0.12160118853E+02  0.12890397657E+02  0.31077090051E+02  0.00000000000E+00 0. -1.
<mgrwt>
<rscale>  0 0.81483101E+02</rscale>
<asrwt>0</asrwt>
<pdfrwt beam="1">  1        1 0.12484306E-01 0.81483101E+02</pdfrwt>
<pdfrwt beam="2">  1       -1 0.31469077E-02 0.81483101E+02</pdfrwt>
<totfact> 0.13709759E+05</totfact>
</mgrwt>
</event>
<event>
 7    1  0.3301067E-009  0.9453078E+02  0.7818608E-02  0.1292236E+00
         -1   -1    0    0    0  501 -0.00000000000E+00  0.00000000000E+00  0.66029797934E+03  0.66029797936E+03  0.50400000000E-02 0. -1.
          1   -1    0    0  501    0  0.00000000000E+00 -0.00000000000E+00 -0.33833446252E+01  0.33833483791E+01  0.50400000000E-02 0.  1.
         23    2    1    2    0    0  0.00000000000E+00  0.00000000000E+00  0.65691463472E+03  0.66368132774E+03  0.94530775339E+02 0.  0.
    9000005    2    3    3    0    0 -0.38446187135E+02 -0.40585596600E+01  0.51493044240E+03  0.51652803325E+03  0.12380121586E+02 0.  0.
         22    1    3    3    0    0  0.38446187135E+02  0.40585596600E+01  0.14198419232E+03  0.14715329449E+03  0.00000000000E+00 0.  1.
         22    1    4    4    0    0 -0.19592345213E+02 -0.82844789671E+01  0.26904666936E+03  0.26988627767E+03  0.00000000000E+00 0.  1.
         22    1    4    4    0    0 -0.18853841922E+02  0.42259193071E+01  0.24588377304E+03  0.24664175558E+03  0.00000000000E+00 0.  1.
<mgrwt>
<rscale>  0 0.94530775E+02</rscale>
<asrwt>0</asrwt>
<pdfrwt beam="2">  1        1 0.52051502E-03 0.94530775E+02</pdfrwt>
<pdfrwt beam="1">  1       -1 0.10158427E+00 0.94530775E+02</pdfrwt>
<totfact> 0.35164850E+04</totfact>
</mgrwt>
</event>
<event>
 7    1  0.3301067E-009  0.1001569E+03  0.7818608E-02  0.1279966E+00
         -1   -1    0    0    0  501 -0.00000000000E+00  0.00000000000E+00  0.35415590710E+02  0.35415591068E+02  0.50400000000E-02 0.  1.
          1   -1    0    0  501    0  0.00000000000E+00 -0.00000000000E+00 -0.70812039694E+02  0.70812039874E+02  0.50400000000E-02 0. -1.
         23    2    1    2    0    0 -0.17763568394E-14  0.00000000000E+00 -0.35396448985E+02  0.10622763094E+03  0.10015688181E+03 0.  0.
    9000005    2    3    3    0    0 -0.87483638839E+01  0.21552347855E+02  0.27905971078E+02  0.38787035197E+02  0.13588719913E+02 0.  0.
         22    1    3    3    0    0  0.87483638839E+01 -0.21552347855E+02 -0.63302420063E+02  0.67440595745E+02  0.00000000000E+00 0. -1.
         22    1    4    4    0    0 -0.49358724893E+01  0.61424670405E+00  0.22677808274E+01  0.54665314529E+01  0.00000000000E+00 0. -1.
         22    1    4    4    0    0 -0.38124913945E+01  0.20938101151E+02  0.25638190250E+02  0.33320503744E+02  0.00000000000E+00 0. -1.
<mgrwt>
<rscale>  0 0.10015688E+03</rscale>
<asrwt>0</asrwt>
<pdfrwt beam="2">  1        1 0.10894160E-01 0.10015688E+03</pdfrwt>
<pdfrwt beam="1">  1       -1 0.54485525E-02 0.10015688E+03</pdfrwt>
<totfact> 0.76144363E+04</totfact>
</mgrwt>
</event>
<event>
 7    1  0.3301067E-009  0.9111114E+02  0.7818608E-02  0.1300183E+00
         -1   -1    0    0    0  501 -0.00000000000E+00  0.00000000000E+00  0.55187343327E+01  0.55187366341E+01  0.50400000000E-02 0.  1.
          1   -1    0    0  501    0  0.00000000000E+00 -0.00000000000E+00 -0.37604809168E+03  0.37604809171E+03  0.50400000000E-02 0. -1.
         23    2    1    2    0    0  0.00000000000E+00  0.00000000000E+00 -0.37052935735E+03  0.38156682835E+03  0.91111140039E+02 0.  0.
    9000005    2    3    3    0    0  0.27501199918E+02  0.35291327638E+02 -0.20263571315E+03  0.20781393034E+03  0.11117715468E+02 0.  0.
         22    1    3    3    0    0 -0.27501199918E+02 -0.35291327638E+02 -0.16789364420E+03  0.17375289801E+03  0.00000000000E+00 0. -1.
         22    1    4    4    0    0  0.18162097212E+02  0.14327231557E+02 -0.10469542623E+03  0.10722063053E+03  0.00000000000E+00 0.  1.
         22    1    4    4    0    0  0.93391027061E+01  0.20964096080E+02 -0.97940286925E+02  0.10059329981E+03  0.00000000000E+00 0.  1.
<mgrwt>
<rscale>  0 0.91111140E+02</rscale>
<asrwt>0</asrwt>
<pdfrwt beam="2">  1        1 0.57853533E-01 0.91111140E+02</pdfrwt>
<pdfrwt beam="1">  1       -1 0.84903653E-03 0.91111140E+02</pdfrwt>
<totfact> 0.13375450E+05</totfact>
</mgrwt>
</event>
<event>
 7    1  0.3301067E-009  0.9004504E+02  0.7818608E-02  0.1302743E+00
         -1   -1    0    0    0  501 -0.00000000000E+00  0.00000000000E+00  0.15156046187E+02  0.15156047025E+02  0.50400000000E-02 0.  1.
          1   -1    0    0  501    0  0.00000000000E+00 -0.00000000000E+00 -0.13374380433E+03  0.13374380442E+03  0.50400000000E-02 0. -1.
         23    2    1    2    0    0  0.00000000000E+00  0.44408920985E-15 -0.11858775814E+03  0.14889985145E+03  0.90045040844E+02 0.  0.
    9000005    2    3    3    0    0 -0.32775092203E+02  0.27216646285E+01 -0.10923086945E+03  0.11470678939E+03  0.12027076226E+02 0.  0.
         22    1    3    3    0    0  0.32775092203E+02 -0.27216646285E+01 -0.93568886877E+01  0.34193062062E+02  0.00000000000E+00 0.  1.
         22    1    4    4    0    0 -0.33477538433E+02  0.21794840138E+01 -0.10846443572E+03  0.11353426596E+03  0.00000000000E+00 0.  1.
         22    1    4    4    0    0  0.70244623025E+00  0.54218061475E+00 -0.76643373078E+00  0.11725234279E+01  0.00000000000E+00 0.  1.
<mgrwt>
<rscale>  0 0.90045041E+02</rscale>
<asrwt>0</asrwt>
<pdfrwt beam="2">  1        1 0.20575969E-01 0.90045041E+02</pdfrwt>
<pdfrwt beam="1">  1       -1 0.23316996E-02 0.90045041E+02</pdfrwt>
<totfact> 0.11359071E+05</totfact>
</mgrwt>
</event>
<event>
 7    1  0.3301067E-009  0.9098063E+02  0.7818608E-02  0.1300494E+00
          1   -1    0    0  501    0  0.00000000000E+00  0.00000000000E+00  0.90092975621E+03  0.90092975622E+03  0.50400000000E-02 0. -1.
         -1   -1    0    0    0  501 -0.00000000000E+00 -0.00000000000E+00 -0.22969229965E+01  0.22969285260E+01  0.50400000000E-02 0.  1.
         23    2    1    2    0    0 -0.35527136788E-14  0.00000000000E+00  0.89863283321E+03  0.90322668475E+03  0.90980630441E+02 0.  0.
    9000005    2    3    3    0    0  0.28966759820E+02 -0.14656612362E+02  0.76147254164E+03  0.76227692404E+03  0.13106784036E+02 0.  0.
         22    1    3    3    0    0 -0.28966759820E+02  0.14656612362E+02  0.13716029157E+03  0.14094976071E+03  0.00000000000E+00 0.  1.
         22    1    4    4    0    0  0.19609875913E+02 -0.16239942823E+02  0.53456224128E+03  0.53516826586E+03  0.00000000000E+00 0. -1.
         22    1    4    4    0    0  0.93568839072E+01  0.15833304617E+01  0.22691030036E+03  0.22710865819E+03  0.00000000000E+00 0. -1.
<mgrwt>
<rscale>  0 0.90980630E+02</rscale>
<asrwt>0</asrwt>
<pdfrwt beam="1">  1        1 0.13860447E+00 0.90980630E+02</pdfrwt>
<pdfrwt beam="2">  1       -1 0.35337346E-03 0.90980630E+02</pdfrwt>
<totfact> 0.13994587E+05</totfact>
</mgrwt>
</event>
<event>
 7    1  0.3301067E-009  0.8717130E+02  0.7818608E-02  0.1309850E+00
          1   -1    0    0  501    0  0.00000000000E+00  0.00000000000E+00  0.80229497706E+03  0.80229497708E+03  0.50400000000E-02 0. -1.
         -1   -1    0    0    0  501 -0.00000000000E+00 -0.00000000000E+00 -0.23678408345E+01  0.23678461984E+01  0.50400000000E-02 0.  1.
         23    2    1    2    0    0 -0.49960036108E-15  0.71054273576E-14  0.79992713623E+03  0.80466282327E+03  0.87171301985E+02 0.  0.
    9000005    2    3    3    0    0  0.43300118616E+00 -0.37267336974E+02  0.59780073501E+03  0.59912906944E+03  0.14173255780E+02 0.  0.
         22    1    3    3    0    0 -0.43300118616E+00  0.37267336974E+02  0.20212640122E+03  0.20553375383E+03  0.00000000000E+00 0.  1.
         22    1    4    4    0    0 -0.42869259629E+01 -0.18930317224E+02  0.38449025777E+03  0.38497986047E+03  0.00000000000E+00 0.  1.
         22    1    4    4    0    0  0.47199271491E+01 -0.18337019750E+02  0.21331047724E+03  0.21414920897E+03  0.00000000000E+00 0.  1.
<mgrwt>
<rscale>  0 0.87171302E+02</rscale>
<asrwt>0</asrwt>
<pdfrwt beam="1">  1        1 0.12343009E+00 0.87171302E+02</pdfrwt>
<pdfrwt beam="2">  1       -1 0.36428334E-03 0.87171302E+02</pdfrwt>
<totfact> 0.15903661E+05</totfact>
</mgrwt>
</event>
<event>
 7    1  0.3301067E-009  0.9141307E+02  0.7818608E-02  0.1299465E+00
         -1   -1    0    0    0  501 -0.00000000000E+00  0.00000000000E+00  0.11264707908E+02  0.11264709035E+02  0.50400000000E-02 0.  1.
          1   -1    0    0  501    0  0.00000000000E+00 -0.00000000000E+00 -0.18545419335E+03  0.18545419342E+03  0.50400000000E-02 0. -1.
         23    2    1    2    0    0 -0.17763568394E-14  0.00000000000E+00 -0.17418948544E+03  0.19671890245E+03  0.91413072062E+02 0.  0.
    9000005    2    3    3    0    0  0.98494703590E+01  0.26746387331E+02 -0.16370773151E+03  0.16635035841E+03  0.77355727635E+01 0.  0.
         22    1    3    3    0    0 -0.98494703590E+01 -0.26746387331E+02 -0.10481753930E+02  0.30368544039E+02  0.00000000000E+00 0.  1.
         22    1    4    4    0    0  0.32591377583E+01  0.18818170910E+02 -0.11341872945E+03  0.11501544994E+03  0.00000000000E+00 0.  1.
         22    1    4    4    0    0  0.65903326007E+01  0.79282164205E+01 -0.50289002059E+02  0.51334908468E+02  0.00000000000E+00 0.  1.
<mgrwt>
<rscale>  0 0.91413072E+02</rscale>
<asrwt>0</asrwt>
<pdfrwt beam="2">  1        1 0.28531412E-01 0.91413072E+02</pdfrwt>
<pdfrwt beam="1">  1       -1 0.17330322E-02 0.91413072E+02</pdfrwt>
<totfact> 0.11588320E+05</totfact>
</mgrwt>
</event>
<event>
 7    1  0.3301067E-009  0.9111098E+02  0.7818608E-02  0.1300183E+00
          1   -1    0    0  501    0  0.00000000000E+00  0.00000000000E+00  0.43125695560E+02  0.43125695855E+02  0.50400000000E-02 0. -1.
         -1   -1    0    0    0  501 -0.00000000000E+00 -0.00000000000E+00 -0.48122186412E+02  0.48122186676E+02  0.50400000000E-02 0.  1.
         23    2    1    2    0    0  0.00000000000E+00  0.00000000000E+00 -0.49964908515E+01  0.91247882530E+02  0.91110982573E+02 0.  0.
    9000005    2    3    3    0    0 -0.28377685366E+02 -0.25792581890E+02  0.19932096963E+02  0.45509662214E+02  0.14257999796E+02 0.  0.
         22    1    3    3    0    0  0.28377685366E+02  0.25792581890E+02 -0.24928587815E+02  0.45738220316E+02  0.00000000000E+00 0.  1.
         22    1    4    4    0    0 -0.11298815419E+02 -0.98823345783E+01  0.30643050297E+00  0.15013915753E+02  0.00000000000E+00 0.  1.
         22    1    4    4    0    0 -0.17078869947E+02 -0.15910247312E+02  0.19625666460E+02  0.30495746461E+02  0.00000000000E+00 0.  1.
<mgrwt>
<rscale>  0 0.91110983E+02</rscale>
<asrwt>0</asrwt>
<pdfrwt beam="1">  1        1 0.66347224E-02 0.91110983E+02</pdfrwt>
<pdfrwt beam="2">  1       -1 0.74034133E-02 0.91110983E+02</pdfrwt>
<totfact> 0.91889027E+04</totfact>
</mgrwt>
</event>
<event>
 7    1  0.3301067E-009  0.9176475E+02  0.7818608E-02  0.1298634E+00
          1   -1    0    0  501    0  0.00000000000E+00  0.00000000000E+00  0.89521147405E+02  0.89521147547E+02  0.50400000000E-02 0. -1.
         -1   -1    0    0    0  501 -0.00000000000E+00 -0.00000000000E+00 -0.23516146215E+02  0.23516146755E+02  0.50400000000E-02 0.  1.
         23    2    1    2    0    0  0.00000000000E+00  0.00000000000E+00  0.66005001191E+02  0.11303729430E+03  0.91764752061E+02 0.  0.
    9000005    2    3    3    0    0  0.28312010824E+02  0.21162929967E+01 -0.11115933867E+02  0.30856473686E+02  0.47443998196E+01 0.  0.
         22    1    3    3    0    0 -0.28312010824E+02 -0.21162929967E+01  0.77120935058E+02  0.82180820616E+02  0.00000000000E+00 0. -1.
         22    1    4    4    0    0  0.28204749844E+02  0.25583263363E+01 -0.10838539826E+02  0.30323701835E+02  0.00000000000E+00 0. -1.
         22    1    4    4    0    0  0.10726097970E+00 -0.44203333954E+00 -0.27739404135E+00  0.53277185099E+00  0.00000000000E+00 0. -1.
<mgrwt>
<rscale>  0 0.91764752E+02</rscale>
<asrwt>0</asrwt>
<pdfrwt beam="1">  1        1 0.13772485E-01 0.91764752E+02</pdfrwt>
<pdfrwt beam="2">  1       -1 0.36178686E-02 0.91764752E+02</pdfrwt>
<totfact> 0.10078186E+05</totfact>
</mgrwt>
</event>
<event>
 7    1  0.3391403E-009  0.8928815E+02  0.7818608E-02  0.1304585E+00
         -1   -1    0    0    0  501 -0.00000000000E+00  0.00000000000E+00  0.46663268156E+02  0.46663268428E+02  0.50400000000E-02 0.  1.
          1   -1    0    0  501    0  0.00000000000E+00 -0.00000000000E+00 -0.42712253123E+02  0.42712253421E+02  0.50400000000E-02 0. -1.
         23    2    1    2    0    0  0.44408920985E-15  0.17763568394E-14  0.39510150325E+01  0.89375521848E+02  0.89288148071E+02 0.  0.
    9000005    2    3    3    0    0 -0.25534640740E+01 -0.14420832409E+02  0.43101652470E+02  0.47575366372E+02  0.13826874325E+02 0.  0.
         22    1    3    3    0    0  0.25534640740E+01  0.14420832409E+02 -0.39150637437E+02  0.41800155477E+02  0.00000000000E+00 0. -1.
         22    1    4    4    0    0  0.49063446454E+01 -0.10629498949E+02  0.23215853777E+02  0.26000660228E+02  0.00000000000E+00 0.  1.
         22    1    4    4    0    0 -0.74598087194E+01 -0.37913334598E+01  0.19885798693E+02  0.21574706144E+02  0.00000000000E+00 0.  1.
<mgrwt>
<rscale>  0 0.89288148E+02</rscale>
<asrwt>0</asrwt>
<pdfrwt beam="2">  1        1 0.65711159E-02 0.89288148E+02</pdfrwt>
<pdfrwt beam="1">  1       -1 0.71789644E-02 0.89288148E+02</pdfrwt>
<totfact> 0.97113151E+04</totfact>
</mgrwt>
</event>
<event>
 7    1  0.3301067E-009  0.9000570E+02  0.7818608E-02  0.1302838E+00
         -1   -1    0    0    0  501 -0.00000000000E+00  0.00000000000E+00  0.26009210589E+02  0.26009211077E+02  0.50400000000E-02 0.  1.
          1   -1    0    0  501    0  0.00000000000E+00 -0.00000000000E+00 -0.77866895137E+02  0.77866895301E+02  0.50400000000E-02 0. -1.
         23    2    1    2    0    0  0.00000000000E+00  0.00000000000E+00 -0.51857684548E+02  0.10387610638E+03  0.90005699983E+02 0.  0.
    9000005    2    3    3    0    0  0.29232413662E+02  0.32381413897E+02 -0.15503205789E+02  0.47089328865E+02  0.86003214323E+01 0.  0.
         22    1    3    3    0    0 -0.29232413662E+02 -0.32381413897E+02 -0.36354478760E+02  0.56786777513E+02  0.00000000000E+00 0. -1.
         22    1    4    4    0    0  0.52975236679E+01  0.41245905283E+01 -0.56359533607E+01  0.87658413357E+01  0.00000000000E+00 0. -1.
         22    1    4    4    0    0  0.23934889994E+02  0.28256823369E+02 -0.98672524281E+01  0.38323487529E+02  0.00000000000E+00 0. -1.
<mgrwt>
<rscale>  0 0.90005700E+02</rscale>
<asrwt>0</asrwt>
<pdfrwt beam="2">  1        1 0.11979522E-01 0.90005700E+02</pdfrwt>
<pdfrwt beam="1">  1       -1 0.40014171E-02 0.90005700E+02</pdfrwt>
<totfact> 0.10393730E+05</totfact>
</mgrwt>
</event>
<event>
 7    1  0.3301067E-009  0.8963189E+02  0.7818608E-02  0.1303746E+00
         -1   -1    0    0    0  501 -0.00000000000E+00  0.00000000000E+00  0.65442619234E+02  0.65442619428E+02  0.50400000000E-02 0.  1.
          1   -1    0    0  501    0  0.00000000000E+00 -0.00000000000E+00 -0.30690536089E+02  0.30690536503E+02  0.50400000000E-02 0. -1.
         23    2    1    2    0    0  0.00000000000E+00  0.00000000000E+00  0.34752083145E+02  0.96133155931E+02  0.89631893801E+02 0.  0.
    9000005    2    3    3    0    0 -0.10950265995E+02  0.31876174907E+02  0.47296626511E+02  0.60169779834E+02  0.15729992814E+02 0.  0.
         22    1    3    3    0    0  0.10950265995E+02 -0.31876174907E+02 -0.12544543366E+02  0.35963376097E+02  0.00000000000E+00 0. -1.
         22    1    4    4    0    0 -0.10079090048E+02  0.28645247341E+02  0.30486476561E+02  0.43029797868E+02  0.00000000000E+00 0. -1.
         22    1    4    4    0    0 -0.87117594659E+00  0.32309275656E+01  0.16810149950E+02  0.17139981966E+02  0.00000000000E+00 0. -1.
<mgrwt>
<rscale>  0 0.89631894E+02</rscale>
<asrwt>0</asrwt>
<pdfrwt beam="2">  1        1 0.47216210E-02 0.89631894E+02</pdfrwt>
<pdfrwt beam="1">  1       -1 0.10068095E-01 0.89631894E+02</pdfrwt>
<totfact> 0.91360402E+04</totfact>
</mgrwt>
</event>
<event>
 7    1  0.3301067E-009  0.8535737E+02  0.7818608E-02  0.1314501E+00
          1   -1    0    0  501    0  0.00000000000E+00  0.00000000000E+00  0.11470127455E+03  0.11470127466E+03  0.50400000000E-02 0. -1.
         -1   -1    0    0    0  501 -0.00000000000E+00 -0.00000000000E+00 -0.15880122357E+02  0.15880123157E+02  0.50400000000E-02 0.  1.
         23    2    1    2    0    0  0.00000000000E+00  0.35527136788E-14  0.98821152196E+02  0.13058139782E+03  0.85357374231E+02 0.  0.
    9000005    2    3    3    0    0  0.27102166627E+02 -0.27526048699E+02  0.75103367873E+02  0.85252112739E+02  0.11627384389E+02 0.  0.
         22    1    3    3    0    0 -0.27102166627E+02  0.27526048699E+02  0.23717784324E+02  0.45329285083E+02  0.00000000000E+00 0.  1.
         22    1    4    4    0    0  0.17045663758E+02 -0.91015177667E+01  0.34432176132E+02  0.39483756557E+02  0.00000000000E+00 0. -1.
         22    1    4    4    0    0  0.10056502869E+02 -0.18424530933E+02  0.40671191740E+02  0.45768356182E+02  0.00000000000E+00 0. -1.
<mgrwt>
<rscale>  0 0.85357374E+02</rscale>
<asrwt>0</asrwt>
<pdfrwt beam="1">  1        1 0.17646349E-01 0.85357374E+02</pdfrwt>
<pdfrwt beam="2">  1       -1 0.24430959E-02 0.85357374E+02</pdfrwt>
<totfact> 0.12775730E+05</totfact>
</mgrwt>
</event>
<event>
 7    1  0.3301067E-009  0.9175893E+02  0.7818608E-02  0.1298647E+00
          1   -1    0    0  501    0  0.00000000000E+00  0.00000000000E+00  0.12489937886E+04  0.12489937886E+04  0.50400000000E-02 0. -1.
         -1   -1    0    0    0  501 -0.00000000000E+00 -0.00000000000E+00 -0.16852929491E+01  0.16853004853E+01  0.50400000000E-02 0.  1.
         23    2    1    2    0    0  0.00000000000E+00 -0.88817841970E-15  0.12473084956E+04  0.12506790891E+04  0.91758926419E+02 0.  0.
    9000005    2    3    3    0    0  0.24127206854E+02 -0.54750228402E+01  0.11497743751E+04  0.11500560169E+04  0.59691200350E+01 0.  0.
         22    1    3    3    0    0 -0.24127206854E+02  0.54750228402E+01  0.97534120551E+02  0.10062307219E+03  0.00000000000E+00 0.  1.
         22    1    4    4    0    0  0.17697436531E+02 -0.66611388385E+01  0.84694690396E+03  0.84715797119E+03  0.00000000000E+00 0. -1.
         22    1    4    4    0    0  0.64297703233E+01  0.11861159983E+01  0.30282747111E+03  0.30289804568E+03  0.00000000000E+00 0. -1.
<mgrwt>
<rscale>  0 0.91758926E+02</rscale>
<asrwt>0</asrwt>
<pdfrwt beam="1">  1        1 0.19215356E+00 0.91758926E+02</pdfrwt>
<pdfrwt beam="2">  1       -1 0.25927551E-03 0.91758926E+02</pdfrwt>
<totfact> 0.12271235E+05</totfact>
</mgrwt>
</event>
<event>
 7    1  0.3301067E-009  0.8831600E+02  0.7818608E-02  0.1306982E+00
         -1   -1    0    0    0  501 -0.00000000000E+00  0.00000000000E+00  0.14629910758E+03  0.14629910767E+03  0.50400000000E-02 0.  1.
          1   -1    0    0  501    0  0.00000000000E+00 -0.00000000000E+00 -0.13328372662E+02  0.13328373615E+02  0.50400000000E-02 0. -1.
         23    2    1    2    0    0  0.00000000000E+00  0.44408920985E-15  0.13297073492E+03  0.15962748128E+03  0.88316003283E+02 0.  0.
    9000005    2    3    3    0    0 -0.42558935187E+02  0.20748666328E+01  0.62972517974E+02  0.77680434897E+02  0.15910496852E+02 0.  0.
         22    1    3    3    0    0  0.42558935187E+02 -0.20748666328E+01  0.69998216943E+02  0.81947046384E+02  0.00000000000E+00 0.  1.
         22    1    4    4    0    0 -0.21218249341E+02  0.75341837945E+01  0.23966227381E+02  0.32884009570E+02  0.00000000000E+00 0. -1.
         22    1    4    4    0    0 -0.21340685846E+02 -0.54593171617E+01  0.39006290593E+02  0.44796425328E+02  0.00000000000E+00 0. -1.
<mgrwt>
<rscale>  0 0.88316003E+02</rscale>
<asrwt>0</asrwt>
<pdfrwt beam="2">  1        1 0.20505188E-02 0.88316003E+02</pdfrwt>
<pdfrwt beam="1">  1       -1 0.22507556E-01 0.88316003E+02</pdfrwt>
<totfact> 0.81699464E+04</totfact>
</mgrwt>
</event>
<event>
 7    1  0.3301067E-009  0.9272259E+02  0.7818608E-02  0.1296389E+00
          1   -1    0    0  501    0  0.00000000000E+00  0.00000000000E+00  0.12531253486E+03  0.12531253496E+03  0.50400000000E-02 0. -1.
         -1   -1    0    0    0  501 -0.00000000000E+00 -0.00000000000E+00 -0.17152071133E+02  0.17152071874E+02  0.50400000000E-02 0.  1.
         23    2    1    2    0    0 -0.22204460493E-15  0.00000000000E+00  0.10816046372E+03  0.14246460683E+03  0.92722587791E+02 0.  0.
    9000005    2    3    3    0    0  0.52961407480E+00 -0.28888269543E+02 -0.65261206346E+00  0.29880868794E+02  0.75912982530E+01 0.  0.
         22    1    3    3    0    0 -0.52961407480E+00  0.28888269543E+02  0.10881307579E+03  0.11258373804E+03  0.00000000000E+00 0. -1.
         22    1    4    4    0    0  0.27060238922E+01 -0.26330145311E+02 -0.51877138960E-01  0.26468883782E+02  0.00000000000E+00 0.  1.
         22    1    4    4    0    0 -0.21764098174E+01 -0.25581242313E+01 -0.60073492450E+00  0.34119850125E+01  0.00000000000E+00 0.  1.
<mgrwt>
<rscale>  0 0.92722588E+02</rscale>
<asrwt>0</asrwt>
<pdfrwt beam="1">  1        1 0.19278852E-01 0.92722588E+02</pdfrwt>
<pdfrwt beam="2">  1       -1 0.26387802E-02 0.92722588E+02</pdfrwt>
<totfact> 0.10371667E+05</totfact>
</mgrwt>
</event>
<event>
 7    1  0.3301067E-009  0.9558391E+02  0.7818608E-02  0.1289866E+00
         -1   -1    0    0    0  501 -0.00000000000E+00  0.00000000000E+00  0.32723904005E+03  0.32723904009E+03  0.50400000000E-02 0.  1.
          1   -1    0    0  501    0  0.00000000000E+00 -0.00000000000E+00 -0.69798237740E+01  0.69798255936E+01  0.50400000000E-02 0. -1.
         23    2    1    2    0    0  0.88817841970E-15  0.35527136788E-14  0.32025921628E+03  0.33421886569E+03  0.95583913753E+02 0.  0.
    9000005    2    3    3    0    0  0.69061607435E+01  0.29843365711E+02  0.28831978376E+03  0.28996449999E+03  0.35765927984E+01 0.  0.
         22    1    3    3    0    0 -0.69061607435E+01 -0.29843365711E+02  0.31939432520E+02  0.44254365693E+02  0.00000000000E+00 0. -1.
         22    1    4    4    0    0  0.65630247781E+01  0.21627635089E+02  0.21543381062E+03  0.21661614587E+03  0.00000000000E+00 0.  1.
         22    1    4    4    0    0  0.34313596546E+00  0.82157306219E+01  0.72885973137E+02  0.73348354120E+02  0.00000000000E+00 0.  1.
<mgrwt>
<rscale>  0 0.95583914E+02</rscale>
<asrwt>0</asrwt>
<pdfrwt beam="2">  1        1 0.10738191E-02 0.95583914E+02</pdfrwt>
<pdfrwt beam="1">  1       -1 0.50344472E-01 0.95583914E+02</pdfrwt>
<totfact> 0.51665877E+04</totfact>
</mgrwt>
</event>
<event>
 7    1  0.3301067E-009  0.9493497E+02  0.7818608E-02  0.1291323E+00
          1   -1    0    0  501    0  0.00000000000E+00  0.00000000000E+00  0.87526224988E+01  0.87526239499E+01  0.50400000000E-02 0. -1.
         -1   -1    0    0    0  501 -0.00000000000E+00 -0.00000000000E+00 -0.25742708132E+03  0.25742708137E+03  0.50400000000E-02 0.  1.
         23    2    1    2    0    0  0.00000000000E+00  0.88817841970E-15 -0.24867445882E+03  0.26617970532E+03  0.94934972765E+02 0.  0.
    9000005    2    3    3    0    0  0.47017370214E+02  0.53372008302E+01 -0.12651443641E+03  0.13517516383E+03  0.52252734519E+01 0.  0.
         22    1    3    3    0    0 -0.47017370214E+02 -0.53372008302E+01 -0.12216002242E+03  0.13100454149E+03  0.00000000000E+00 0. -1.
         22    1    4    4    0    0  0.19666378012E+01  0.13205057004E+01 -0.57554206026E+01  0.62238465484E+01  0.00000000000E+00 0. -1.
         22    1    4    4    0    0  0.45050732413E+02  0.40166951298E+01 -0.12075901581E+03  0.12895131728E+03  0.00000000000E+00 0. -1.
<mgrwt>
<rscale>  0 0.94934973E+02</rscale>
<asrwt>0</asrwt>
<pdfrwt beam="1">  1        1 0.13465576E-02 0.94934973E+02</pdfrwt>
<pdfrwt beam="2">  1       -1 0.39604161E-01 0.94934973E+02</pdfrwt>
<totfact> 0.57686493E+04</totfact>
</mgrwt>
</event>
<event>
 7    1  0.3301067E-009  0.1245062E+03  0.7818608E-02  0.1235843E+00
         -1   -1    0    0    0  501 -0.00000000000E+00  0.00000000000E+00  0.53084574935E+03  0.53084574938E+03  0.50400000000E-02 0.  1.
          1   -1    0    0  501    0  0.00000000000E+00 -0.00000000000E+00 -0.73005105115E+01  0.73005122512E+01  0.50400000000E-02 0. -1.
         23    2    1    2    0    0  0.00000000000E+00  0.00000000000E+00  0.52354523884E+03  0.53814626163E+03  0.12450615162E+03 0.  0.
    9000005    2    3    3    0    0  0.37974365178E+02 -0.15375416414E+02  0.46295419345E+03  0.46500440889E+03  0.14968607550E+02 0.  0.
         22    1    3    3    0    0 -0.37974365178E+02  0.15375416414E+02  0.60591045391E+02  0.73141852739E+02  0.00000000000E+00 0. -1.
         22    1    4    4    0    0  0.86748465714E+01  0.18783783194E+01  0.65542863940E+02  0.66141123982E+02  0.00000000000E+00 0.  1.
         22    1    4    4    0    0  0.29299518606E+02 -0.17253794734E+02  0.39741132951E+03  0.39886328491E+03  0.00000000000E+00 0.  1.
<mgrwt>
<rscale>  0 0.12450615E+03</rscale>
<asrwt>0</asrwt>
<pdfrwt beam="2">  1        1 0.11231553E-02 0.12450615E+03</pdfrwt>
<pdfrwt beam="1">  1       -1 0.81668596E-01 0.12450615E+03</pdfrwt>
<totfact> 0.19810373E+04</totfact>
</mgrwt>
</event>
<event>
 7    1  0.3301067E-009  0.8227241E+02  0.7818608E-02  0.1322724E+00
          1   -1    0    0  501    0  0.00000000000E+00  0.00000000000E+00  0.59145810949E+01  0.59145832423E+01  0.50400000000E-02 0. -1.
         -1   -1    0    0    0  501 -0.00000000000E+00 -0.00000000000E+00 -0.28610426016E+03  0.28610426021E+03  0.50400000000E-02 0.  1.
         23    2    1    2    0    0  0.00000000000E+00  0.00000000000E+00 -0.28018967907E+03  0.29201884345E+03  0.82272405298E+02 0.  0.
    9000005    2    3    3    0    0 -0.12633240191E+02  0.38378589781E+02 -0.12722617424E+03  0.13380901846E+03  0.92649393125E+01 0.  0.
         22    1    3    3    0    0  0.12633240191E+02 -0.38378589781E+02 -0.15296350483E+03  0.15820982499E+03  0.00000000000E+00 0. -1.
         22    1    4    4    0    0 -0.38599245401E+01  0.10980530032E+02 -0.24393665536E+02  0.27028170037E+02  0.00000000000E+00 0. -1.
         22    1    4    4    0    0 -0.87733156510E+01  0.27398059749E+02 -0.10283250870E+03  0.10678084843E+03  0.00000000000E+00 0. -1.
<mgrwt>
<rscale>  0 0.82272405E+02</rscale>
<asrwt>0</asrwt>
<pdfrwt beam="1">  1        1 0.90993594E-03 0.82272405E+02</pdfrwt>
<pdfrwt beam="2">  1       -1 0.44016029E-01 0.82272405E+02</pdfrwt>
<totfact> 0.80637370E+04</totfact>
</mgrwt>
</event>
<event>
 7    1  0.3301067E-009  0.9199989E+02  0.7818608E-02  0.1298080E+00
          1   -1    0    0  501    0  0.00000000000E+00  0.00000000000E+00  0.13416630092E+03  0.13416630102E+03  0.50400000000E-02 0. -1.
         -1   -1    0    0    0  501 -0.00000000000E+00 -0.00000000000E+00 -0.15771434207E+02  0.15771435013E+02  0.50400000000E-02 0.  1.
         23    2    1    2    0    0  0.00000000000E+00  0.00000000000E+00  0.11839486671E+03  0.14993773603E+03  0.91999892507E+02 0.  0.
    9000005    2    3    3    0    0  0.25696536009E+02  0.80798054644E+01  0.17044873021E+01  0.30178645073E+02  0.13500004529E+02 0.  0.
         22    1    3    3    0    0 -0.25696536009E+02 -0.80798054644E+01  0.11669037941E+03  0.11975909096E+03  0.00000000000E+00 0. -1.
         22    1    4    4    0    0  0.45136042921E+01 -0.32295872126E+01 -0.19637153392E+01  0.58871924720E+01  0.00000000000E+00 0.  1.
         22    1    4    4    0    0  0.21182931717E+02  0.11309392677E+02  0.36682026413E+01  0.24291452601E+02  0.00000000000E+00 0.  1.
<mgrwt>
<rscale>  0 0.91999893E+02</rscale>
<asrwt>0</asrwt>
<pdfrwt beam="1">  1        1 0.20640970E-01 0.91999893E+02</pdfrwt>
<pdfrwt beam="2">  1       -1 0.24263745E-02 0.91999893E+02</pdfrwt>
<totfact> 0.10724198E+05</totfact>
</mgrwt>
</event>
<event>
 7    1  0.3301067E-009  0.9174316E+02  0.7818608E-02  0.1298684E+00
          1   -1    0    0  501    0  0.00000000000E+00  0.00000000000E+00  0.14637184659E+03  0.14637184667E+03  0.50400000000E-02 0. -1.
         -1   -1    0    0    0  501 -0.00000000000E+00 -0.00000000000E+00 -0.14375726792E+02  0.14375727676E+02  0.50400000000E-02 0.  1.
         23    2    1    2    0    0  0.00000000000E+00  0.00000000000E+00  0.13199611979E+03  0.16074757435E+03  0.91743157882E+02 0.  0.
    9000005    2    3    3    0    0  0.10928828618E+02  0.35944247680E+02  0.11137371061E+03  0.11789069629E+03  0.90931083982E+01 0.  0.
         22    1    3    3    0    0 -0.10928828618E+02 -0.35944247680E+02  0.20622409181E+02  0.42856878056E+02  0.00000000000E+00 0. -1.
         22    1    4    4    0    0  0.44487248887E+01  0.96961231769E+01  0.20921632141E+02  0.23484476771E+02  0.00000000000E+00 0. -1.
         22    1    4    4    0    0  0.64801037289E+01  0.26248124504E+02  0.90452078472E+02  0.94406219520E+02  0.00000000000E+00 0. -1.
<mgrwt>
<rscale>  0 0.91743158E+02</rscale>
<asrwt>0</asrwt>
<pdfrwt beam="1">  1        1 0.22518747E-01 0.91743158E+02</pdfrwt>
<pdfrwt beam="2">  1       -1 0.22116503E-02 0.91743158E+02</pdfrwt>
<totfact> 0.10977787E+05</totfact>
</mgrwt>
</event>
<event>
 7    1  0.3301067E-009  0.9086756E+02  0.7818608E-02  0.1300764E+00
         -1   -1    0    0    0  501 -0.00000000000E+00  0.00000000000E+00  0.14969723601E+02  0.14969724450E+02  0.50400000000E-02 0.  1.
          1   -1    0    0  501    0  0.00000000000E+00 -0.00000000000E+00 -0.13789353908E+03  0.13789353917E+03  0.50400000000E-02 0. -1.
         23    2    1    2    0    0  0.00000000000E+00  0.00000000000E+00 -0.12292381548E+03  0.15286326362E+03  0.90867557210E+02 0.  0.
    9000005    2    3    3    0    0  0.32142280511E+02  0.31710985572E+02 -0.68172974702E+02  0.81895895288E+02  0.45464692913E+01 0.  0.
         22    1    3    3    0    0 -0.32142280511E+02 -0.31710985572E+02 -0.54750840779E+02  0.70967368335E+02  0.00000000000E+00 0.  1.
         22    1    4    4    0    0  0.62064386227E+01  0.38713330334E+01 -0.10191773274E+02  0.12545092359E+02  0.00000000000E+00 0.  1.
         22    1    4    4    0    0  0.25935841889E+02  0.27839652538E+02 -0.57981201428E+02  0.69350802929E+02  0.00000000000E+00 0.  1.
<mgrwt>
<rscale>  0 0.90867557E+02</rscale>
<asrwt>0</asrwt>
<pdfrwt beam="2">  1        1 0.21214390E-01 0.90867557E+02</pdfrwt>
<pdfrwt beam="1">  1       -1 0.23030346E-02 0.90867557E+02</pdfrwt>
<totfact> 0.11144567E+05</totfact>
</mgrwt>
</event>
<event>
 7    1  0.3301067E-009  0.9032771E+02  0.7818608E-02  0.1302060E+00
         -1   -1    0    0    0  501 -0.00000000000E+00  0.00000000000E+00  0.47833893138E+02  0.47833893403E+02  0.50400000000E-02 0.  1.
          1   -1    0    0  501    0  0.00000000000E+00 -0.00000000000E+00 -0.42642854854E+02  0.42642855152E+02  0.50400000000E-02 0. -1.
         23    2    1    2    0    0 -0.17763568394E-14  0.00000000000E+00  0.51910382837E+01  0.90476748556E+02  0.90327709761E+02 0.  0.
    9000005    2    3    3    0    0 -0.15410111003E+02 -0.10511450345E+02  0.43546354250E+02  0.47825929427E+02  0.65629602811E+01 0.  0.
         22    1    3    3    0    0  0.15410111003E+02  0.10511450345E+02 -0.38355315966E+02  0.42650819128E+02  0.00000000000E+00 0. -1.
         22    1    4    4    0    0 -0.12618858593E+02 -0.50325110902E+01  0.31357830797E+02  0.34174190734E+02  0.00000000000E+00 0. -1.
         22    1    4    4    0    0 -0.27912524095E+01 -0.54789392549E+01  0.12188523453E+02  0.13651738693E+02  0.00000000000E+00 0. -1.
<mgrwt>
<rscale>  0 0.90327710E+02</rscale>
<asrwt>0</asrwt>
<pdfrwt beam="2">  1        1 0.65604393E-02 0.90327710E+02</pdfrwt>
<pdfrwt beam="1">  1       -1 0.73590605E-02 0.90327710E+02</pdfrwt>
<totfact> 0.93986873E+04</totfact>
</mgrwt>
</event>
<event>
 7    1  0.3301067E-009  0.9042452E+02  0.7818608E-02  0.1301827E+00
          1   -1    0    0  501    0  0.00000000000E+00  0.00000000000E+00  0.24973059898E+02  0.24973060407E+02  0.50400000000E-02 0. -1.
         -1   -1    0    0    0  501 -0.00000000000E+00 -0.00000000000E+00 -0.81854149509E+02  0.81854149664E+02  0.50400000000E-02 0.  1.
         23    2    1    2    0    0  0.00000000000E+00  0.00000000000E+00 -0.56881089611E+02  0.10682721007E+03  0.90424523533E+02 0.  0.
    9000005    2    3    3    0    0 -0.43917961946E+02 -0.70767040599E+01 -0.31202727151E+02  0.55463356823E+02  0.11122348971E+02 0.  0.
         22    1    3    3    0    0  0.43917961946E+02  0.70767040599E+01 -0.25678362460E+02  0.51363853248E+02  0.00000000000E+00 0. -1.
         22    1    4    4    0    0 -0.88979343678E+01  0.19928984083E+01 -0.30193253948E+01  0.96052696953E+01  0.00000000000E+00 0. -1.
         22    1    4    4    0    0 -0.35020027578E+02 -0.90696024683E+01 -0.28183401756E+02  0.45858087128E+02  0.00000000000E+00 0. -1.
<mgrwt>
<rscale>  0 0.90424524E+02</rscale>
<asrwt>0</asrwt>
<pdfrwt beam="1">  1        1 0.38420093E-02 0.90424524E+02</pdfrwt>
<pdfrwt beam="2">  1       -1 0.12592946E-01 0.90424524E+02</pdfrwt>
<totfact> 0.86129245E+04</totfact>
</mgrwt>
</event>
<event>
 7    1  0.3301067E-009  0.9181351E+02  0.7818608E-02  0.1298519E+00
          1   -1    0    0  501    0  0.00000000000E+00  0.00000000000E+00  0.45480610480E+03  0.45480610483E+03  0.50400000000E-02 0. -1.
         -1   -1    0    0    0  501 -0.00000000000E+00 -0.00000000000E+00 -0.46336877183E+01  0.46336904592E+01  0.50400000000E-02 0.  1.
         23    2    1    2    0    0  0.00000000000E+00  0.00000000000E+00  0.45017241708E+03  0.45943979528E+03  0.91813508768E+02 0.  0.
    9000005    2    3    3    0    0  0.62025647928E+01  0.43204690932E+02  0.28195252030E+03  0.28564954584E+03  0.13904035685E+02 0.  0.
         22    1    3    3    0    0 -0.62025647928E+01 -0.43204690932E+02  0.16821989678E+03  0.17379024944E+03  0.00000000000E+00 0. -1.
         22    1    4    4    0    0  0.22694795426E+00  0.25752715566E+01  0.46296813773E+01  0.53025916889E+01  0.00000000000E+00 0.  1.
         22    1    4    4    0    0  0.59756168385E+01  0.40629419375E+02  0.27732283892E+03  0.28034695415E+03  0.00000000000E+00 0.  1.
<mgrwt>
<rscale>  0 0.91813509E+02</rscale>
<asrwt>0</asrwt>
<pdfrwt beam="1">  1        1 0.69970153E-01 0.91813509E+02</pdfrwt>
<pdfrwt beam="2">  1       -1 0.71287542E-03 0.91813509E+02</pdfrwt>
<totfact> 0.13504691E+05</totfact>
</mgrwt>
</event>
<event>
 7    1  0.3301067E-009  0.9120451E+02  0.7818608E-02  0.1299961E+00
         -1   -1    0    0    0  501 -0.00000000000E+00  0.00000000000E+00  0.34782165701E+01  0.34782202217E+01  0.50400000000E-02 0.  1.
          1   -1    0    0  501    0  0.00000000000E+00 -0.00000000000E+00 -0.59788236508E+03  0.59788236510E+03  0.50400000000E-02 0. -1.
         23    2    1    2    0    0  0.00000000000E+00 -0.71054273576E-14 -0.59440414851E+03  0.60136058532E+03  0.91204505448E+02 0.  0.
    9000005    2    3    3    0    0 -0.24272403544E+01 -0.42769702476E+02 -0.38621258164E+03  0.38880737443E+03  0.13261871946E+02 0.  0.
         22    1    3    3    0    0  0.24272403544E+01  0.42769702476E+02 -0.20819156686E+03  0.21255321089E+03  0.00000000000E+00 0.  1.
         22    1    4    4    0    0  0.47033595574E+01 -0.87805145865E+01 -0.10025372562E+03  0.10074734998E+03  0.00000000000E+00 0.  1.
         22    1    4    4    0    0 -0.71305999118E+01 -0.33989187890E+02 -0.28595885603E+03  0.28806002445E+03  0.00000000000E+00 0.  1.
<mgrwt>
<rscale>  0 0.91204505E+02</rscale>
<asrwt>0</asrwt>
<pdfrwt beam="2">  1        1 0.91981821E-01 0.91204505E+02</pdfrwt>
<pdfrwt beam="1">  1       -1 0.53511100E-03 0.91204505E+02</pdfrwt>
<totfact> 0.14144338E+05</totfact>
</mgrwt>
</event>
<event>
 7    1  0.3301067E-009  0.9086068E+02  0.7818608E-02  0.1300781E+00
          1   -1    0    0  501    0  0.00000000000E+00  0.00000000000E+00  0.17247709291E+02  0.17247710028E+02  0.50400000000E-02 0. -1.
         -1   -1    0    0    0  501 -0.00000000000E+00 -0.00000000000E+00 -0.11966316717E+03  0.11966316727E+03  0.50400000000E-02 0.  1.
         23    2    1    2    0    0  0.00000000000E+00  0.00000000000E+00 -0.10241545787E+03  0.13691087730E+03  0.90860675274E+02 0.  0.
    9000005    2    3    3    0    0 -0.13308880367E+02 -0.26674334620E+02 -0.10164299378E+03  0.10709069747E+03  0.15763022478E+02 0.  0.
         22    1    3    3    0    0  0.13308880367E+02  0.26674334620E+02 -0.77246409800E+00  0.29820179825E+02  0.00000000000E+00 0.  1.
         22    1    4    4    0    0 -0.10904429228E+02 -0.12144293506E+02 -0.73899562726E+02  0.75680485018E+02  0.00000000000E+00 0.  1.
         22    1    4    4    0    0 -0.24044511386E+01 -0.14530041114E+02 -0.27743431051E+02  0.31410212456E+02  0.00000000000E+00 0.  1.
<mgrwt>
<rscale>  0 0.90860675E+02</rscale>
<asrwt>0</asrwt>
<pdfrwt beam="1">  1        1 0.26534939E-02 0.90860675E+02</pdfrwt>
<pdfrwt beam="2">  1       -1 0.18409718E-01 0.90860675E+02</pdfrwt>
<totfact> 0.79284445E+04</totfact>
</mgrwt>
</event>
<event>
 7    1  0.3301067E-009  0.9164326E+02  0.7818608E-02  0.1298920E+00
         -1   -1    0    0    0  501 -0.00000000000E+00  0.00000000000E+00  0.39913879074E+02  0.39913879392E+02  0.50400000000E-02 0.  1.
          1   -1    0    0  501    0  0.00000000000E+00 -0.00000000000E+00 -0.52603803905E+02  0.52603804146E+02  0.50400000000E-02 0. -1.
         23    2    1    2    0    0  0.00000000000E+00  0.35527136788E-14 -0.12689924831E+02  0.92517683538E+02  0.91643262573E+02 0.  0.
    9000005    2    3    3    0    0 -0.18394635956E+02 -0.16654551053E+02 -0.44960891383E+02  0.51809551858E+02  0.68564719103E+01 0.  0.
         22    1    3    3    0    0  0.18394635956E+02  0.16654551053E+02  0.32270966551E+02  0.40708131680E+02  0.00000000000E+00 0.  1.
         22    1    4    4    0    0 -0.39892687515E+01 -0.18620522062E+01 -0.40432673915E+01  0.59774170668E+01  0.00000000000E+00 0.  1.
         22    1    4    4    0    0 -0.14405367205E+02 -0.14792498847E+02 -0.40917623991E+02  0.45832134791E+02  0.00000000000E+00 0.  1.
<mgrwt>
<rscale>  0 0.91643263E+02</rscale>
<asrwt>0</asrwt>
<pdfrwt beam="2">  1        1 0.80928929E-02 0.91643263E+02</pdfrwt>
<pdfrwt beam="1">  1       -1 0.61405968E-02 0.91643263E+02</pdfrwt>
<totfact> 0.93144326E+04</totfact>
</mgrwt>
</event>
<event>
 7    1  0.3301067E-009  0.9130719E+02  0.7818608E-02  0.1299717E+00
          1   -1    0    0  501    0  0.00000000000E+00  0.00000000000E+00  0.18803771014E+02  0.18803771690E+02  0.50400000000E-02 0. -1.
         -1   -1    0    0    0  501 -0.00000000000E+00 -0.00000000000E+00 -0.11084216026E+03  0.11084216037E+03  0.50400000000E-02 0.  1.
         23    2    1    2    0    0  0.00000000000E+00  0.88817841970E-15 -0.92038389244E+02  0.12964593206E+03  0.91307188138E+02 0.  0.
    9000005    2    3    3    0    0  0.36007375453E+02  0.44962965390E+01 -0.94553859807E+01  0.39442272505E+02  0.12228686224E+02 0.  0.
         22    1    3    3    0    0 -0.36007375453E+02 -0.44962965390E+01 -0.82583003263E+02  0.90203659557E+02  0.00000000000E+00 0.  1.
         22    1    4    4    0    0  0.17512992946E+02  0.12821861496E+00  0.13786836477E+01  0.17567644422E+02  0.00000000000E+00 0. -1.
         22    1    4    4    0    0  0.18494382507E+02  0.43680779240E+01 -0.10834069628E+02  0.21874628083E+02  0.00000000000E+00 0. -1.
<mgrwt>
<rscale>  0 0.91307188E+02</rscale>
<asrwt>0</asrwt>
<pdfrwt beam="1">  1        1 0.28928880E-02 0.91307188E+02</pdfrwt>
<pdfrwt beam="2">  1       -1 0.17052640E-01 0.91307188E+02</pdfrwt>
<totfact> 0.79494349E+04</totfact>
</mgrwt>
</event>
<event>
 7    1  0.3301067E-009  0.9115350E+02  0.7818608E-02  0.1300082E+00
         -1   -1    0    0    0  501 -0.00000000000E+00  0.00000000000E+00  0.44799709615E+02  0.44799709898E+02  0.50400000000E-02 0.  1.
          1   -1    0    0  501    0  0.00000000000E+00 -0.00000000000E+00 -0.46367268545E+02  0.46367268819E+02  0.50400000000E-02 0. -1.
         23    2    1    2    0    0  0.00000000000E+00  0.00000000000E+00 -0.15675589305E+01  0.91166978718E+02  0.91153501126E+02 0.  0.
    9000005    2    3    3    0    0  0.15430507930E+01  0.26535257186E+02  0.34616739790E+02  0.46269268825E+02  0.15363127424E+02 0.  0.
         22    1    3    3    0    0 -0.15430507930E+01 -0.26535257186E+02 -0.36184298721E+02  0.44897709893E+02  0.00000000000E+00 0. -1.
         22    1    4    4    0    0 -0.11989916510E+00  0.55997356828E+01  0.19774620973E+02  0.20552543642E+02  0.00000000000E+00 0.  1.
         22    1    4    4    0    0  0.16629499581E+01  0.20935521503E+02  0.14842118818E+02  0.25716725184E+02  0.00000000000E+00 0.  1.
<mgrwt>
<rscale>  0 0.91153501E+02</rscale>
<asrwt>0</asrwt>
<pdfrwt beam="2">  1        1 0.71334260E-02 0.91153501E+02</pdfrwt>
<pdfrwt beam="1">  1       -1 0.68922631E-02 0.91153501E+02</pdfrwt>
<totfact> 0.92774700E+04</totfact>
</mgrwt>
</event>
<event>
 7    1  0.3301067E-009  0.9038378E+02  0.7818608E-02  0.1301925E+00
         -1   -1    0    0    0  501 -0.00000000000E+00  0.00000000000E+00  0.34203667019E+03  0.34203667023E+03  0.50400000000E-02 0.  1.
          1   -1    0    0  501    0  0.00000000000E+00 -0.00000000000E+00 -0.59710163635E+01  0.59710184906E+01  0.50400000000E-02 0. -1.
         23    2    1    2    0    0  0.35527136788E-14  0.35527136788E-14  0.33606565383E+03  0.34800768872E+03  0.90383780209E+02 0.  0.
    9000005    2    3    3    0    0 -0.30407918134E+02 -0.31936807597E+02  0.18722090345E+03  0.19276800024E+03  0.12776308635E+02 0.  0.
         22    1    3    3    0    0  0.30407918134E+02  0.31936807597E+02  0.14884475038E+03  0.15523968848E+03  0.00000000000E+00 0. -1.
         22    1    4    4    0    0 -0.30598712698E+02 -0.30142905219E+02  0.16586880657E+03  0.17133982884E+03  0.00000000000E+00 0. -1.
         22    1    4    4    0    0  0.19079456388E+00 -0.17939023776E+01  0.21352096874E+02  0.21428171392E+02  0.00000000000E+00 0. -1.
<mgrwt>
<rscale>  0 0.90383780E+02</rscale>
<asrwt>0</asrwt>
<pdfrwt beam="2">  1        1 0.91861800E-03 0.90383780E+02</pdfrwt>
<pdfrwt beam="1">  1       -1 0.52621030E-01 0.90383780E+02</pdfrwt>
<totfact> 0.58695946E+04</totfact>
</mgrwt>
</event>
<event>
 7    1  0.3301067E-009  0.9382028E+02  0.7818608E-02  0.1293855E+00
          1   -1    0    0  501    0  0.00000000000E+00  0.00000000000E+00  0.11386962710E+03  0.11386962722E+03  0.50400000000E-02 0. -1.
         -1   -1    0    0    0  501 -0.00000000000E+00 -0.00000000000E+00 -0.19325269283E+02  0.19325269940E+02  0.50400000000E-02 0.  1.
         23    2    1    2    0    0  0.00000000000E+00  0.00000000000E+00  0.94544357821E+02  0.13319489716E+03  0.93820280497E+02 0.  0.
    9000005    2    3    3    0    0 -0.14061270058E+02  0.11600071188E+02 -0.12027376861E+02  0.25075446545E+02  0.12322307337E+02 0.  0.
         22    1    3    3    0    0  0.14061270058E+02 -0.11600071188E+02  0.10657173468E+03  0.10811945061E+03  0.00000000000E+00 0. -1.
         22    1    4    4    0    0  0.19846611047E+01  0.57034015325E+00  0.21380433062E+00  0.20760250197E+01  0.00000000000E+00 0.  1.
         22    1    4    4    0    0 -0.16045931163E+02  0.11029731034E+02 -0.12241181191E+02  0.22999421526E+02  0.00000000000E+00 0.  1.
<mgrwt>
<rscale>  0 0.93820280E+02</rscale>
<asrwt>0</asrwt>
<pdfrwt beam="1">  1        1 0.17518404E-01 0.93820280E+02</pdfrwt>
<pdfrwt beam="2">  1       -1 0.29731184E-02 0.93820280E+02</pdfrwt>
<totfact> 0.98773577E+04</totfact>
</mgrwt>
</event>
<event>
 7    1  0.3301067E-009  0.8966043E+02  0.7818608E-02  0.1303676E+00
         -1   -1    0    0    0  501 -0.00000000000E+00  0.00000000000E+00  0.23274214550E+01  0.23274269121E+01  0.50400000000E-02 0.  1.
          1   -1    0    0  501    0  0.00000000000E+00 -0.00000000000E+00 -0.86350739115E+03  0.86350739116E+03  0.50400000000E-02 0. -1.
         23    2    1    2    0    0  0.00000000000E+00  0.00000000000E+00 -0.86117996969E+03  0.86583481807E+03  0.89660425998E+02 0.  0.
    9000005    2    3    3    0    0  0.30704709334E+02  0.18788891147E+02 -0.67949806301E+03  0.68062111226E+03  0.15221012225E+02 0.  0.
         22    1    3    3    0    0 -0.30704709334E+02 -0.18788891147E+02 -0.18168190668E+03  0.18521370582E+03  0.00000000000E+00 0.  1.
         22    1    4    4    0    0  0.28473593682E+01  0.18844017486E+01 -0.18000931382E+02  0.18321898263E+02  0.00000000000E+00 0.  1.
         22    1    4    4    0    0  0.27857349966E+02  0.16904489399E+02 -0.66149713163E+03  0.66229921399E+03  0.00000000000E+00 0.  1.
<mgrwt>
<rscale>  0 0.89660426E+02</rscale>
<asrwt>0</asrwt>
<pdfrwt beam="2">  1        1 0.13284704E+00 0.89660426E+02</pdfrwt>
<pdfrwt beam="1">  1       -1 0.35806595E-03 0.89660426E+02</pdfrwt>
<totfact> 0.14642589E+05</totfact>
</mgrwt>
</event>
<event>
 7    1  0.3301067E-009  0.9092696E+02  0.7818608E-02  0.1300622E+00
         -1   -1    0    0    0  501 -0.00000000000E+00  0.00000000000E+00  0.56686701382E+02  0.56686701606E+02  0.50400000000E-02 0.  1.
          1   -1    0    0  501    0  0.00000000000E+00 -0.00000000000E+00 -0.36462310175E+02  0.36462310523E+02  0.50400000000E-02 0. -1.
         23    2    1    2    0    0  0.17763568394E-14 -0.35527136788E-14  0.20224391207E+02  0.93149012129E+02  0.90926962233E+02 0.  0.
    9000005    2    3    3    0    0  0.15164665043E+02 -0.21627096562E+02 -0.25944301398E+02  0.39958349900E+02  0.15028791705E+02 0.  0.
         22    1    3    3    0    0 -0.15164665043E+02  0.21627096562E+02  0.46168692605E+02  0.53190662229E+02  0.00000000000E+00 0.  1.
         22    1    4    4    0    0  0.99818710345E+01 -0.21344775103E+01 -0.81741947297E+01  0.13077125184E+02  0.00000000000E+00 0. -1.
         22    1    4    4    0    0  0.51827940084E+01 -0.19492619051E+02 -0.17770106669E+02  0.26881224716E+02  0.00000000000E+00 0. -1.
<mgrwt>
<rscale>  0 0.90926962E+02</rscale>
<asrwt>0</asrwt>
<pdfrwt beam="2">  1        1 0.56095862E-02 0.90926962E+02</pdfrwt>
<pdfrwt beam="1">  1       -1 0.87210311E-02 0.90926962E+02</pdfrwt>
<totfact> 0.90087399E+04</totfact>
</mgrwt>
</event>
<event>
 7    1  0.3301067E-009  0.9111321E+02  0.7818608E-02  0.1300178E+00
         -1   -1    0    0    0  501 -0.00000000000E+00  0.00000000000E+00  0.34028898466E+01  0.34028935790E+01  0.50400000000E-02 0.  1.
          1   -1    0    0  501    0  0.00000000000E+00 -0.00000000000E+00 -0.60989423478E+03  0.60989423480E+03  0.50400000000E-02 0. -1.
         23    2    1    2    0    0  0.00000000000E+00  0.00000000000E+00 -0.60649134493E+03  0.61329712838E+03  0.91113205408E+02 0.  0.
    9000005    2    3    3    0    0 -0.22556927372E+01  0.35186192877E+02 -0.49613006622E+03  0.49744045763E+03  0.76687650035E+01 0.  0.
         22    1    3    3    0    0  0.22556927372E+01 -0.35186192877E+02 -0.11036127871E+03  0.11585667075E+03  0.00000000000E+00 0.  1.
         22    1    4    4    0    0 -0.40891421296E+01  0.30661478764E+02 -0.40490670181E+03  0.40608654808E+03  0.00000000000E+00 0.  1.
         22    1    4    4    0    0  0.18334493924E+01  0.45247141129E+01 -0.91223364415E+02  0.91353909547E+02  0.00000000000E+00 0.  1.
<mgrwt>
<rscale>  0 0.91113205E+02</rscale>
<asrwt>0</asrwt>
<pdfrwt beam="2">  1        1 0.93829795E-01 0.91113205E+02</pdfrwt>
<pdfrwt beam="1">  1       -1 0.52352229E-03 0.91113205E+02</pdfrwt>
<totfact> 0.14198052E+05</totfact>
</mgrwt>
</event>
<event>
 7    1  0.3301067E-009  0.9764655E+02  0.7818608E-02  0.1285324E+00
         -1   -1    0    0    0  501 -0.00000000000E+00  0.00000000000E+00  0.13265650633E+03  0.13265650642E+03  0.50400000000E-02 0.  1.
          1   -1    0    0  501    0  0.00000000000E+00 -0.00000000000E+00 -0.17969055679E+02  0.17969056386E+02  0.50400000000E-02 0. -1.
         23    2    1    2    0    0 -0.35527136788E-14  0.00000000000E+00  0.11468745065E+03  0.15062556281E+03  0.97646550555E+02 0.  0.
    9000005    2    3    3    0    0 -0.24639856526E+02 -0.20618150828E+02  0.98380238205E+00  0.32469943805E+02  0.45933332497E+01 0.  0.
         22    1    3    3    0    0  0.24639856526E+02  0.20618150828E+02  0.11370364827E+03  0.11815561900E+03  0.00000000000E+00 0.  1.
         22    1    4    4    0    0 -0.75309806754E+01 -0.37430067076E+01  0.67728414729E+00  0.84370897211E+01  0.00000000000E+00 0.  1.
         22    1    4    4    0    0 -0.17108875851E+02 -0.16875144121E+02  0.30651823475E+00  0.24032854084E+02  0.00000000000E+00 0.  1.
<mgrwt>
<rscale>  0 0.97646551E+02</rscale>
<asrwt>0</asrwt>
<pdfrwt beam="2">  1        1 0.27644701E-02 0.97646551E+02</pdfrwt>
<pdfrwt beam="1">  1       -1 0.20408694E-01 0.97646551E+02</pdfrwt>
<totfact> 0.64354661E+04</totfact>
</mgrwt>
</event>
<event>
 7    1  0.3301067E-009  0.9274070E+02  0.7818608E-02  0.1296347E+00
         -1   -1    0    0    0  501 -0.00000000000E+00  0.00000000000E+00  0.36840211358E+03  0.36840211362E+03  0.50400000000E-02 0.  1.
          1   -1    0    0  501    0  0.00000000000E+00 -0.00000000000E+00 -0.58365813310E+01  0.58365835071E+01  0.50400000000E-02 0. -1.
         23    2    1    2    0    0  0.13877787808E-15  0.00000000000E+00  0.36256553225E+03  0.37423869712E+03  0.92740698986E+02 0.  0.
    9000005    2    3    3    0    0 -0.19965909077E+00 -0.44512438240E+02  0.14685005057E+03  0.15397847361E+03  0.12768553693E+02 0.  0.
         22    1    3    3    0    0  0.19965909077E+00  0.44512438240E+02  0.21571548169E+03  0.22026022351E+03  0.00000000000E+00 0.  1.
         22    1    4    4    0    0  0.29370768759E+01 -0.27590564839E+01  0.19824676273E+02  0.20230091512E+02  0.00000000000E+00 0. -1.
         22    1    4    4    0    0 -0.31367359667E+01 -0.41753381757E+02  0.12702537429E+03  0.13374838210E+03  0.00000000000E+00 0. -1.
<mgrwt>
<rscale>  0 0.92740699E+02</rscale>
<asrwt>0</asrwt>
<pdfrwt beam="2">  1        1 0.89793575E-03 0.92740699E+02</pdfrwt>
<pdfrwt beam="1">  1       -1 0.56677249E-01 0.92740699E+02</pdfrwt>
<totfact> 0.53050654E+04</totfact>
</mgrwt>
</event>
<event>
 7    1  0.3301067E-009  0.9029325E+02  0.7818608E-02  0.1302143E+00
         -1   -1    0    0    0  501 -0.00000000000E+00  0.00000000000E+00  0.17236062064E+02  0.17236062801E+02  0.50400000000E-02 0.  1.
          1   -1    0    0  501    0  0.00000000000E+00 -0.00000000000E+00 -0.11825308710E+03  0.11825308720E+03  0.50400000000E-02 0. -1.
         23    2    1    2    0    0  0.00000000000E+00  0.00000000000E+00 -0.10101702503E+03  0.13548915001E+03  0.90293246827E+02 0.  0.
    9000005    2    3    3    0    0 -0.44192092148E+02  0.33883749458E+00 -0.42590779172E+02  0.62231508597E+02  0.10282527538E+02 0.  0.
         22    1    3    3    0    0  0.44192092148E+02 -0.33883749458E+00 -0.58426245861E+02  0.73257641408E+02  0.00000000000E+00 0. -1.
         22    1    4    4    0    0 -0.26975428207E+02  0.67301564703E+00 -0.18903362347E+02  0.32946377419E+02  0.00000000000E+00 0.  1.
         22    1    4    4    0    0 -0.17216663940E+02 -0.33417815246E+00 -0.23687416825E+02  0.29285131178E+02  0.00000000000E+00 0.  1.
<mgrwt>
<rscale>  0 0.90293247E+02</rscale>
<asrwt>0</asrwt>
<pdfrwt beam="2">  1        1 0.18192782E-01 0.90293247E+02</pdfrwt>
<pdfrwt beam="1">  1       -1 0.26517020E-02 0.90293247E+02</pdfrwt>
<totfact> 0.11033872E+05</totfact>
</mgrwt>
</event>
<event>
 7    1  0.3301067E-009  0.9002983E+02  0.7818608E-02  0.1302779E+00
          1   -1    0    0  501    0  0.00000000000E+00  0.00000000000E+00  0.98504848817E+01  0.98504861711E+01  0.50400000000E-02 0. -1.
         -1   -1    0    0    0  501 -0.00000000000E+00 -0.00000000000E+00 -0.20570990295E+03  0.20570990302E+03  0.50400000000E-02 0.  1.
         23    2    1    2    0    0  0.00000000000E+00 -0.35527136788E-14 -0.19585941807E+03  0.21556038919E+03  0.90029826940E+02 0.  0.
    9000005    2    3    3    0    0 -0.22454274897E+02  0.27143909694E+02 -0.16363769981E+03  0.16781915520E+03  0.12041003229E+02 0.  0.
         22    1    3    3    0    0  0.22454274897E+02 -0.27143909694E+02 -0.32221718262E+02  0.47741233985E+02  0.00000000000E+00 0. -1.
         22    1    4    4    0    0 -0.69893895221E+01  0.14564344531E+01 -0.36744111262E+02  0.37431303473E+02  0.00000000000E+00 0.  1.
         22    1    4    4    0    0 -0.15464885375E+02  0.25687475241E+02 -0.12689358855E+03  0.13038785173E+03  0.00000000000E+00 0.  1.
<mgrwt>
<rscale>  0 0.90029827E+02</rscale>
<asrwt>0</asrwt>
<pdfrwt beam="1">  1        1 0.15154595E-02 0.90029827E+02</pdfrwt>
<pdfrwt beam="2">  1       -1 0.31647674E-01 0.90029827E+02</pdfrwt>
<totfact> 0.71169713E+04</totfact>
</mgrwt>
</event>
<event>
 7    1  0.3301067E-009  0.9074711E+02  0.7818608E-02  0.1301052E+00
          1   -1    0    0  501    0  0.00000000000E+00  0.00000000000E+00  0.21376076109E+03  0.21376076115E+03  0.50400000000E-02 0. -1.
         -1   -1    0    0    0  501 -0.00000000000E+00 -0.00000000000E+00 -0.96311376563E+01  0.96311389751E+01  0.50400000000E-02 0.  1.
         23    2    1    2    0    0  0.00000000000E+00  0.00000000000E+00  0.20412962344E+03  0.22339190013E+03  0.90747109476E+02 0.  0.
    9000005    2    3    3    0    0  0.29811568873E+02 -0.13522396000E+02  0.24972770302E+02  0.41268966763E+02  0.28113215529E+01 0.  0.
         22    1    3    3    0    0 -0.29811568873E+02  0.13522396000E+02  0.17915685313E+03  0.18212293336E+03  0.00000000000E+00 0. -1.
         22    1    4    4    0    0  0.26940675744E+02 -0.12119359429E+02  0.23511065104E+02  0.37755119717E+02  0.00000000000E+00 0.  1.
         22    1    4    4    0    0  0.28708931287E+01 -0.14030365704E+01  0.14617051980E+01  0.35138470457E+01  0.00000000000E+00 0.  1.
<mgrwt>
<rscale>  0 0.90747109E+02</rscale>
<asrwt>0</asrwt>
<pdfrwt beam="1">  1        1 0.32886270E-01 0.90747109E+02</pdfrwt>
<pdfrwt beam="2">  1       -1 0.14817136E-02 0.90747109E+02</pdfrwt>
<totfact> 0.12147504E+05</totfact>
</mgrwt>
</event>
<event>
 7    1  0.3301067E-009  0.9324125E+02  0.7818608E-02  0.1295187E+00
         -1   -1    0    0    0  501 -0.00000000000E+00  0.00000000000E+00  0.32948956450E+02  0.32948956836E+02  0.50400000000E-02 0.  1.
          1   -1    0    0  501    0  0.00000000000E+00 -0.00000000000E+00 -0.65965150305E+02  0.65965150498E+02  0.50400000000E-02 0. -1.
         23    2    1    2    0    0  0.35527136788E-14 -0.71054273576E-14 -0.33016193855E+02  0.98914107334E+02  0.93241254673E+02 0.  0.
    9000005    2    3    3    0    0 -0.29678672878E+02  0.34754811968E+02 -0.14932255493E+02  0.49763833627E+02  0.12835353694E+02 0.  0.
         22    1    3    3    0    0  0.29678672878E+02 -0.34754811968E+02 -0.18083938362E+02  0.49150273706E+02  0.00000000000E+00 0.  1.
         22    1    4    4    0    0 -0.24413902930E+02  0.33925280261E+02 -0.11244965127E+02  0.43282935873E+02  0.00000000000E+00 0. -1.
         22    1    4    4    0    0 -0.52647699477E+01  0.82953170697E+00 -0.36872903667E+01  0.64808977545E+01  0.00000000000E+00 0. -1.
<mgrwt>
<rscale>  0 0.93241255E+02</rscale>
<asrwt>0</asrwt>
<pdfrwt beam="2">  1        1 0.10148485E-01 0.93241255E+02</pdfrwt>
<pdfrwt beam="1">  1       -1 0.50690703E-02 0.93241255E+02</pdfrwt>
<totfact> 0.91889602E+04</totfact>
</mgrwt>
</event>
<event>
 7    1  0.3301067E-009  0.9995349E+02  0.7818608E-02  0.1280394E+00
          1   -1    0    0  501    0  0.00000000000E+00  0.00000000000E+00  0.57094434170E+03  0.57094434172E+03  0.50400000000E-02 0. -1.
         -1   -1    0    0    0  501 -0.00000000000E+00 -0.00000000000E+00 -0.43746371470E+01  0.43746400503E+01  0.50400000000E-02 0.  1.
         23    2    1    2    0    0  0.71054273576E-14 -0.35527136788E-14  0.56656970455E+03  0.57531898177E+03  0.99953492538E+02 0.  0.
    9000005    2    3    3    0    0  0.42745599719E+02 -0.18206208410E+02  0.38192604653E+03  0.38491957850E+03  0.11701477309E+02 0.  0.
         22    1    3    3    0    0 -0.42745599719E+02  0.18206208410E+02  0.18464365802E+03  0.19039940327E+03  0.00000000000E+00 0.  1.
         22    1    4    4    0    0  0.20883285550E+02 -0.11926195991E+02  0.23733217447E+03  0.23854749381E+03  0.00000000000E+00 0.  1.
         22    1    4    4    0    0  0.21862314169E+02 -0.62800124193E+01  0.14459387206E+03  0.14637208469E+03  0.00000000000E+00 0.  1.
<mgrwt>
<rscale>  0 0.99953493E+02</rscale>
<asrwt>0</asrwt>
<pdfrwt beam="1">  1        1 0.87837532E-01 0.99953493E+02</pdfrwt>
<pdfrwt beam="2">  1       -1 0.67302178E-03 0.99953493E+02</pdfrwt>
<totfact> 0.11050284E+05</totfact>
</mgrwt>
</event>
<event>
 7    1  0.3301067E-009  0.8875176E+02  0.7818608E-02  0.1305903E+00
         -1   -1    0    0    0  501 -0.00000000000E+00  0.00000000000E+00  0.47745162907E+01  0.47745189508E+01  0.50400000000E-02 0. -1.
          1   -1    0    0  501    0  0.00000000000E+00 -0.00000000000E+00 -0.41244352975E+03  0.41244352979E+03  0.50400000000E-02 0.  1.
         23    2    1    2    0    0  0.00000000000E+00  0.00000000000E+00 -0.40766901346E+03  0.41721804874E+03  0.88751764222E+02 0.  0.
    9000005    2    3    3    0    0 -0.31165191186E+02 -0.17974783893E+02 -0.32454408372E+03  0.32664147371E+03  0.84515132028E+01 0.  0.
         22    1    3    3    0    0  0.31165191186E+02  0.17974783893E+02 -0.83124929746E+02  0.90576575023E+02  0.00000000000E+00 0. -1.
         22    1    4    4    0    0  0.97543415017E-01 -0.94785777465E+00 -0.34210029938E+01  0.35512266279E+01  0.00000000000E+00 0.  1.
         22    1    4    4    0    0 -0.31262734601E+02 -0.17026926119E+02 -0.32112308072E+03  0.32309024709E+03  0.00000000000E+00 0.  1.
<mgrwt>
<rscale>  0 0.88751764E+02</rscale>
<asrwt>0</asrwt>
<pdfrwt beam="2">  1        1 0.63452823E-01 0.88751764E+02</pdfrwt>
<pdfrwt beam="1">  1       -1 0.73454150E-03 0.88751764E+02</pdfrwt>
<totfact> 0.14559786E+05</totfact>
</mgrwt>
</event>
<event>
 7    1  0.3301067E-009  0.9178514E+02  0.7818608E-02  0.1298585E+00
         -1   -1    0    0    0  501 -0.00000000000E+00  0.00000000000E+00  0.10633846178E+03  0.10633846190E+03  0.50400000000E-02 0.  1.
          1   -1    0    0  501    0  0.00000000000E+00 -0.00000000000E+00 -0.19805890147E+02  0.19805890788E+02  0.50400000000E-02 0. -1.
         23    2    1    2    0    0  0.00000000000E+00  0.00000000000E+00  0.86532571638E+02  0.12614435269E+03  0.91785139113E+02 0.  0.
    9000005    2    3    3    0    0 -0.14024417488E+02 -0.26741356068E+02  0.89608660152E+02  0.95792306126E+02  0.15318927135E+02 0.  0.
         22    1    3    3    0    0  0.14024417488E+02  0.26741356068E+02 -0.30760885141E+01  0.30352046566E+02  0.00000000000E+00 0. -1.
         22    1    4    4    0    0 -0.11055351875E+02 -0.21555708137E+02  0.84584781783E+02  0.87985536695E+02  0.00000000000E+00 0. -1.
         22    1    4    4    0    0 -0.29690656130E+01 -0.51856479310E+01  0.50238783689E+01  0.78067694307E+01  0.00000000000E+00 0. -1.
<mgrwt>
<rscale>  0 0.91785139E+02</rscale>
<asrwt>0</asrwt>
<pdfrwt beam="2">  1        1 0.30470601E-02 0.91785139E+02</pdfrwt>
<pdfrwt beam="1">  1       -1 0.16359763E-01 0.91785139E+02</pdfrwt>
<totfact> 0.79063029E+04</totfact>
</mgrwt>
</event>
<event>
 7    1  0.3301067E-009  0.9186065E+02  0.7818608E-02  0.1298407E+00
         -1   -1    0    0    0  501 -0.00000000000E+00  0.00000000000E+00  0.86926456421E+01  0.86926471032E+01  0.50400000000E-02 0.  1.
          1   -1    0    0  501    0  0.00000000000E+00 -0.00000000000E+00 -0.24268730314E+03  0.24268730320E+03  0.50400000000E-02 0. -1.
         23    2    1    2    0    0  0.00000000000E+00 -0.71054273576E-14 -0.23399465750E+03  0.25137995030E+03  0.91860653564E+02 0.  0.
    9000005    2    3    3    0    0 -0.62510043716E+00  0.33163886285E+02 -0.20350610238E+03  0.20632680282E+03  0.74687183345E+01 0.  0.
         22    1    3    3    0    0  0.62510043716E+00 -0.33163886285E+02 -0.30488555123E+02  0.45053147477E+02  0.00000000000E+00 0.  1.
         22    1    4    4    0    0  0.10788329940E+01  0.36925422033E+00 -0.82609321086E+01  0.83392582770E+01  0.00000000000E+00 0. -1.
         22    1    4    4    0    0 -0.17039334312E+01  0.32794632065E+02 -0.19524517027E+03  0.19798754455E+03  0.00000000000E+00 0. -1.
<mgrwt>
<rscale>  0 0.91860654E+02</rscale>
<asrwt>0</asrwt>
<pdfrwt beam="2">  1        1 0.37336503E-01 0.91860654E+02</pdfrwt>
<pdfrwt beam="1">  1       -1 0.13373304E-02 0.91860654E+02</pdfrwt>
<totfact> 0.12052277E+05</totfact>
</mgrwt>
</event>
<event>
 7    1  0.3301067E-009  0.9188640E+02  0.7818608E-02  0.1298347E+00
          1   -1    0    0  501    0  0.00000000000E+00  0.00000000000E+00  0.40426372695E+02  0.40426373009E+02  0.50400000000E-02 0. -1.
         -1   -1    0    0    0  501 -0.00000000000E+00 -0.00000000000E+00 -0.52212890463E+02  0.52212890706E+02  0.50400000000E-02 0.  1.
         23    2    1    2    0    0  0.00000000000E+00 -0.17763568394E-14 -0.11786517768E+02  0.92639263715E+02  0.91886403676E+02 0.  0.
    9000005    2    3    3    0    0  0.10978854337E+02  0.15642219398E+02 -0.47286190307E+02  0.52322505157E+02  0.11681030861E+02 0.  0.
         22    1    3    3    0    0 -0.10978854337E+02 -0.15642219398E+02  0.35499672538E+02  0.40316758557E+02  0.00000000000E+00 0. -1.
         22    1    4    4    0    0  0.38434476363E+01  0.13156158827E+02 -0.21897465232E+02  0.25833226441E+02  0.00000000000E+00 0.  1.
         22    1    4    4    0    0  0.71354067006E+01  0.24860605713E+01 -0.25388725075E+02  0.26489278716E+02  0.00000000000E+00 0.  1.
<mgrwt>
<rscale>  0 0.91886404E+02</rscale>
<asrwt>0</asrwt>
<pdfrwt beam="1">  1        1 0.62194420E-02 0.91886404E+02</pdfrwt>
<pdfrwt beam="2">  1       -1 0.80327524E-02 0.91886404E+02</pdfrwt>
<totfact> 0.88840720E+04</totfact>
</mgrwt>
</event>
<event>
 7    1  0.3301067E-009  0.9420820E+02  0.7818608E-02  0.1292969E+00
         -1   -1    0    0    0  501 -0.00000000000E+00  0.00000000000E+00  0.61704294027E+01  0.61704314610E+01  0.50400000000E-02 0.  1.
          1   -1    0    0  501    0  0.00000000000E+00 -0.00000000000E+00 -0.35958534953E+03  0.35958534956E+03  0.50400000000E-02 0. -1.
         23    2    1    2    0    0  0.00000000000E+00  0.00000000000E+00 -0.35341492012E+03  0.36575578102E+03  0.94208203388E+02 0.  0.
    9000005    2    3    3    0    0 -0.15803777975E+02  0.43293143038E+02 -0.20069229126E+03  0.20623068268E+03  0.11386091406E+02 0.  0.
         22    1    3    3    0    0  0.15803777975E+02 -0.43293143038E+02 -0.15272262887E+03  0.15952509834E+03  0.00000000000E+00 0. -1.
         22    1    4    4    0    0 -0.16060800507E+02  0.29055936650E+02 -0.13680253337E+03  0.14077332810E+03  0.00000000000E+00 0.  1.
         22    1    4    4    0    0  0.25702253172E+00  0.14237206387E+02 -0.63889757882E+02  0.65457354579E+02  0.00000000000E+00 0.  1.
<mgrwt>
<rscale>  0 0.94208203E+02</rscale>
<asrwt>0</asrwt>
<pdfrwt beam="2">  1        1 0.55320807E-01 0.94208203E+02</pdfrwt>
<pdfrwt beam="1">  1       -1 0.94929727E-03 0.94208203E+02</pdfrwt>
<totfact> 0.12141169E+05</totfact>
</mgrwt>
</event>
<event>
 7    1  0.3301067E-009  0.8918644E+02  0.7818608E-02  0.1304834E+00
         -1   -1    0    0    0  501 -0.00000000000E+00  0.00000000000E+00  0.74345307509E+02  0.74345307680E+02  0.50400000000E-02 0.  1.
          1   -1    0    0  501    0  0.00000000000E+00 -0.00000000000E+00 -0.26747554204E+02  0.26747554679E+02  0.50400000000E-02 0. -1.
         23    2    1    2    0    0  0.00000000000E+00  0.00000000000E+00  0.47597753305E+02  0.10109286236E+03  0.89186437872E+02 0.  0.
    9000005    2    3    3    0    0 -0.37217237573E+02  0.21534612237E+02  0.13933034898E+02  0.46483563131E+02  0.10850340234E+02 0.  0.
         22    1    3    3    0    0  0.37217237573E+02 -0.21534612237E+02  0.33664718407E+02  0.54609299228E+02  0.00000000000E+00 0.  1.
         22    1    4    4    0    0 -0.23499320192E+02  0.82842080200E+01  0.49591750138E+01  0.25405502728E+02  0.00000000000E+00 0. -1.
         22    1    4    4    0    0 -0.13717917380E+02  0.13250404217E+02  0.89738598843E+01  0.21078060404E+02  0.00000000000E+00 0. -1.
<mgrwt>
<rscale>  0 0.89186438E+02</rscale>
<asrwt>0</asrwt>
<pdfrwt beam="2">  1        1 0.41150084E-02 0.89186438E+02</pdfrwt>
<pdfrwt beam="1">  1       -1 0.11437740E-01 0.89186438E+02</pdfrwt>
<totfact> 0.90656840E+04</totfact>
</mgrwt>
</event>
<event>
 7    1  0.3301067E-009  0.9705166E+02  0.7818608E-02  0.1286621E+00
          1   -1    0    0  501    0  0.00000000000E+00  0.00000000000E+00  0.20594385490E+03  0.20594385496E+03  0.50400000000E-02 0. -1.
         -1   -1    0    0    0  501 -0.00000000000E+00 -0.00000000000E+00 -0.11433970709E+02  0.11433971820E+02  0.50400000000E-02 0.  1.
         23    2    1    2    0    0 -0.59847959921E-16 -0.71054273576E-14  0.19450988419E+03  0.21737782678E+03  0.97051659068E+02 0.  0.
    9000005    2    3    3    0    0  0.50728561991E-02  0.45419367521E+02  0.12958367596E+03  0.13814190382E+03  0.15110841959E+02 0.  0.
         22    1    3    3    0    0 -0.50728561991E-02 -0.45419367521E+02  0.64926208228E+02  0.79235922955E+02  0.00000000000E+00 0.  1.
         22    1    4    4    0    0  0.32480168778E+01  0.12312690033E+02  0.20825003926E+02  0.24409685332E+02  0.00000000000E+00 0. -1.
         22    1    4    4    0    0 -0.32429440216E+01  0.33106677488E+02  0.10875867203E+03  0.11373221849E+03  0.00000000000E+00 0. -1.
<mgrwt>
<rscale>  0 0.97051659E+02</rscale>
<asrwt>0</asrwt>
<pdfrwt beam="1">  1        1 0.31683668E-01 0.97051659E+02</pdfrwt>
<pdfrwt beam="2">  1       -1 0.17590726E-02 0.97051659E+02</pdfrwt>
<totfact> 0.10066053E+05</totfact>
</mgrwt>
</event>
<event>
 7    1  0.3301067E-009  0.8932866E+02  0.7818608E-02  0.1304486E+00
          1   -1    0    0  501    0  0.00000000000E+00  0.00000000000E+00  0.59752431960E+02  0.59752432173E+02  0.50400000000E-02 0. -1.
         -1   -1    0    0    0  501 -0.00000000000E+00 -0.00000000000E+00 -0.33386124859E+02  0.33386125240E+02  0.50400000000E-02 0.  1.
         23    2    1    2    0    0  0.71054273576E-14 -0.88817841970E-15  0.26366307101E+02  0.93138557413E+02  0.89328655687E+02 0.  0.
    9000005    2    3    3    0    0 -0.43278211880E+02  0.62166620235E+01  0.22221652328E+02  0.49220125366E+02  0.41434766401E+01 0.  0.
         22    1    3    3    0    0  0.43278211880E+02 -0.62166620235E+01  0.41446547735E+01  0.43918432047E+02  0.00000000000E+00 0.  1.
         22    1    4    4    0    0 -0.36826908406E+01 -0.49337701450E+00  0.12945080022E+01  0.39346389509E+01  0.00000000000E+00 0.  1.
         22    1    4    4    0    0 -0.39595521039E+02  0.67100390380E+01  0.20927144325E+02  0.45285486415E+02  0.00000000000E+00 0.  1.
<mgrwt>
<rscale>  0 0.89328656E+02</rscale>
<asrwt>0</asrwt>
<pdfrwt beam="1">  1        1 0.91926819E-02 0.89328656E+02</pdfrwt>
<pdfrwt beam="2">  1       -1 0.51363269E-02 0.89328656E+02</pdfrwt>
<totfact> 0.10192741E+05</totfact>
</mgrwt>
</event>
<event>
 7    1  0.3301067E-009  0.1032090E+03  0.7818608E-02  0.1273689E+00
         -1   -1    0    0    0  501 -0.00000000000E+00  0.00000000000E+00  0.11723982964E+03  0.11723982975E+03  0.50400000000E-02 0.  1.
          1   -1    0    0  501    0  0.00000000000E+00 -0.00000000000E+00 -0.22714341628E+02  0.22714342187E+02  0.50400000000E-02 0. -1.
         23    2    1    2    0    0  0.00000000000E+00 -0.35527136788E-14  0.94525488013E+02  0.13995417194E+03  0.10320902266E+03 0.  0.
    9000005    2    3    3    0    0 -0.40090550216E+02  0.31758821786E+02  0.56225835479E+02  0.76057862481E+02  0.27529787548E+01 0.  0.
         22    1    3    3    0    0  0.40090550216E+02 -0.31758821786E+02  0.38299652534E+02  0.63896309456E+02  0.00000000000E+00 0. -1.
         22    1    4    4    0    0 -0.10952801656E+02  0.97551113003E+01  0.14775152736E+02  0.20819010518E+02  0.00000000000E+00 0. -1.
         22    1    4    4    0    0 -0.29137748560E+02  0.22003710486E+02  0.41450682743E+02  0.55238851962E+02  0.00000000000E+00 0. -1.
<mgrwt>
<rscale>  0 0.10320902E+03</rscale>
<asrwt>0</asrwt>
<pdfrwt beam="2">  1        1 0.34945141E-02 0.10320902E+03</pdfrwt>
<pdfrwt beam="1">  1       -1 0.18036897E-01 0.10320902E+03</pdfrwt>
<totfact> 0.57227330E+04</totfact>
</mgrwt>
</event>
<event>
 7    1  0.3301067E-009  0.9149706E+02  0.7818608E-02  0.1299266E+00
         -1   -1    0    0    0  501 -0.00000000000E+00  0.00000000000E+00  0.10825855876E+02  0.10825857049E+02  0.50400000000E-02 0.  1.
          1   -1    0    0  501    0  0.00000000000E+00 -0.00000000000E+00 -0.19332677046E+03  0.19332677053E+03  0.50400000000E-02 0. -1.
         23    2    1    2    0    0  0.00000000000E+00  0.00000000000E+00 -0.18250091459E+03  0.20415262758E+03  0.91497057448E+02 0.  0.
    9000005    2    3    3    0    0 -0.16657690601E+02 -0.41287419062E+02 -0.10986722452E+03  0.11896000723E+03  0.99270674165E+01 0.  0.
         22    1    3    3    0    0  0.16657690601E+02  0.41287419062E+02 -0.72633690070E+02  0.85192620350E+02  0.00000000000E+00 0.  1.
         22    1    4    4    0    0 -0.12164701836E+02 -0.18672840332E+02 -0.60496882543E+02  0.64471138769E+02  0.00000000000E+00 0.  1.
         22    1    4    4    0    0 -0.44929887651E+01 -0.22614578730E+02 -0.49370341975E+02  0.54488868458E+02  0.00000000000E+00 0.  1.
<mgrwt>
<rscale>  0 0.91497057E+02</rscale>
<asrwt>0</asrwt>
<pdfrwt beam="2">  1        1 0.29742578E-01 0.91497057E+02</pdfrwt>
<pdfrwt beam="1">  1       -1 0.16655165E-02 0.91497057E+02</pdfrwt>
<totfact> 0.11652811E+05</totfact>
</mgrwt>
</event>
<event>
 7    1  0.3301067E-009  0.9004675E+02  0.7818608E-02  0.1302739E+00
          1   -1    0    0  501    0  0.00000000000E+00  0.00000000000E+00  0.85115930883E+02  0.85115931032E+02  0.50400000000E-02 0. -1.
         -1   -1    0    0    0  501 -0.00000000000E+00 -0.00000000000E+00 -0.23815801184E+02  0.23815801717E+02  0.50400000000E-02 0.  1.
         23    2    1    2    0    0  0.71054273576E-14 -0.44408920985E-15  0.61300129699E+02  0.10893173275E+03  0.90046746185E+02 0.  0.
    9000005    2    3    3    0    0 -0.35286179822E+02  0.26066259322E+01  0.62959998762E+02  0.73510494057E+02  0.13708475744E+02 0.  0.
         22    1    3    3    0    0  0.35286179822E+02 -0.26066259322E+01 -0.16598690634E+01  0.35421238692E+02  0.00000000000E+00 0.  1.
         22    1    4    4    0    0 -0.28554501987E+02  0.25729001960E+01  0.37666494829E+02  0.47336499996E+02  0.00000000000E+00 0. -1.
         22    1    4    4    0    0 -0.67316778343E+01  0.33725736197E-01  0.25293503933E+02  0.26173994061E+02  0.00000000000E+00 0. -1.
<mgrwt>
<rscale>  0 0.90046746E+02</rscale>
<asrwt>0</asrwt>
<pdfrwt beam="1">  1        1 0.13094759E-01 0.90046746E+02</pdfrwt>
<pdfrwt beam="2">  1       -1 0.36639695E-02 0.90046746E+02</pdfrwt>
<totfact> 0.10527182E+05</totfact>
</mgrwt>
</event>
<event>
 7    1  0.3301067E-009  0.9112868E+02  0.7818608E-02  0.1300141E+00
         -1   -1    0    0    0  501 -0.00000000000E+00  0.00000000000E+00  0.10173487453E+03  0.10173487466E+03  0.50400000000E-02 0.  1.
          1   -1    0    0  501    0  0.00000000000E+00 -0.00000000000E+00 -0.20407053605E+02  0.20407054228E+02  0.50400000000E-02 0. -1.
         23    2    1    2    0    0  0.00000000000E+00  0.35527136788E-14  0.81327820926E+02  0.12214192888E+03  0.91128680089E+02 0.  0.
    9000005    2    3    3    0    0 -0.19839375278E+01 -0.26123504200E+02  0.90461307414E+02  0.94396766148E+02  0.64130991183E+01 0.  0.
         22    1    3    3    0    0  0.19839375278E+01  0.26123504200E+02 -0.91334864880E+01  0.27745162736E+02  0.00000000000E+00 0. -1.
         22    1    4    4    0    0 -0.42223725599E+01 -0.19942758569E+02  0.67083403733E+02  0.70112232212E+02  0.00000000000E+00 0.  1.
         22    1    4    4    0    0  0.22384350321E+01 -0.61807456312E+01  0.23377903681E+02  0.24284533935E+02  0.00000000000E+00 0.  1.
<mgrwt>
<rscale>  0 0.91128680E+02</rscale>
<asrwt>0</asrwt>
<pdfrwt beam="2">  1        1 0.31395468E-02 0.91128680E+02</pdfrwt>
<pdfrwt beam="1">  1       -1 0.15651519E-01 0.91128680E+02</pdfrwt>
<totfact> 0.81220244E+04</totfact>
</mgrwt>
</event>
<event>
 7    1  0.3301067E-009  0.8732423E+02  0.7818608E-02  0.1309464E+00
          1   -1    0    0  501    0  0.00000000000E+00  0.00000000000E+00  0.47969924258E+02  0.47969924523E+02  0.50400000000E-02 0. -1.
         -1   -1    0    0    0  501 -0.00000000000E+00 -0.00000000000E+00 -0.39741153206E+02  0.39741153526E+02  0.50400000000E-02 0.  1.
         23    2    1    2    0    0  0.00000000000E+00  0.00000000000E+00  0.82287710522E+01  0.87711078049E+02  0.87324226532E+02 0.  0.
    9000005    2    3    3    0    0  0.20924453174E+02  0.37993371479E+02  0.39204836083E+01  0.44123346315E+02  0.70831124077E+01 0.  0.
         22    1    3    3    0    0 -0.20924453174E+02 -0.37993371479E+02  0.43082874440E+01  0.43587731734E+02  0.00000000000E+00 0. -1.
         22    1    4    4    0    0  0.16493991653E+02  0.34712493045E+02  0.36244923073E+01  0.38602407677E+02  0.00000000000E+00 0. -1.
         22    1    4    4    0    0  0.44304615216E+01  0.32808784343E+01  0.29599130102E+00  0.55209386381E+01  0.00000000000E+00 0. -1.
<mgrwt>
<rscale>  0 0.87324227E+02</rscale>
<asrwt>0</asrwt>
<pdfrwt beam="1">  1        1 0.73799884E-02 0.87324227E+02</pdfrwt>
<pdfrwt beam="2">  1       -1 0.61140236E-02 0.87324227E+02</pdfrwt>
<totfact> 0.10510281E+05</totfact>
</mgrwt>
</event>
<event>
 7    1  0.3301067E-009  0.9031095E+02  0.7818608E-02  0.1302100E+00
         -1   -1    0    0    0  501 -0.00000000000E+00  0.00000000000E+00  0.41129511182E+01  0.41129542062E+01  0.50400000000E-02 0.  1.
          1   -1    0    0  501    0  0.00000000000E+00 -0.00000000000E+00 -0.49575497447E+03  0.49575497450E+03  0.50400000000E-02 0. -1.
         23    2    1    2    0    0  0.00000000000E+00  0.00000000000E+00 -0.49164202335E+03  0.49986792870E+03  0.90310946287E+02 0.  0.
    9000005    2    3    3    0    0 -0.20365624589E+02  0.21844643922E+02 -0.43157156095E+03  0.43278285148E+03  0.12451392666E+02 0.  0.
         22    1    3    3    0    0  0.20365624589E+02 -0.21844643922E+02 -0.60070462400E+02  0.67085077223E+02  0.00000000000E+00 0.  1.
         22    1    4    4    0    0 -0.15398985143E+02  0.83146021652E+01 -0.20053239161E+03  0.20129456385E+03  0.00000000000E+00 0.  1.
         22    1    4    4    0    0 -0.49666394464E+01  0.13530041757E+02 -0.23103916934E+03  0.23148828763E+03  0.00000000000E+00 0.  1.
<mgrwt>
<rscale>  0 0.90310946E+02</rscale>
<asrwt>0</asrwt>
<pdfrwt beam="2">  1        1 0.76269949E-01 0.90310946E+02</pdfrwt>
<pdfrwt beam="1">  1       -1 0.63276235E-03 0.90310946E+02</pdfrwt>
<totfact> 0.14268400E+05</totfact>
</mgrwt>
</event>
<event>
 7    1  0.3301067E-009  0.9130145E+02  0.7818608E-02  0.1299730E+00
         -1   -1    0    0    0  501 -0.00000000000E+00  0.00000000000E+00  0.91455437787E+01  0.91455451674E+01  0.50400000000E-02 0.  1.
          1   -1    0    0  501    0  0.00000000000E+00 -0.00000000000E+00 -0.22786926054E+03  0.22786926059E+03  0.50400000000E-02 0. -1.
         23    2    1    2    0    0  0.00000000000E+00  0.00000000000E+00 -0.21872371676E+03  0.23701480576E+03  0.91301445098E+02 0.  0.
    9000005    2    3    3    0    0  0.54811709323E+01  0.43888128380E+02 -0.13162408805E+03  0.13932879669E+03  0.11463070434E+02 0.  0.
         22    1    3    3    0    0 -0.54811709323E+01 -0.43888128380E+02 -0.87099628706E+02  0.97686009071E+02  0.00000000000E+00 0.  1.
         22    1    4    4    0    0  0.48994733803E+01  0.18414742078E+02 -0.41381887877E+02  0.45558404378E+02  0.00000000000E+00 0. -1.
         22    1    4    4    0    0  0.58169755199E+00  0.25473386302E+02 -0.90242200176E+02  0.93770392312E+02  0.00000000000E+00 0. -1.
<mgrwt>
<rscale>  0 0.91301445E+02</rscale>
<asrwt>0</asrwt>
<pdfrwt beam="2">  1        1 0.35056805E-01 0.91301445E+02</pdfrwt>
<pdfrwt beam="1">  1       -1 0.14070070E-02 0.91301445E+02</pdfrwt>
<totfact> 0.12101055E+05</totfact>
</mgrwt>
</event>
<event>
 7    1  0.3301067E-009  0.9192205E+02  0.7818608E-02  0.1298263E+00
         -1   -1    0    0    0  501 -0.00000000000E+00  0.00000000000E+00  0.26960546419E+02  0.26960546891E+02  0.50400000000E-02 0.  1.
          1   -1    0    0  501    0  0.00000000000E+00 -0.00000000000E+00 -0.78352109802E+02  0.78352109965E+02  0.50400000000E-02 0. -1.
         23    2    1    2    0    0  0.88817841970E-15 -0.71054273576E-14 -0.51391563383E+02  0.10531265686E+03  0.91922047991E+02 0.  0.
    9000005    2    3    3    0    0 -0.36512425155E+01  0.36849690316E+02 -0.56039035420E+02  0.67992015855E+02  0.10550330843E+02 0.  0.
         22    1    3    3    0    0  0.36512425155E+01 -0.36849690316E+02  0.46474720373E+01  0.37320641000E+02  0.00000000000E+00 0.  1.
         22    1    4    4    0    0  0.63779840227E+00  0.10617380101E+01 -0.71268775609E+01  0.72337029364E+01  0.00000000000E+00 0. -1.
         22    1    4    4    0    0 -0.42890409177E+01  0.35787952306E+02 -0.48912157859E+02  0.60758312919E+02  0.00000000000E+00 0. -1.
<mgrwt>
<rscale>  0 0.91922048E+02</rscale>
<asrwt>0</asrwt>
<pdfrwt beam="2">  1        1 0.12054171E-01 0.91922048E+02</pdfrwt>
<pdfrwt beam="1">  1       -1 0.41477764E-02 0.91922048E+02</pdfrwt>
<totfact> 0.98190908E+04</totfact>
</mgrwt>
</event>
<event>
 7    1  0.3301067E-009  0.9052854E+02  0.7818608E-02  0.1301577E+00
         -1   -1    0    0    0  501 -0.00000000000E+00  0.00000000000E+00  0.75300778793E+02  0.75300778962E+02  0.50400000000E-02 0. -1.
          1   -1    0    0  501    0  0.00000000000E+00 -0.00000000000E+00 -0.27208935680E+02  0.27208936147E+02  0.50400000000E-02 0.  1.
         23    2    1    2    0    0  0.00000000000E+00  0.00000000000E+00  0.48091843113E+02  0.10250971511E+03  0.90528538692E+02 0.  0.
    9000005    2    3    3    0    0  0.21982735577E+02  0.46496107738E+01  0.68516216154E+02  0.72145022489E+02  0.23606884817E+01 0.  0.
         22    1    3    3    0    0 -0.21982735577E+02 -0.46496107738E+01 -0.20424373041E+02  0.30364692620E+02  0.00000000000E+00 0.  1.
         22    1    4    4    0    0  0.16033937025E+02  0.43126230736E+01  0.48722191479E+02  0.51473661195E+02  0.00000000000E+00 0.  1.
         22    1    4    4    0    0  0.59487985521E+01  0.33698770020E+00  0.19794024675E+02  0.20671361294E+02  0.00000000000E+00 0.  1.
<mgrwt>
<rscale>  0 0.90528539E+02</rscale>
<asrwt>0</asrwt>
<pdfrwt beam="2">  1        1 0.41859902E-02 0.90528539E+02</pdfrwt>
<pdfrwt beam="1">  1       -1 0.11584735E-01 0.90528539E+02</pdfrwt>
<totfact> 0.87084610E+04</totfact>
</mgrwt>
</event>
<event>
 7    1  0.3301067E-009  0.9186956E+02  0.7818608E-02  0.1298386E+00
          1   -1    0    0  501    0  0.00000000000E+00  0.00000000000E+00  0.93984217930E+02  0.93984218065E+02  0.50400000000E-02 0. -1.
         -1   -1    0    0    0  501 -0.00000000000E+00 -0.00000000000E+00 -0.22450617767E+02  0.22450618333E+02  0.50400000000E-02 0.  1.
         23    2    1    2    0    0  0.00000000000E+00  0.00000000000E+00  0.71533600163E+02  0.11643483640E+03  0.91869555212E+02 0.  0.
    9000005    2    3    3    0    0  0.67280797403E+01  0.13170998338E+02  0.90412686572E+02  0.92452297795E+02  0.12418986275E+02 0.  0.
         22    1    3    3    0    0 -0.67280797403E+01 -0.13170998338E+02 -0.18879086410E+02  0.23982538604E+02  0.00000000000E+00 0.  1.
         22    1    4    4    0    0  0.84133000107E+01  0.12012595344E+02  0.88308801442E+02  0.89518324806E+02  0.00000000000E+00 0.  1.
         22    1    4    4    0    0 -0.16852202704E+01  0.11584029941E+01  0.21038851304E+01  0.29339729887E+01  0.00000000000E+00 0.  1.
<mgrwt>
<rscale>  0 0.91869555E+02</rscale>
<asrwt>0</asrwt>
<pdfrwt beam="1">  1        1 0.14459111E-01 0.91869555E+02</pdfrwt>
<pdfrwt beam="2">  1       -1 0.34539412E-02 0.91869555E+02</pdfrwt>
<totfact> 0.10126957E+05</totfact>
</mgrwt>
</event>
<event>
 7    1  0.3301067E-009  0.8983683E+02  0.7818608E-02  0.1303247E+00
         -1   -1    0    0    0  501 -0.00000000000E+00  0.00000000000E+00  0.38326552802E+01  0.38326585940E+01  0.50400000000E-02 0.  1.
          1   -1    0    0  501    0  0.00000000000E+00 -0.00000000000E+00 -0.52644000027E+03  0.52644000029E+03  0.50400000000E-02 0. -1.
         23    2    1    2    0    0  0.00000000000E+00  0.00000000000E+00 -0.52260734499E+03  0.53027265888E+03  0.89836828344E+02 0.  0.
    9000005    2    3    3    0    0  0.32481940779E+02  0.44309847586E+01 -0.43930984942E+03  0.44075627564E+03  0.14079794382E+02 0.  0.
         22    1    3    3    0    0 -0.32481940779E+02 -0.44309847586E+01 -0.83297495560E+02  0.89516383245E+02  0.00000000000E+00 0.  1.
         22    1    4    4    0    0  0.29953435106E+02 -0.62958905616E+00 -0.37847236852E+03  0.37965634248E+03  0.00000000000E+00 0.  1.
         22    1    4    4    0    0  0.25285056733E+01  0.50605738148E+01 -0.60837480906E+02  0.61099933153E+02  0.00000000000E+00 0.  1.
<mgrwt>
<rscale>  0 0.89836828E+02</rscale>
<asrwt>0</asrwt>
<pdfrwt beam="2">  1        1 0.80990712E-01 0.89836828E+02</pdfrwt>
<pdfrwt beam="1">  1       -1 0.58963995E-03 0.89836828E+02</pdfrwt>
<totfact> 0.14566044E+05</totfact>
</mgrwt>
</event>
<event>
 7    1  0.3301067E-009  0.9888360E+02  0.7818608E-02  0.1282661E+00
         -1   -1    0    0    0  501 -0.00000000000E+00  0.00000000000E+00  0.24046526356E+03  0.24046526361E+03  0.50400000000E-02 0.  1.
          1   -1    0    0  501    0  0.00000000000E+00 -0.00000000000E+00 -0.10165672936E+02  0.10165674185E+02  0.50400000000E-02 0. -1.
         23    2    1    2    0    0 -0.71054273576E-14  0.00000000000E+00  0.23029959062E+03  0.25063093780E+03  0.98883595909E+02 0.  0.
    9000005    2    3    3    0    0 -0.48015881269E+02  0.47274403668E+01  0.11972269018E+03  0.12998631729E+03  0.15331229286E+02 0.  0.
         22    1    3    3    0    0  0.48015881269E+02 -0.47274403668E+01  0.11057690044E+03  0.12064462051E+03  0.00000000000E+00 0.  1.
         22    1    4    4    0    0 -0.29249776173E+02 -0.46803294634E+01  0.68715035758E+02  0.74827876018E+02  0.00000000000E+00 0. -1.
         22    1    4    4    0    0 -0.18766105096E+02  0.94077698302E+01  0.51007654420E+02  0.55158441268E+02  0.00000000000E+00 0. -1.
<mgrwt>
<rscale>  0 0.98883596E+02</rscale>
<asrwt>0</asrwt>
<pdfrwt beam="2">  1        1 0.15639500E-02 0.98883596E+02</pdfrwt>
<pdfrwt beam="1">  1       -1 0.36994651E-01 0.98883596E+02</pdfrwt>
<totfact> 0.53052394E+04</totfact>
</mgrwt>
</event>
<event>
 7    1  0.3301067E-009  0.1170524E+03  0.7818608E-02  0.1248040E+00
         -1   -1    0    0    0  501 -0.00000000000E+00  0.00000000000E+00  0.10096930745E+02  0.10096932002E+02  0.50400000000E-02 0.  1.
          1   -1    0    0  501    0  0.00000000000E+00 -0.00000000000E+00 -0.33924353272E+03  0.33924353275E+03  0.50400000000E-02 0. -1.
         23    2    1    2    0    0  0.71054273576E-14  0.00000000000E+00 -0.32914660197E+03  0.34934046476E+03  0.11705244434E+03 0.  0.
    9000005    2    3    3    0    0  0.49427124553E+02  0.29607526936E+02 -0.17462092806E+03  0.18442281807E+03  0.14130145537E+02 0.  0.
         22    1    3    3    0    0 -0.49427124553E+02 -0.29607526936E+02 -0.15452567391E+03  0.16491764669E+03  0.00000000000E+00 0.  1.
         22    1    4    4    0    0  0.15371481036E+02  0.63492006987E+01 -0.33525321851E+02  0.37423815732E+02  0.00000000000E+00 0. -1.
         22    1    4    4    0    0  0.34055643517E+02  0.23258326237E+02 -0.14109560621E+03  0.14699900233E+03  0.00000000000E+00 0. -1.
<mgrwt>
<rscale>  0 0.11705244E+03</rscale>
<asrwt>0</asrwt>
<pdfrwt beam="2">  1        1 0.52191304E-01 0.11705244E+03</pdfrwt>
<pdfrwt beam="1">  1       -1 0.15533743E-02 0.11705244E+03</pdfrwt>
<totfact> 0.66854598E+04</totfact>
</mgrwt>
</event>
<event>
 7    1  0.3301067E-009  0.9247941E+02  0.7818608E-02  0.1296956E+00
         -1   -1    0    0    0  501 -0.00000000000E+00  0.00000000000E+00  0.14677499513E+03  0.14677499522E+03  0.50400000000E-02 0.  1.
          1   -1    0    0  501    0  0.00000000000E+00 -0.00000000000E+00 -0.14567264307E+02  0.14567265179E+02  0.50400000000E-02 0. -1.
         23    2    1    2    0    0  0.00000000000E+00  0.00000000000E+00  0.13220773082E+03  0.16134226039E+03  0.92479407979E+02 0.  0.
    9000005    2    3    3    0    0  0.13816261035E+02  0.11530726839E+02  0.14002300690E+03  0.14172274790E+03  0.12451830388E+02 0.  0.
         22    1    3    3    0    0 -0.13816261035E+02 -0.11530726839E+02 -0.78152760781E+01  0.19619512496E+02  0.00000000000E+00 0. -1.
         22    1    4    4    0    0 -0.30974569879E+00  0.22061010281E+00  0.44452530296E+02  0.44454156847E+02  0.00000000000E+00 0.  1.
         22    1    4    4    0    0  0.14126006734E+02  0.11310116736E+02  0.95570476604E+02  0.97268591052E+02  0.00000000000E+00 0.  1.
<mgrwt>
<rscale>  0 0.92479408E+02</rscale>
<asrwt>0</asrwt>
<pdfrwt beam="2">  1        1 0.22411177E-02 0.92479408E+02</pdfrwt>
<pdfrwt beam="1">  1       -1 0.22580768E-01 0.92479408E+02</pdfrwt>
<totfact> 0.72447841E+04</totfact>
</mgrwt>
</event>
<event>
 7    1  0.3301067E-009  0.9533021E+02  0.7818608E-02  0.1290434E+00
         -1   -1    0    0    0  501 -0.00000000000E+00  0.00000000000E+00  0.80787832455E+02  0.80787832613E+02  0.50400000000E-02 0.  1.
          1   -1    0    0  501    0  0.00000000000E+00 -0.00000000000E+00 -0.28122579739E+02  0.28122580191E+02  0.50400000000E-02 0. -1.
         23    2    1    2    0    0  0.00000000000E+00  0.00000000000E+00  0.52665252716E+02  0.10891041280E+03  0.95330211231E+02 0.  0.
    9000005    2    3    3    0    0 -0.37988851994E+02  0.26550499989E+02  0.29765605911E+02  0.57214419252E+02  0.15473091146E+02 0.  0.
         22    1    3    3    0    0  0.37988851994E+02 -0.26550499989E+02  0.22899646806E+02  0.51695993552E+02  0.00000000000E+00 0.  1.
         22    1    4    4    0    0 -0.59096814475E+00  0.51015553341E+01  0.61589535174E+00  0.51724691647E+01  0.00000000000E+00 0. -1.
         22    1    4    4    0    0 -0.37397883849E+02  0.21448944654E+02  0.29149710559E+02  0.52041950087E+02  0.00000000000E+00 0. -1.
<mgrwt>
<rscale>  0 0.95330211E+02</rscale>
<asrwt>0</asrwt>
<pdfrwt beam="2">  1        1 0.43265507E-02 0.95330211E+02</pdfrwt>
<pdfrwt beam="1">  1       -1 0.12428898E-01 0.95330211E+02</pdfrwt>
<totfact> 0.75388513E+04</totfact>
</mgrwt>
</event>
<event>
 7    1  0.3301067E-009  0.9591911E+02  0.7818608E-02  0.1289119E+00
          1   -1    0    0  501    0  0.00000000000E+00  0.00000000000E+00  0.17774822385E+02  0.17774823100E+02  0.50400000000E-02 0. -1.
         -1   -1    0    0    0  501 -0.00000000000E+00 -0.00000000000E+00 -0.12940320058E+03  0.12940320068E+03  0.50400000000E-02 0.  1.
         23    2    1    2    0    0  0.00000000000E+00  0.00000000000E+00 -0.11162837819E+03  0.14717802378E+03  0.95919111051E+02 0.  0.
    9000005    2    3    3    0    0  0.90568398599E+01  0.33851763806E+02 -0.77312072138E+01  0.37530450167E+02  0.10990671667E+02 0.  0.
         22    1    3    3    0    0 -0.90568398599E+01 -0.33851763806E+02 -0.10389717098E+03  0.10964757361E+03  0.00000000000E+00 0.  1.
         22    1    4    4    0    0  0.76081762973E+01  0.34248310034E+02 -0.67232033250E+01  0.35721597805E+02  0.00000000000E+00 0.  1.
         22    1    4    4    0    0  0.14486635625E+01 -0.39654622774E+00 -0.10080038888E+01  0.18088523621E+01  0.00000000000E+00 0.  1.
<mgrwt>
<rscale>  0 0.95919111E+02</rscale>
<asrwt>0</asrwt>
<pdfrwt beam="1">  1        1 0.27345882E-02 0.95919111E+02</pdfrwt>
<pdfrwt beam="2">  1       -1 0.19908184E-01 0.95919111E+02</pdfrwt>
<totfact> 0.67774870E+04</totfact>
</mgrwt>
</event>
<event>
 7    1  0.3301067E-009  0.9157439E+02  0.7818608E-02  0.1299083E+00
         -1   -1    0    0    0  501 -0.00000000000E+00  0.00000000000E+00  0.91822035327E+02  0.91822035465E+02  0.50400000000E-02 0.  1.
          1   -1    0    0  501    0  0.00000000000E+00 -0.00000000000E+00 -0.22831855140E+02  0.22831855696E+02  0.50400000000E-02 0. -1.
         23    2    1    2    0    0  0.00000000000E+00  0.00000000000E+00  0.68990180187E+02  0.11465389116E+03  0.91574394871E+02 0.  0.
    9000005    2    3    3    0    0  0.26073155153E+02 -0.27848238856E+02  0.65210726452E+02  0.76318292853E+02  0.10803201039E+02 0.  0.
         22    1    3    3    0    0 -0.26073155153E+02  0.27848238856E+02  0.37794537356E+01  0.38335598307E+02  0.00000000000E+00 0. -1.
         22    1    4    4    0    0  0.26683117651E+02 -0.26736552377E+02  0.64762416142E+02  0.74973345564E+02  0.00000000000E+00 0. -1.
         22    1    4    4    0    0 -0.60996249747E+00 -0.11116864796E+01  0.44831030983E+00  0.13449472894E+01  0.00000000000E+00 0. -1.
<mgrwt>
<rscale>  0 0.91574395E+02</rscale>
<asrwt>0</asrwt>
<pdfrwt beam="2">  1        1 0.35125932E-02 0.91574395E+02</pdfrwt>
<pdfrwt beam="1">  1       -1 0.14126467E-01 0.91574395E+02</pdfrwt>
<totfact> 0.81726631E+04</totfact>
</mgrwt>
</event>
<event>
 7    1  0.3301067E-009  0.9127662E+02  0.7818608E-02  0.1299789E+00
         -1   -1    0    0    0  501 -0.00000000000E+00  0.00000000000E+00  0.25574483011E+03  0.25574483016E+03  0.50400000000E-02 0.  1.
          1   -1    0    0  501    0  0.00000000000E+00 -0.00000000000E+00 -0.81442698166E+01  0.81442713760E+01  0.50400000000E-02 0. -1.
         23    2    1    2    0    0  0.00000000000E+00  0.00000000000E+00  0.24760056030E+03  0.26388910154E+03  0.91276615032E+02 0.  0.
    9000005    2    3    3    0    0 -0.12764665934E+02  0.42287588255E+02  0.13813145437E+03  0.14584393235E+03  0.15458884167E+02 0.  0.
         22    1    3    3    0    0  0.12764665934E+02 -0.42287588255E+02  0.10946910593E+03  0.11804516919E+03  0.00000000000E+00 0.  1.
         22    1    4    4    0    0 -0.11510061003E+02  0.13417464026E+02  0.45672653090E+02  0.48974494234E+02  0.00000000000E+00 0.  1.
         22    1    4    4    0    0 -0.12546049314E+01  0.28870124229E+02  0.92458801279E+02  0.96869438114E+02  0.00000000000E+00 0.  1.
<mgrwt>
<rscale>  0 0.91276615E+02</rscale>
<asrwt>0</asrwt>
<pdfrwt beam="2">  1        1 0.12529649E-02 0.91276615E+02</pdfrwt>
<pdfrwt beam="1">  1       -1 0.39345352E-01 0.91276615E+02</pdfrwt>
<totfact> 0.64080416E+04</totfact>
</mgrwt>
</event>
<event>
 7    1  0.3301067E-009  0.9241465E+02  0.7818608E-02  0.1297107E+00
         -1   -1    0    0    0  501 -0.00000000000E+00  0.00000000000E+00  0.13513422950E+02  0.13513423890E+02  0.50400000000E-02 0.  1.
          1   -1    0    0  501    0  0.00000000000E+00 -0.00000000000E+00 -0.15799971810E+03  0.15799971818E+03  0.50400000000E-02 0. -1.
         23    2    1    2    0    0  0.00000000000E+00  0.00000000000E+00 -0.14448629515E+03  0.17151314207E+03  0.92414654770E+02 0.  0.
    9000005    2    3    3    0    0 -0.18284341783E+02  0.29264520606E+02 -0.12860059575E+03  0.13352518653E+03  0.10006642235E+02 0.  0.
         22    1    3    3    0    0  0.18284341783E+02 -0.29264520606E+02 -0.15885699395E+02  0.37987955539E+02  0.00000000000E+00 0.  1.
         22    1    4    4    0    0 -0.17609461482E+00 -0.90528683015E-01  0.14123066356E+00  0.24320949025E+00  0.00000000000E+00 0.  1.
         22    1    4    4    0    0 -0.18108247168E+02  0.29355049289E+02 -0.12874182642E+03  0.13328197704E+03  0.00000000000E+00 0.  1.
<mgrwt>
<rscale>  0 0.92414655E+02</rscale>
<asrwt>0</asrwt>
<pdfrwt beam="2">  1        1 0.24307648E-01 0.92414655E+02</pdfrwt>
<pdfrwt beam="1">  1       -1 0.20789883E-02 0.92414655E+02</pdfrwt>
<totfact> 0.10916841E+05</totfact>
</mgrwt>
</event>
<event>
 7    1  0.3301067E-009  0.9282036E+02  0.7818608E-02  0.1296162E+00
          1   -1    0    0  501    0  0.00000000000E+00  0.00000000000E+00  0.20145366270E+02  0.20145366900E+02  0.50400000000E-02 0. -1.
         -1   -1    0    0    0  501 -0.00000000000E+00 -0.00000000000E+00 -0.10691812401E+03  0.10691812413E+03  0.50400000000E-02 0.  1.
         23    2    1    2    0    0  0.00000000000E+00  0.00000000000E+00 -0.86772757737E+02  0.12706349103E+03  0.92820360193E+02 0.  0.
    9000005    2    3    3    0    0  0.31375208988E+02 -0.19919683617E+02 -0.79883712917E+02  0.89265918710E+02  0.14345700378E+02 0.  0.
         22    1    3    3    0    0 -0.31375208988E+02  0.19919683617E+02 -0.68890448201E+01  0.37797572316E+02  0.00000000000E+00 0. -1.
         22    1    4    4    0    0  0.83237024166E+01 -0.29507325367E+01 -0.34477603457E+02  0.35590672718E+02  0.00000000000E+00 0. -1.
         22    1    4    4    0    0  0.23051506571E+02 -0.16968951080E+02 -0.45406109460E+02  0.53675245992E+02  0.00000000000E+00 0. -1.
<mgrwt>
<rscale>  0 0.92820360E+02</rscale>
<asrwt>0</asrwt>
<pdfrwt beam="1">  1        1 0.30992872E-02 0.92820360E+02</pdfrwt>
<pdfrwt beam="2">  1       -1 0.16448942E-01 0.92820360E+02</pdfrwt>
<totfact> 0.76725451E+04</totfact>
</mgrwt>
</event>
<event>
 7    1  0.3301067E-009  0.9096967E+02  0.7818608E-02  0.1300520E+00
          1   -1    0    0  501    0  0.00000000000E+00  0.00000000000E+00  0.19344038684E+04  0.19344038684E+04  0.50400000000E-02 0. -1.
         -1   -1    0    0    0  501 -0.00000000000E+00 -0.00000000000E+00 -0.10695071940E+01  0.10695190693E+01  0.50400000000E-02 0.  1.
         23    2    1    2    0    0  0.00000000000E+00  0.00000000000E+00  0.19333343612E+04  0.19354733875E+04  0.90969673010E+02 0.  0.
    9000005    2    3    3    0    0  0.17930735237E+02  0.10521318374E+01  0.18537894432E+04  0.18539257803E+04  0.13523353222E+02 0.  0.
         22    1    3    3    0    0 -0.17930735237E+02 -0.10521318374E+01  0.79544918082E+02  0.81547607201E+02  0.00000000000E+00 0.  1.
         22    1    4    4    0    0  0.99251451691E+01 -0.46407943548E+01  0.61658797726E+03  0.61668531617E+03  0.00000000000E+00 0.  1.
         22    1    4    4    0    0  0.80055900677E+01  0.56929261922E+01  0.12372014659E+04  0.12372404641E+04  0.00000000000E+00 0.  1.
<mgrwt>
<rscale>  0 0.90969673E+02</rscale>
<asrwt>0</asrwt>
<pdfrwt beam="1">  1        1 0.29759685E+00 0.90969673E+02</pdfrwt>
<pdfrwt beam="2">  1       -1 0.16454255E-03 0.90969673E+02</pdfrwt>
<totfact> 0.84210950E+04</totfact>
</mgrwt>
</event>
<event>
 7    1  0.3301067E-009  0.9120676E+02  0.7818608E-02  0.1299955E+00
         -1   -1    0    0    0  501 -0.00000000000E+00  0.00000000000E+00  0.16423088133E+02  0.16423088907E+02  0.50400000000E-02 0.  1.
          1   -1    0    0  501    0  0.00000000000E+00 -0.00000000000E+00 -0.12663075211E+03  0.12663075221E+03  0.50400000000E-02 0. -1.
         23    2    1    2    0    0  0.00000000000E+00  0.00000000000E+00 -0.11020766398E+03  0.14305384112E+03  0.91206755557E+02 0.  0.
    9000005    2    3    3    0    0  0.58065461794E+00  0.39582951702E+02 -0.90441360996E+02  0.98806197579E+02  0.39846801754E+01 0.  0.
         22    1    3    3    0    0 -0.58065461794E+00 -0.39582951702E+02 -0.19766302982E+02  0.44247643539E+02  0.00000000000E+00 0.  1.
         22    1    4    4    0    0  0.14092120669E+01  0.34219818543E+02 -0.75337017699E+02  0.82756559230E+02  0.00000000000E+00 0. -1.
         22    1    4    4    0    0 -0.82855744891E+00  0.53631331586E+01 -0.15104343296E+02  0.16049638349E+02  0.00000000000E+00 0. -1.
<mgrwt>
<rscale>  0 0.91206756E+02</rscale>
<asrwt>0</asrwt>
<pdfrwt beam="2">  1        1 0.19481654E-01 0.91206756E+02</pdfrwt>
<pdfrwt beam="1">  1       -1 0.25266291E-02 0.91206756E+02</pdfrwt>
<totfact> 0.10866298E+05</totfact>
</mgrwt>
</event>
<event>
 7    1  0.3301067E-009  0.9299298E+02  0.7818608E-02  0.1295761E+00
          1   -1    0    0  501    0  0.00000000000E+00  0.00000000000E+00  0.19653154890E+03  0.19653154897E+03  0.50400000000E-02 0. -1.
         -1   -1    0    0    0  501 -0.00000000000E+00 -0.00000000000E+00 -0.11000389386E+02  0.11000390541E+02  0.50400000000E-02 0.  1.
         23    2    1    2    0    0  0.00000000000E+00  0.71054273576E-14  0.18553115952E+03  0.20753193951E+03  0.92992982339E+02 0.  0.
    9000005    2    3    3    0    0  0.12654217062E+02 -0.43420915273E+02  0.72728714619E+02  0.86000475815E+02  0.78173408313E+01 0.  0.
         22    1    3    3    0    0 -0.12654217062E+02  0.43420915273E+02  0.11280244490E+03  0.12153146369E+03  0.00000000000E+00 0. -1.
         22    1    4    4    0    0  0.73862455774E+01 -0.35584329531E+02  0.55187923617E+02  0.66079558450E+02  0.00000000000E+00 0.  1.
         22    1    4    4    0    0  0.52679714843E+01 -0.78365857419E+01  0.17540791002E+02  0.19920917364E+02  0.00000000000E+00 0.  1.
<mgrwt>
<rscale>  0 0.92992982E+02</rscale>
<asrwt>0</asrwt>
<pdfrwt beam="1">  1        1 0.30235623E-01 0.92992982E+02</pdfrwt>
<pdfrwt beam="2">  1       -1 0.16923677E-02 0.92992982E+02</pdfrwt>
<totfact> 0.11191289E+05</totfact>
</mgrwt>
</event>
<event>
 7    1  0.3301067E-009  0.1172283E+03  0.7818608E-02  0.1247741E+00
         -1   -1    0    0    0  501 -0.00000000000E+00  0.00000000000E+00  0.47223091514E+01  0.47223118410E+01  0.50400000000E-02 0.  1.
          1   -1    0    0  501    0  0.00000000000E+00 -0.00000000000E+00 -0.72752877934E+03  0.72752877936E+03  0.50400000000E-02 0. -1.
         23    2    1    2    0    0 -0.35527136788E-14 -0.71054273576E-14 -0.72280647019E+03  0.73225109120E+03  0.11722826969E+03 0.  0.
    9000005    2    3    3    0    0 -0.26844217695E+02 -0.51066590101E+02 -0.38281380854E+03  0.38739834201E+03  0.14235685256E+02 0.  0.
         22    1    3    3    0    0  0.26844217695E+02  0.51066590101E+02 -0.33999266165E+03  0.34485274919E+03  0.00000000000E+00 0.  1.
         22    1    4    4    0    0 -0.25008046382E+02 -0.46341749252E+02 -0.36783180198E+03  0.37158201605E+03  0.00000000000E+00 0.  1.
         22    1    4    4    0    0 -0.18361713135E+01 -0.47248408493E+01 -0.14982006560E+02  0.15816325955E+02  0.00000000000E+00 0.  1.
<mgrwt>
<rscale>  0 0.11722827E+03</rscale>
<asrwt>0</asrwt>
<pdfrwt beam="2">  1        1 0.11192742E+00 0.11722827E+03</pdfrwt>
<pdfrwt beam="1">  1       -1 0.72650989E-03 0.11722827E+03</pdfrwt>
<totfact> 0.72504653E+04</totfact>
</mgrwt>
</event>
<event>
 7    1  0.3301067E-009  0.9764253E+02  0.7818608E-02  0.1285333E+00
         -1   -1    0    0    0  501 -0.00000000000E+00  0.00000000000E+00  0.51636739125E+03  0.51636739128E+03  0.50400000000E-02 0.  1.
          1   -1    0    0  501    0  0.00000000000E+00 -0.00000000000E+00 -0.46159286309E+01  0.46159313824E+01  0.50400000000E-02 0. -1.
         23    2    1    2    0    0 -0.71054273576E-14  0.00000000000E+00  0.51175146262E+03  0.52098332266E+03  0.97642526565E+02 0.  0.
    9000005    2    3    3    0    0 -0.45984529110E+02 -0.11501568595E+02  0.24428135444E+03  0.24934547226E+03  0.15903503172E+02 0.  0.
         22    1    3    3    0    0  0.45984529110E+02  0.11501568595E+02  0.26747010819E+03  0.27163785040E+03  0.00000000000E+00 0.  1.
         22    1    4    4    0    0 -0.12199800762E+02 -0.10371824208E+02  0.88753690318E+02  0.90186625511E+02  0.00000000000E+00 0.  1.
         22    1    4    4    0    0 -0.33784728349E+02 -0.11297443868E+01  0.15552766412E+03  0.15915884675E+03  0.00000000000E+00 0.  1.
<mgrwt>
<rscale>  0 0.97642527E+02</rscale>
<asrwt>0</asrwt>
<pdfrwt beam="2">  1        1 0.71014340E-03 0.97642527E+02</pdfrwt>
<pdfrwt beam="1">  1       -1 0.79441102E-01 0.97642527E+02</pdfrwt>
<totfact> 0.38498683E+04</totfact>
</mgrwt>
</event>
<event>
 7    1  0.3653454E-009  0.9216519E+02  0.7818608E-02  0.1297691E+00
          1   -1    0    0  501    0  0.00000000000E+00  0.00000000000E+00  0.98848355238E+03  0.98848355240E+03  0.50400000000E-02 0. -1.
         -1   -1    0    0    0  501 -0.00000000000E+00 -0.00000000000E+00 -0.21483439457E+01  0.21483498576E+01  0.50400000000E-02 0.  1.
         23    2    1    2    0    0 -0.17763568394E-14  0.00000000000E+00  0.98633520844E+03  0.99063190225E+03  0.92165190604E+02 0.  0.
    9000005    2    3    3    0    0 -0.14214490124E+02  0.25703114331E+02  0.87065338139E+03  0.87127953769E+03  0.15100346723E+02 0.  0.
         22    1    3    3    0    0  0.14214490124E+02 -0.25703114331E+02  0.11568182705E+03  0.11935236456E+03  0.00000000000E+00 0.  1.
         22    1    4    4    0    0 -0.12723955891E+02  0.27481089444E+02  0.83615427203E+03  0.83670250147E+03  0.00000000000E+00 0. -1.
         22    1    4    4    0    0 -0.14905342333E+01 -0.17779751136E+01  0.34499109359E+02  0.34577036229E+02  0.00000000000E+00 0. -1.
<mgrwt>
<rscale>  0 0.92165191E+02</rscale>
<asrwt>0</asrwt>
<pdfrwt beam="1">  1        1 0.15207489E+00 0.92165191E+02</pdfrwt>
<pdfrwt beam="2">  1       -1 0.33051383E-03 0.92165191E+02</pdfrwt>
<totfact> 0.13259064E+05</totfact>
</mgrwt>
</event>
<event>
 7    1  0.3301067E-009  0.9190932E+02  0.7818608E-02  0.1298293E+00
         -1   -1    0    0    0  501 -0.00000000000E+00  0.00000000000E+00  0.49854457950E+01  0.49854483426E+01  0.50400000000E-02 0.  1.
          1   -1    0    0  501    0  0.00000000000E+00 -0.00000000000E+00 -0.42359911038E+03  0.42359911041E+03  0.50400000000E-02 0. -1.
         23    2    1    2    0    0  0.00000000000E+00  0.00000000000E+00 -0.41861366459E+03  0.42858455876E+03  0.91909323923E+02 0.  0.
    9000005    2    3    3    0    0  0.25267427351E+02  0.37154632440E+02 -0.19093460192E+03  0.19651417035E+03  0.11953549342E+02 0.  0.
         22    1    3    3    0    0 -0.25267427351E+02 -0.37154632440E+02 -0.22767906267E+03  0.23207038841E+03  0.00000000000E+00 0. -1.
         22    1    4    4    0    0  0.13936574963E+02  0.13434787783E+02 -0.63004349937E+02  0.65911074604E+02  0.00000000000E+00 0.  1.
         22    1    4    4    0    0  0.11330852388E+02  0.23719844657E+02 -0.12793025198E+03  0.13060309574E+03  0.00000000000E+00 0.  1.
<mgrwt>
<rscale>  0 0.91909324E+02</rscale>
<asrwt>0</asrwt>
<pdfrwt beam="2">  1        1 0.65169066E-01 0.91909324E+02</pdfrwt>
<pdfrwt beam="1">  1       -1 0.76699219E-03 0.91909324E+02</pdfrwt>
<totfact> 0.13326532E+05</totfact>
</mgrwt>
</event>
<event>
 7    1  0.3301067E-009  0.9013906E+02  0.7818608E-02  0.1302515E+00
         -1   -1    0    0    0  501 -0.00000000000E+00  0.00000000000E+00  0.23725985448E+02  0.23725985983E+02  0.50400000000E-02 0.  1.
          1   -1    0    0  501    0  0.00000000000E+00 -0.00000000000E+00 -0.85613418258E+02  0.85613418406E+02  0.50400000000E-02 0. -1.
         23    2    1    2    0    0  0.00000000000E+00  0.00000000000E+00 -0.61887432809E+02  0.10933940439E+03  0.90139064853E+02 0.  0.
    9000005    2    3    3    0    0  0.35168958153E+02  0.14290083620E+02 -0.22729235148E+01  0.38664431267E+02  0.69792518553E+01 0.  0.
         22    1    3    3    0    0 -0.35168958153E+02 -0.14290083620E+02 -0.59614509295E+02  0.70674973123E+02  0.00000000000E+00 0. -1.
         22    1    4    4    0    0  0.14102493536E+00  0.62650706792E+00 -0.81505488434E+00  0.10376481114E+01  0.00000000000E+00 0.  1.
         22    1    4    4    0    0  0.35027933218E+02  0.13663576552E+02 -0.14578686305E+01  0.37626783156E+02  0.00000000000E+00 0.  1.
<mgrwt>
<rscale>  0 0.90139065E+02</rscale>
<asrwt>0</asrwt>
<pdfrwt beam="2">  1        1 0.13171295E-01 0.90139065E+02</pdfrwt>
<pdfrwt beam="1">  1       -1 0.36501517E-02 0.90139065E+02</pdfrwt>
<totfact> 0.10507498E+05</totfact>
</mgrwt>
</event>
<event>
 7    1  0.3301067E-009  0.1021344E+03  0.7818608E-02  0.1275871E+00
         -1   -1    0    0    0  501 -0.00000000000E+00  0.00000000000E+00  0.18810323727E+03  0.18810323733E+03  0.50400000000E-02 0.  1.
          1   -1    0    0  501    0  0.00000000000E+00 -0.00000000000E+00 -0.13863968139E+02  0.13863969055E+02  0.50400000000E-02 0. -1.
         23    2    1    2    0    0  0.00000000000E+00  0.71054273576E-14  0.17423926913E+03  0.20196720639E+03  0.10213437007E+03 0.  0.
    9000005    2    3    3    0    0  0.11671798402E+02 -0.47900098718E+02  0.10532238314E+03  0.11723121929E+03  0.14822417174E+02 0.  0.
         22    1    3    3    0    0 -0.11671798402E+02  0.47900098718E+02  0.68916885982E+02  0.84735987093E+02  0.00000000000E+00 0. -1.
         22    1    4    4    0    0  0.15240481575E+02 -0.39988758735E+02  0.88329789749E+02  0.98150521450E+02  0.00000000000E+00 0. -1.
         22    1    4    4    0    0 -0.35686831735E+01 -0.79113399832E+01  0.16992593396E+02  0.19080697844E+02  0.00000000000E+00 0. -1.
<mgrwt>
<rscale>  0 0.10213437E+03</rscale>
<asrwt>0</asrwt>
<pdfrwt beam="2">  1        1 0.21329184E-02 0.10213437E+03</pdfrwt>
<pdfrwt beam="1">  1       -1 0.28938958E-01 0.10213437E+03</pdfrwt>
<totfact> 0.52503694E+04</totfact>
</mgrwt>
</event>
<event>
 7    1  0.3301067E-009  0.9266604E+02  0.7818608E-02  0.1296521E+00
          1   -1    0    0  501    0  0.00000000000E+00  0.00000000000E+00  0.45121789534E+01  0.45121817682E+01  0.50400000000E-02 0. -1.
         -1   -1    0    0    0  501 -0.00000000000E+00 -0.00000000000E+00 -0.47576748973E+03  0.47576748975E+03  0.50400000000E-02 0.  1.
         23    2    1    2    0    0  0.00000000000E+00  0.00000000000E+00 -0.47125531077E+03  0.48027967152E+03  0.92666039869E+02 0.  0.
    9000005    2    3    3    0    0  0.38418900266E+02 -0.80190428597E+01 -0.36155412492E+03  0.36376929806E+03  0.81486207449E+01 0.  0.
         22    1    3    3    0    0 -0.38418900266E+02  0.80190428597E+01 -0.10970118586E+03  0.11651037346E+03  0.00000000000E+00 0. -1.
         22    1    4    4    0    0  0.34669510422E+02 -0.54209060595E+01 -0.33422816306E+03  0.33606521116E+03  0.00000000000E+00 0. -1.
         22    1    4    4    0    0  0.37493898441E+01 -0.25981368002E+01 -0.27325961862E+02  0.27704086896E+02  0.00000000000E+00 0. -1.
<mgrwt>
<rscale>  0 0.92666040E+02</rscale>
<asrwt>0</asrwt>
<pdfrwt beam="1">  1        1 0.69418197E-03 0.92666040E+02</pdfrwt>
<pdfrwt beam="2">  1       -1 0.73194959E-01 0.92666040E+02</pdfrwt>
<totfact> 0.46455033E+04</totfact>
</mgrwt>
</event>
<event>
 7    1  0.3301067E-009  0.9853687E+02  0.7818608E-02  0.1283403E+00
         -1   -1    0    0    0  501 -0.00000000000E+00  0.00000000000E+00  0.48627199944E+02  0.48627200205E+02  0.50400000000E-02 0.  1.
          1   -1    0    0  501    0  0.00000000000E+00 -0.00000000000E+00 -0.49918128364E+02  0.49918128619E+02  0.50400000000E-02 0. -1.
         23    2    1    2    0    0  0.00000000000E+00 -0.17763568394E-14 -0.12909284204E+01  0.98545328823E+02  0.98536872980E+02 0.  0.
    9000005    2    3    3    0    0 -0.35775483389E+02 -0.10197638096E+02 -0.31243105408E+02  0.50785409008E+02  0.14803685286E+02 0.  0.
         22    1    3    3    0    0  0.35775483389E+02  0.10197638096E+02  0.29952176988E+02  0.47759919816E+02  0.00000000000E+00 0.  1.
         22    1    4    4    0    0 -0.33779335422E+01  0.34887204955E+01 -0.33934900451E+01  0.59243042121E+01  0.00000000000E+00 0.  1.
         22    1    4    4    0    0 -0.32397549847E+02 -0.13686358592E+02 -0.27849615363E+02  0.44861104796E+02  0.00000000000E+00 0.  1.
<mgrwt>
<rscale>  0 0.98536873E+02</rscale>
<asrwt>0</asrwt>
<pdfrwt beam="2">  1        1 0.76797121E-02 0.98536873E+02</pdfrwt>
<pdfrwt beam="1">  1       -1 0.74811077E-02 0.98536873E+02</pdfrwt>
<totfact> 0.75339068E+04</totfact>
</mgrwt>
</event>
<event>
 7    1  0.3301067E-009  0.9137796E+02  0.7818608E-02  0.1299549E+00
         -1   -1    0    0    0  501 -0.00000000000E+00  0.00000000000E+00  0.15151445265E+02  0.15151446103E+02  0.50400000000E-02 0.  1.
          1   -1    0    0  501    0  0.00000000000E+00 -0.00000000000E+00 -0.13777450016E+03  0.13777450025E+03  0.50400000000E-02 0. -1.
         23    2    1    2    0    0  0.00000000000E+00  0.00000000000E+00 -0.12262305489E+03  0.15292594636E+03  0.91377959471E+02 0.  0.
    9000005    2    3    3    0    0  0.20447437480E+02  0.31417770595E+02 -0.23519346973E+02  0.46969734020E+02  0.15742370316E+02 0.  0.
         22    1    3    3    0    0 -0.20447437480E+02 -0.31417770595E+02 -0.99103707922E+02  0.10595621234E+03  0.00000000000E+00 0. -1.
         22    1    4    4    0    0  0.19896215010E+02  0.31961991299E+02 -0.25073021575E+02  0.45233667444E+02  0.00000000000E+00 0. -1.
         22    1    4    4    0    0  0.55122247007E+00 -0.54422070415E+00  0.15536746020E+01  0.17360665757E+01  0.00000000000E+00 0. -1.
<mgrwt>
<rscale>  0 0.91377959E+02</rscale>
<asrwt>0</asrwt>
<pdfrwt beam="2">  1        1 0.21196076E-01 0.91377959E+02</pdfrwt>
<pdfrwt beam="1">  1       -1 0.23309917E-02 0.91377959E+02</pdfrwt>
<totfact> 0.10975357E+05</totfact>
</mgrwt>
</event>
<event>
 7    1  0.3301067E-009  0.9273408E+02  0.7818608E-02  0.1296363E+00
         -1   -1    0    0    0  501 -0.00000000000E+00  0.00000000000E+00  0.35213624198E+02  0.35213624559E+02  0.50400000000E-02 0.  1.
          1   -1    0    0  501    0  0.00000000000E+00 -0.00000000000E+00 -0.61053139079E+02  0.61053139287E+02  0.50400000000E-02 0. -1.
         23    2    1    2    0    0 -0.88817841970E-15  0.35527136788E-14 -0.25839514881E+02  0.96266763846E+02  0.92734078375E+02 0.  0.
    9000005    2    3    3    0    0 -0.60006938918E+01  0.18280434067E+02 -0.56688205634E+02  0.59909861915E+02  0.23358723903E+01 0.  0.
         22    1    3    3    0    0  0.60006938918E+01 -0.18280434067E+02  0.30848690753E+02  0.36356901931E+02  0.00000000000E+00 0.  1.
         22    1    4    4    0    0 -0.31229831996E+01  0.12355038068E+02 -0.35273777735E+02  0.37505191446E+02  0.00000000000E+00 0.  1.
         22    1    4    4    0    0 -0.28777106923E+01  0.59253959988E+01 -0.21414427899E+02  0.22404670469E+02  0.00000000000E+00 0.  1.
<mgrwt>
<rscale>  0 0.92734078E+02</rscale>
<asrwt>0</asrwt>
<pdfrwt beam="2">  1        1 0.93927907E-02 0.92734078E+02</pdfrwt>
<pdfrwt beam="1">  1       -1 0.54174807E-02 0.92734078E+02</pdfrwt>
<totfact> 0.92184922E+04</totfact>
</mgrwt>
</event>
<event>
 7    1  0.3301067E-009  0.9193944E+02  0.7818608E-02  0.1298222E+00
          1   -1    0    0  501    0  0.00000000000E+00  0.00000000000E+00  0.38794695783E+03  0.38794695786E+03  0.50400000000E-02 0. -1.
         -1   -1    0    0    0  501 -0.00000000000E+00 -0.00000000000E+00 -0.54471743454E+01  0.54471766771E+01  0.50400000000E-02 0.  1.
         23    2    1    2    0    0  0.00000000000E+00 -0.35527136788E-14  0.38249978348E+03  0.39339413454E+03  0.91939440528E+02 0.  0.
    9000005    2    3    3    0    0  0.39197649569E+02  0.23961685836E+02  0.19324906729E+03  0.19864698643E+03  0.21920506890E+01 0.  0.
         22    1    3    3    0    0 -0.39197649569E+02 -0.23961685836E+02  0.18925071619E+03  0.19474714811E+03  0.00000000000E+00 0.  1.
         22    1    4    4    0    0  0.15140194790E+02  0.10035176183E+02  0.72771790634E+02  0.75004425012E+02  0.00000000000E+00 0.  1.
         22    1    4    4    0    0  0.24057454779E+02  0.13926509653E+02  0.12047727666E+03  0.12364256141E+03  0.00000000000E+00 0.  1.
<mgrwt>
<rscale>  0 0.91939441E+02</rscale>
<asrwt>0</asrwt>
<pdfrwt beam="1">  1        1 0.59684145E-01 0.91939441E+02</pdfrwt>
<pdfrwt beam="2">  1       -1 0.83802704E-03 0.91939441E+02</pdfrwt>
<totfact> 0.13126898E+05</totfact>
</mgrwt>
</event>
<event>
 7    1  0.3301067E-009  0.1247972E+03  0.7818608E-02  0.1235387E+00
         -1   -1    0    0    0  501 -0.00000000000E+00  0.00000000000E+00  0.44883235041E+02  0.44883235324E+02  0.50400000000E-02 0. -1.
          1   -1    0    0  501    0  0.00000000000E+00 -0.00000000000E+00 -0.86749248492E+02  0.86749248638E+02  0.50400000000E-02 0.  1.
         23    2    1    2    0    0  0.00000000000E+00 -0.71054273576E-14 -0.41866013451E+02  0.13163248396E+03  0.12479722654E+03 0.  0.
    9000005    2    3    3    0    0  0.42877742305E+01 -0.61796307445E+02 -0.24926359718E+02  0.67413168408E+02  0.92759497834E+01 0.  0.
         22    1    3    3    0    0 -0.42877742305E+01  0.61796307445E+02 -0.16939653733E+02  0.64219315554E+02  0.00000000000E+00 0. -1.
         22    1    4    4    0    0  0.57469396370E+01 -0.21933139466E+02 -0.74865455403E+01  0.23877568682E+02  0.00000000000E+00 0.  1.
         22    1    4    4    0    0 -0.14591654065E+01 -0.39863167979E+02 -0.17439814178E+02  0.43535599726E+02  0.00000000000E+00 0.  1.
<mgrwt>
<rscale>  0 0.12479723E+03</rscale>
<asrwt>0</asrwt>
<pdfrwt beam="2">  1        1 0.13346038E-01 0.12479723E+03</pdfrwt>
<pdfrwt beam="1">  1       -1 0.69051132E-02 0.12479723E+03</pdfrwt>
<totfact> 0.42360055E+04</totfact>
</mgrwt>
</event>
<event>
 7    1  0.3301067E-009  0.9224465E+02  0.7818608E-02  0.1297505E+00
         -1   -1    0    0    0  501 -0.00000000000E+00  0.00000000000E+00  0.64945197659E+01  0.64945217215E+01  0.50400000000E-02 0.  1.
          1   -1    0    0  501    0  0.00000000000E+00 -0.00000000000E+00 -0.32754826308E+03  0.32754826312E+03  0.50400000000E-02 0. -1.
         23    2    1    2    0    0  0.00000000000E+00  0.00000000000E+00 -0.32105374331E+03  0.33404278484E+03  0.92244653004E+02 0.  0.
    9000005    2    3    3    0    0  0.22435864504E+02  0.39660329095E+02 -0.16700887177E+03  0.17339991333E+03  0.99627792715E+01 0.  0.
         22    1    3    3    0    0 -0.22435864504E+02 -0.39660329095E+02 -0.15404487154E+03  0.16064287151E+03  0.00000000000E+00 0.  1.
         22    1    4    4    0    0  0.21131409259E+02  0.38655297629E+02 -0.16511144975E+03  0.17088756342E+03  0.00000000000E+00 0. -1.
         22    1    4    4    0    0  0.13044552458E+01  0.10050314661E+01 -0.18974220236E+01  0.25123499103E+01  0.00000000000E+00 0. -1.
<mgrwt>
<rscale>  0 0.92244653E+02</rscale>
<asrwt>0</asrwt>
<pdfrwt beam="2">  1        1 0.50392028E-01 0.92244653E+02</pdfrwt>
<pdfrwt beam="1">  1       -1 0.99915729E-03 0.92244653E+02</pdfrwt>
<totfact> 0.12627459E+05</totfact>
</mgrwt>
</event>
<event>
 7    1  0.3301067E-009  0.9102105E+02  0.7818608E-02  0.1300398E+00
          1   -1    0    0  501    0  0.00000000000E+00  0.00000000000E+00  0.41033368254E+01  0.41033399206E+01  0.50400000000E-02 0. -1.
         -1   -1    0    0    0  501 -0.00000000000E+00 -0.00000000000E+00 -0.50476160811E+03  0.50476160814E+03  0.50400000000E-02 0.  1.
         23    2    1    2    0    0  0.00000000000E+00  0.35527136788E-14 -0.50065827129E+03  0.50886494806E+03  0.91021045666E+02 0.  0.
    9000005    2    3    3    0    0 -0.28976716413E+02  0.25561365558E+02 -0.38059444507E+03  0.38273661711E+03  0.11922791257E+02 0.  0.
         22    1    3    3    0    0  0.28976716413E+02 -0.25561365558E+02 -0.12006382622E+03  0.12612833095E+03  0.00000000000E+00 0.  1.
         22    1    4    4    0    0 -0.19687134573E+02  0.23799347943E+02 -0.27977109136E+03  0.28147087911E+03  0.00000000000E+00 0.  1.
         22    1    4    4    0    0 -0.92895818404E+01  0.17620176151E+01 -0.10082335372E+03  0.10126573799E+03  0.00000000000E+00 0.  1.
<mgrwt>
<rscale>  0 0.91021046E+02</rscale>
<asrwt>0</asrwt>
<pdfrwt beam="1">  1        1 0.63128323E-03 0.91021046E+02</pdfrwt>
<pdfrwt beam="2">  1       -1 0.77655583E-01 0.91021046E+02</pdfrwt>
<totfact> 0.46977439E+04</totfact>
</mgrwt>
</event>
<event>
 7    1  0.3301067E-009  0.9012312E+02  0.7818608E-02  0.1302554E+00
          1   -1    0    0  501    0  0.00000000000E+00  0.00000000000E+00  0.60186159546E+02  0.60186159757E+02  0.50400000000E-02 0. -1.
         -1   -1    0    0    0  501 -0.00000000000E+00 -0.00000000000E+00 -0.33737729499E+02  0.33737729876E+02  0.50400000000E-02 0.  1.
         23    2    1    2    0    0  0.88817841970E-15  0.00000000000E+00  0.26448430047E+02  0.93923889633E+02  0.90123124623E+02 0.  0.
    9000005    2    3    3    0    0  0.69846289292E+01 -0.34479854530E+02  0.41765875034E+02  0.55553725044E+02  0.10206989726E+02 0.  0.
         22    1    3    3    0    0 -0.69846289292E+01  0.34479854530E+02 -0.15317444986E+02  0.38370164589E+02  0.00000000000E+00 0.  1.
         22    1    4    4    0    0  0.48289501047E+01 -0.63344532981E+01  0.13037105629E+02  0.15277767536E+02  0.00000000000E+00 0.  1.
         22    1    4    4    0    0  0.21556788245E+01 -0.28145401232E+02  0.28728769404E+02  0.40275957508E+02  0.00000000000E+00 0.  1.
<mgrwt>
<rscale>  0 0.90123125E+02</rscale>
<asrwt>0</asrwt>
<pdfrwt beam="1">  1        1 0.92594090E-02 0.90123125E+02</pdfrwt>
<pdfrwt beam="2">  1       -1 0.51904201E-02 0.90123125E+02</pdfrwt>
<totfact> 0.99570337E+04</totfact>
</mgrwt>
</event>
<event>
 7    1  0.3301067E-009  0.9400902E+02  0.7818608E-02  0.1293424E+00
         -1   -1    0    0    0  501 -0.00000000000E+00  0.00000000000E+00  0.37969583950E+01  0.37969617400E+01  0.50400000000E-02 0.  1.
          1   -1    0    0  501    0  0.00000000000E+00 -0.00000000000E+00 -0.58189281937E+03  0.58189281939E+03  0.50400000000E-02 0. -1.
         23    2    1    2    0    0  0.17763568394E-14  0.88817841970E-15 -0.57809586097E+03  0.58568978113E+03  0.94009016832E+02 0.  0.
    9000005    2    3    3    0    0  0.11804268721E+02  0.55528920925E+01 -0.57026082659E+03  0.57047258249E+03  0.84487668574E+01 0.  0.
         22    1    3    3    0    0 -0.11804268721E+02 -0.55528920925E+01 -0.78350343856E+01  0.15217198640E+02  0.00000000000E+00 0.  1.
         22    1    4    4    0    0  0.14099407619E+01 -0.36524469854E+00 -0.22485826551E+03  0.22486298251E+03  0.00000000000E+00 0. -1.
         22    1    4    4    0    0  0.10394327959E+02  0.59181367911E+01 -0.34540256107E+03  0.34560959997E+03  0.00000000000E+00 0. -1.
<mgrwt>
<rscale>  0 0.94009017E+02</rscale>
<asrwt>0</asrwt>
<pdfrwt beam="2">  1        1 0.89521902E-01 0.94009017E+02</pdfrwt>
<pdfrwt beam="1">  1       -1 0.58414817E-03 0.94009017E+02</pdfrwt>
<totfact> 0.13029355E+05</totfact>
</mgrwt>
</event>
<event>
 7    1  0.3301067E-009  0.1052280E+03  0.7818608E-02  0.1269671E+00
         -1   -1    0    0    0  501 -0.00000000000E+00  0.00000000000E+00  0.27450112625E+02  0.27450113088E+02  0.50400000000E-02 0.  1.
          1   -1    0    0  501    0  0.00000000000E+00 -0.00000000000E+00 -0.10084599323E+03  0.10084599336E+03  0.50400000000E-02 0. -1.
         23    2    1    2    0    0  0.00000000000E+00  0.00000000000E+00 -0.73395880609E+02  0.12829610645E+03  0.10522801737E+03 0.  0.
    9000005    2    3    3    0    0  0.38839409242E+02 -0.30007090885E+01 -0.79796022716E+02  0.88818697917E+02  0.19626240221E+01 0.  0.
         22    1    3    3    0    0 -0.38839409242E+02  0.30007090885E+01  0.64001421071E+01  0.39477408531E+02  0.00000000000E+00 0.  1.
         22    1    4    4    0    0  0.32538093006E+02 -0.28287737292E+01 -0.65347642561E+02  0.73055074057E+02  0.00000000000E+00 0.  1.
         22    1    4    4    0    0  0.63013162364E+01 -0.17193535929E+00 -0.14448380155E+02  0.15763623860E+02  0.00000000000E+00 0.  1.
<mgrwt>
<rscale>  0 0.10522802E+03</rscale>
<asrwt>0</asrwt>
<pdfrwt beam="2">  1        1 0.15514768E-01 0.10522802E+03</pdfrwt>
<pdfrwt beam="1">  1       -1 0.42230944E-02 0.10522802E+03</pdfrwt>
<totfact> 0.70499816E+04</totfact>
</mgrwt>
</event>
<event>
 7    1  0.3301067E-009  0.9090283E+02  0.7818608E-02  0.1300680E+00
          1   -1    0    0  501    0  0.00000000000E+00  0.00000000000E+00  0.12349896723E+03  0.12349896733E+03  0.50400000000E-02 0. -1.
         -1   -1    0    0    0  501 -0.00000000000E+00 -0.00000000000E+00 -0.16727516273E+02  0.16727517033E+02  0.50400000000E-02 0.  1.
         23    2    1    2    0    0  0.00000000000E+00  0.11102230246E-15  0.10677145096E+03  0.14022648437E+03  0.90902828219E+02 0.  0.
    9000005    2    3    3    0    0  0.13528100247E+02  0.77155794077E+00  0.11995590051E+03  0.12132054594E+03  0.12068637042E+02 0.  0.
         22    1    3    3    0    0 -0.13528100247E+02 -0.77155794077E+00 -0.13184449555E+02  0.18905938432E+02  0.00000000000E+00 0.  1.
         22    1    4    4    0    0  0.91581371352E+01 -0.51217866785E+01  0.81322276065E+02  0.81996443575E+02  0.00000000000E+00 0. -1.
         22    1    4    4    0    0  0.43699631116E+01  0.58933446192E+01  0.38633624448E+02  0.39324102360E+02  0.00000000000E+00 0. -1.
<mgrwt>
<rscale>  0 0.90902828E+02</rscale>
<asrwt>0</asrwt>
<pdfrwt beam="1">  1        1 0.18999842E-01 0.90902828E+02</pdfrwt>
<pdfrwt beam="2">  1       -1 0.25734640E-02 0.90902828E+02</pdfrwt>
<totfact> 0.10916770E+05</totfact>
</mgrwt>
</event>
<event>
 7    1  0.3301067E-009  0.8804714E+02  0.7818608E-02  0.1307651E+00
          1   -1    0    0  501    0  0.00000000000E+00  0.00000000000E+00  0.47286739192E+02  0.47286739460E+02  0.50400000000E-02 0. -1.
         -1   -1    0    0    0  501 -0.00000000000E+00 -0.00000000000E+00 -0.40985588225E+02  0.40985588535E+02  0.50400000000E-02 0.  1.
         23    2    1    2    0    0  0.00000000000E+00  0.17763568394E-14  0.63011509671E+01  0.88272327995E+02  0.88047142975E+02 0.  0.
    9000005    2    3    3    0    0 -0.31135291011E+02  0.10933873176E+02  0.32245619272E+02  0.46295294220E+02  0.38102986371E+01 0.  0.
         22    1    3    3    0    0  0.31135291011E+02 -0.10933873176E+02 -0.25944468305E+02  0.41977033775E+02  0.00000000000E+00 0.  1.
         22    1    4    4    0    0 -0.60407474216E+01  0.34790821132E+01  0.80379315103E+01  0.10639689127E+02  0.00000000000E+00 0. -1.
         22    1    4    4    0    0 -0.25094543589E+02  0.74547910629E+01  0.24207687761E+02  0.35655605092E+02  0.00000000000E+00 0. -1.
<mgrwt>
<rscale>  0 0.88047143E+02</rscale>
<asrwt>0</asrwt>
<pdfrwt beam="1">  1        1 0.72748830E-02 0.88047143E+02</pdfrwt>
<pdfrwt beam="2">  1       -1 0.63054751E-02 0.88047143E+02</pdfrwt>
<totfact> 0.10250615E+05</totfact>
</mgrwt>
</event>
<event>
 7    1  0.3301067E-009  0.9236051E+02  0.7818608E-02  0.1297234E+00
          1   -1    0    0  501    0  0.00000000000E+00  0.00000000000E+00  0.50163645547E+03  0.50163645549E+03  0.50400000000E-02 0. -1.
         -1   -1    0    0    0  501 -0.00000000000E+00 -0.00000000000E+00 -0.42513163161E+01  0.42513193036E+01  0.50400000000E-02 0.  1.
         23    2    1    2    0    0  0.00000000000E+00 -0.88817841970E-15  0.49738513915E+03  0.50588777479E+03  0.92360511257E+02 0.  0.
    9000005    2    3    3    0    0 -0.34168082242E+02  0.49107266044E+01  0.41393261809E+03  0.41557777341E+03  0.13156760578E+02 0.  0.
         22    1    3    3    0    0  0.34168082242E+02 -0.49107266044E+01  0.83452521058E+02  0.90310001388E+02  0.00000000000E+00 0.  1.
         22    1    4    4    0    0 -0.16063562754E+02  0.11987135426E+01  0.12170920906E+03  0.12277054424E+03  0.00000000000E+00 0. -1.
         22    1    4    4    0    0 -0.18104519488E+02  0.37120130618E+01  0.29222340903E+03  0.29280722917E+03  0.00000000000E+00 0. -1.
<mgrwt>
<rscale>  0 0.92360511E+02</rscale>
<asrwt>0</asrwt>
<pdfrwt beam="1">  1        1 0.77174803E-01 0.92360511E+02</pdfrwt>
<pdfrwt beam="2">  1       -1 0.65404921E-03 0.92360511E+02</pdfrwt>
<totfact> 0.13463265E+05</totfact>
</mgrwt>
</event>
<event>
 7    1  0.3301067E-009  0.7437793E+02  0.7818608E-02  0.1345808E+00
          1   -1    0    0  501    0  0.00000000000E+00  0.00000000000E+00  0.35227374762E+01  0.35227410816E+01  0.50400000000E-02 0. -1.
         -1   -1    0    0    0  501 -0.00000000000E+00 -0.00000000000E+00 -0.39259763260E+03  0.39259763264E+03  0.50400000000E-02 0.  1.
         23    2    1    2    0    0  0.00000000000E+00  0.00000000000E+00 -0.38907489513E+03  0.39612037372E+03  0.74377929897E+02 0.  0.
    9000005    2    3    3    0    0 -0.26359452928E+02 -0.25222051179E+02 -0.19483212100E+03  0.19848123811E+03  0.10211458400E+02 0.  0.
         22    1    3    3    0    0  0.26359452928E+02  0.25222051179E+02 -0.19424277413E+03  0.19763913561E+03  0.00000000000E+00 0.  1.
         22    1    4    4    0    0 -0.31653425785E+01  0.41061350926E+00 -0.21494129121E+02  0.21729831655E+02  0.00000000000E+00 0. -1.
         22    1    4    4    0    0 -0.23194110349E+02 -0.25632664689E+02 -0.17333799188E+03  0.17675140645E+03  0.00000000000E+00 0. -1.
<mgrwt>
<rscale>  0 0.74377930E+02</rscale>
<asrwt>0</asrwt>
<pdfrwt beam="1">  1        1 0.54196020E-03 0.74377930E+02</pdfrwt>
<pdfrwt beam="2">  1       -1 0.60399601E-01 0.74377930E+02</pdfrwt>
<totfact> 0.91314460E+04</totfact>
</mgrwt>
</event>
<event>
 7    1  0.3301067E-009  0.1064386E+03  0.7818608E-02  0.1267311E+00
          1   -1    0    0  501    0  0.00000000000E+00  0.00000000000E+00  0.16802389185E+04  0.16802389185E+04  0.50400000000E-02 0. -1.
         -1   -1    0    0    0  501 -0.00000000000E+00 -0.00000000000E+00 -0.16856452182E+01  0.16856527529E+01  0.50400000000E-02 0.  1.
         23    2    1    2    0    0  0.17763568394E-14  0.00000000000E+00  0.16785532733E+04  0.16819245712E+04  0.10643858400E+03 0.  0.
    9000005    2    3    3    0    0 -0.98788916508E+01 -0.31844187276E+01  0.16637972709E+04  0.16638837112E+04  0.13413163896E+02 0.  0.
         22    1    3    3    0    0  0.98788916508E+01  0.31844187276E+01  0.14756002400E+02  0.18040860005E+02  0.00000000000E+00 0.  1.
         22    1    4    4    0    0 -0.10275185258E+02  0.28601601314E+01  0.11880886619E+04  0.11881365362E+04  0.00000000000E+00 0.  1.
         22    1    4    4    0    0  0.39629360674E+00 -0.60445788591E+01  0.47570860891E+03  0.47574717505E+03  0.00000000000E+00 0.  1.
<mgrwt>
<rscale>  0 0.10643858E+03</rscale>
<asrwt>0</asrwt>
<pdfrwt beam="1">  1        1 0.25849762E+00 0.10643858E+03</pdfrwt>
<pdfrwt beam="2">  1       -1 0.25933129E-03 0.10643858E+03</pdfrwt>
<totfact> 0.65777068E+04</totfact>
</mgrwt>
</event>
<event>
 7    1  0.3301067E-009  0.9192077E+02  0.7818608E-02  0.1298266E+00
          1   -1    0    0  501    0  0.00000000000E+00  0.00000000000E+00  0.47072647593E+02  0.47072647863E+02  0.50400000000E-02 0. -1.
         -1   -1    0    0    0  501 -0.00000000000E+00 -0.00000000000E+00 -0.44874404546E+02  0.44874404829E+02  0.50400000000E-02 0.  1.
         23    2    1    2    0    0 -0.35527136788E-14  0.00000000000E+00  0.21982430472E+01  0.91947052692E+02  0.91920771462E+02 0.  0.
    9000005    2    3    3    0    0  0.26833582023E+02 -0.31164796094E+02 -0.16831257768E+02  0.46632512629E+02  0.14142643185E+02 0.  0.
         22    1    3    3    0    0 -0.26833582023E+02  0.31164796094E+02  0.19029500815E+02  0.45314540062E+02  0.00000000000E+00 0. -1.
         22    1    4    4    0    0 -0.69818060547E+00 -0.58315639753E+01 -0.38874394018E+01  0.70432080516E+01  0.00000000000E+00 0. -1.
         22    1    4    4    0    0  0.27531762629E+02 -0.25333232119E+02 -0.12943818366E+02  0.39589304578E+02  0.00000000000E+00 0. -1.
<mgrwt>
<rscale>  0 0.91920771E+02</rscale>
<asrwt>0</asrwt>
<pdfrwt beam="1">  1        1 0.72419458E-02 0.91920771E+02</pdfrwt>
<pdfrwt beam="2">  1       -1 0.69037546E-02 0.91920771E+02</pdfrwt>
<totfact> 0.90822762E+04</totfact>
</mgrwt>
</event>
<event>
 7    1  0.3301067E-009  0.9390757E+02  0.7818608E-02  0.1293656E+00
         -1   -1    0    0    0  501 -0.00000000000E+00  0.00000000000E+00  0.11464944592E+01  0.11465055371E+01  0.50400000000E-02 0.  1.
          1   -1    0    0  501    0  0.00000000000E+00 -0.00000000000E+00 -0.19229461931E+04  0.19229461931E+04  0.50400000000E-02 0. -1.
         23    2    1    2    0    0  0.00000000000E+00  0.00000000000E+00 -0.19217996986E+04  0.19240926986E+04  0.93907567734E+02 0.  0.
    9000005    2    3    3    0    0 -0.12794531097E+02  0.10197638255E+02 -0.18622614020E+04  0.18623472484E+04  0.72147486097E+01 0.  0.
         22    1    3    3    0    0  0.12794531097E+02 -0.10197638255E+02 -0.59538296618E+02  0.61745450165E+02  0.00000000000E+00 0.  1.
         22    1    4    4    0    0 -0.97891169409E+01  0.55779676658E+01 -0.90744917069E+03  0.90751911160E+03  0.00000000000E+00 0.  1.
         22    1    4    4    0    0 -0.30054141565E+01  0.46196705895E+01 -0.95481223129E+03  0.95482813683E+03  0.00000000000E+00 0.  1.
<mgrwt>
<rscale>  0 0.93907568E+02</rscale>
<asrwt>0</asrwt>
<pdfrwt beam="2">  1        1 0.29583530E+00 0.93907568E+02</pdfrwt>
<pdfrwt beam="1">  1       -1 0.17638615E-03 0.93907568E+02</pdfrwt>
<totfact> 0.78037847E+04</totfact>
</mgrwt>
</event>
<event>
 7    1  0.3301067E-009  0.9275209E+02  0.7818608E-02  0.1296321E+00
         -1   -1    0    0    0  501 -0.00000000000E+00  0.00000000000E+00  0.93363469047E+01  0.93363482650E+01  0.50400000000E-02 0.  1.
          1   -1    0    0  501    0  0.00000000000E+00 -0.00000000000E+00 -0.23036175333E+03  0.23036175338E+03  0.50400000000E-02 0. -1.
         23    2    1    2    0    0  0.17763568394E-14 -0.71054273576E-14 -0.22102540642E+03  0.23969810165E+03  0.92752087033E+02 0.  0.
    9000005    2    3    3    0    0  0.10954096663E+02 -0.39829982388E+02 -0.16240073670E+03  0.16798149527E+03  0.11720227826E+02 0.  0.
         22    1    3    3    0    0 -0.10954096663E+02  0.39829982388E+02 -0.58624669718E+02  0.71716606377E+02  0.00000000000E+00 0.  1.
         22    1    4    4    0    0  0.76668151578E+01 -0.18937479951E+02 -0.10084588855E+03  0.10289461327E+03  0.00000000000E+00 0. -1.
         22    1    4    4    0    0  0.32872815054E+01 -0.20892502437E+02 -0.61554848148E+02  0.65086881999E+02  0.00000000000E+00 0. -1.
<mgrwt>
<rscale>  0 0.92752087E+02</rscale>
<asrwt>0</asrwt>
<pdfrwt beam="2">  1        1 0.35440266E-01 0.92752087E+02</pdfrwt>
<pdfrwt beam="1">  1       -1 0.14363613E-02 0.92752087E+02</pdfrwt>
<totfact> 0.11625191E+05</totfact>
</mgrwt>
</event>
<event>
 7    1  0.3301067E-009  0.9027337E+02  0.7818608E-02  0.1302191E+00
          1   -1    0    0  501    0  0.00000000000E+00  0.00000000000E+00  0.34805759283E+02  0.34805759647E+02  0.50400000000E-02 0. -1.
         -1   -1    0    0    0  501 -0.00000000000E+00 -0.00000000000E+00 -0.58533998789E+02  0.58533999006E+02  0.50400000000E-02 0.  1.
         23    2    1    2    0    0  0.00000000000E+00  0.00000000000E+00 -0.23728239506E+02  0.93339758653E+02  0.90273369248E+02 0.  0.
    9000005    2    3    3    0    0  0.17030208368E+02 -0.12183753050E+02 -0.52845617361E+02  0.57474824127E+02  0.84984880281E+01 0.  0.
         22    1    3    3    0    0 -0.17030208368E+02  0.12183753050E+02  0.29117377855E+02  0.35864934526E+02  0.00000000000E+00 0. -1.
         22    1    4    4    0    0  0.90162321122E+01 -0.69111628797E+01 -0.39070520026E+02  0.40688599742E+02  0.00000000000E+00 0. -1.
         22    1    4    4    0    0  0.80139762556E+01 -0.52725901702E+01 -0.13775097335E+02  0.16786224385E+02  0.00000000000E+00 0. -1.
<mgrwt>
<rscale>  0 0.90273369E+02</rscale>
<asrwt>0</asrwt>
<pdfrwt beam="1">  1        1 0.53547323E-02 0.90273369E+02</pdfrwt>
<pdfrwt beam="2">  1       -1 0.90052306E-02 0.90273369E+02</pdfrwt>
<totfact> 0.91294311E+04</totfact>
</mgrwt>
</event>
<event>
 7    1  0.3301067E-009  0.8942365E+02  0.7818608E-02  0.1304253E+00
         -1   -1    0    0    0  501 -0.00000000000E+00  0.00000000000E+00  0.37630030258E+01  0.37630064010E+01  0.50400000000E-02 0.  1.
          1   -1    0    0  501    0  0.00000000000E+00 -0.00000000000E+00 -0.53126350447E+03  0.53126350449E+03  0.50400000000E-02 0. -1.
         23    2    1    2    0    0 -0.44408920985E-15  0.00000000000E+00 -0.52750050144E+03  0.53502651089E+03  0.89423645287E+02 0.  0.
    9000005    2    3    3    0    0 -0.22344086789E+01  0.21295772883E+02 -0.49829536314E+03  0.49881266508E+03  0.75699008609E+01 0.  0.
         22    1    3    3    0    0  0.22344086789E+01 -0.21295772883E+02 -0.29205138302E+02  0.36213845806E+02  0.00000000000E+00 0.  1.
         22    1    4    4    0    0  0.20721553932E+01  0.76388095609E+01 -0.22912117667E+03  0.22925784357E+03  0.00000000000E+00 0. -1.
         22    1    4    4    0    0 -0.43065640721E+01  0.13656963322E+02 -0.26917418647E+03  0.26955482152E+03  0.00000000000E+00 0. -1.
<mgrwt>
<rscale>  0 0.89423645E+02</rscale>
<asrwt>0</asrwt>
<pdfrwt beam="2">  1        1 0.81732788E-01 0.89423645E+02</pdfrwt>
<pdfrwt beam="1">  1       -1 0.57892422E-03 0.89423645E+02</pdfrwt>
<totfact> 0.14758366E+05</totfact>
</mgrwt>
</event>
<event>
 7    1  0.3301067E-009  0.9301509E+02  0.7818608E-02  0.1295710E+00
         -1   -1    0    0    0  501 -0.00000000000E+00  0.00000000000E+00  0.48249804814E+02  0.48249805077E+02  0.50400000000E-02 0.  1.
          1   -1    0    0  501    0  0.00000000000E+00 -0.00000000000E+00 -0.44828191385E+02  0.44828191669E+02  0.50400000000E-02 0. -1.
         23    2    1    2    0    0  0.00000000000E+00  0.35527136788E-14  0.34216134288E+01  0.93077996746E+02  0.93015085012E+02 0.  0.
    9000005    2    3    3    0    0  0.21022000922E+02 -0.24532831403E+02  0.33819048900E+02  0.48718235446E+02  0.13636497241E+02 0.  0.
         22    1    3    3    0    0 -0.21022000922E+02  0.24532831403E+02 -0.30397435471E+02  0.44359761301E+02  0.00000000000E+00 0. -1.
         22    1    4    4    0    0  0.78901996807E+01 -0.18566875780E+02  0.23567347296E+02  0.31022636667E+02  0.00000000000E+00 0. -1.
         22    1    4    4    0    0  0.13131801241E+02 -0.59659556231E+01  0.10251701604E+02  0.17695598778E+02  0.00000000000E+00 0. -1.
<mgrwt>
<rscale>  0 0.93015085E+02</rscale>
<asrwt>0</asrwt>
<pdfrwt beam="2">  1        1 0.68966449E-02 0.93015085E+02</pdfrwt>
<pdfrwt beam="1">  1       -1 0.74230469E-02 0.93015085E+02</pdfrwt>
<totfact> 0.87196231E+04</totfact>
</mgrwt>
</event>
<event>
 7    1  0.3301067E-009  0.9130502E+02  0.7818608E-02  0.1299722E+00
         -1   -1    0    0    0  501 -0.00000000000E+00  0.00000000000E+00  0.14146836713E+03  0.14146836722E+03  0.50400000000E-02 0.  1.
          1   -1    0    0  501    0  0.00000000000E+00 -0.00000000000E+00 -0.14732280084E+02  0.14732280947E+02  0.50400000000E-02 0. -1.
         23    2    1    2    0    0  0.00000000000E+00  0.88817841970E-15  0.12673608705E+03  0.15620064817E+03  0.91305020279E+02 0.  0.
    9000005    2    3    3    0    0  0.15727900780E+02 -0.46696696638E+01  0.13570702837E+03  0.13750170526E+03  0.14871070011E+02 0.  0.
         22    1    3    3    0    0 -0.15727900780E+02  0.46696696638E+01 -0.89709413205E+01  0.18698942908E+02  0.00000000000E+00 0. -1.
         22    1    4    4    0    0  0.11733963382E+02  0.37489222422E+01  0.91329208762E+02  0.92156197229E+02  0.00000000000E+00 0. -1.
         22    1    4    4    0    0  0.39939373977E+01 -0.84185919060E+01  0.44377819606E+02  0.45345508031E+02  0.00000000000E+00 0. -1.
<mgrwt>
<rscale>  0 0.91305020E+02</rscale>
<asrwt>0</asrwt>
<pdfrwt beam="2">  1        1 0.22665046E-02 0.91305020E+02</pdfrwt>
<pdfrwt beam="1">  1       -1 0.21764365E-01 0.91305020E+02</pdfrwt>
<totfact> 0.75526060E+04</totfact>
</mgrwt>
</event>
<event>
 6    1  0.3301067E-009  0.4874348E+03  0.7818608E-02  0.1017112E+00
         -1   -1    0    0    0  501 -0.00000000000E+00  0.00000000000E+00  0.37683066724E+02  0.37683067061E+02  0.50400000000E-02 0.  1.
          1   -1    0    0  501    0  0.00000000000E+00 -0.00000000000E+00 -0.15762563615E+04  0.15762563615E+04  0.50400000000E-02 0. -1.
    9000005    2    1    2    0    0 -0.21329963252E+03  0.89558142485E+02 -0.10227949384E+04  0.10486565728E+04  0.73299077378E+01 0.  0.
         22    1    1    2    0    0  0.21329963252E+03 -0.89558142485E+02 -0.51577835641E+03  0.56528285580E+03  0.00000000000E+00 0.  1.
         22    1    3    3    0    0 -0.13700237024E+03  0.60625574965E+02 -0.65294606611E+03  0.66991318470E+03  0.00000000000E+00 0.  1.
         22    1    3    3    0    0 -0.76297262287E+02  0.28932567519E+02 -0.36984887228E+03  0.37874338809E+03  0.00000000000E+00 0.  1.
<mgrwt>
<rscale>  0 0.48743481E+03</rscale>
<asrwt>0</asrwt>
<pdfrwt beam="2">  1        1 0.24250093E+00 0.48743481E+03</pdfrwt>
<pdfrwt beam="1">  1       -1 0.57973961E-02 0.48743481E+03</pdfrwt>
<totfact> 0.88442794E+02</totfact>
</mgrwt>
</event>
<event>
 7    1  0.3301067E-009  0.9053602E+02  0.7818608E-02  0.1301559E+00
          1   -1    0    0  501    0  0.00000000000E+00  0.00000000000E+00  0.46567859864E+03  0.46567859867E+03  0.50400000000E-02 0. -1.
         -1   -1    0    0    0  501 -0.00000000000E+00 -0.00000000000E+00 -0.44004427603E+01  0.44004456465E+01  0.50400000000E-02 0.  1.
         23    2    1    2    0    0  0.00000000000E+00  0.00000000000E+00  0.46127815588E+03  0.47007904431E+03  0.90536019413E+02 0.  0.
    9000005    2    3    3    0    0 -0.46599060370E+01  0.13916084765E+02  0.45248500086E+03  0.45297080903E+03  0.14983513812E+02 0.  0.
         22    1    3    3    0    0  0.46599060370E+01 -0.13916084765E+02  0.87931550175E+01  0.17108235286E+02  0.00000000000E+00 0.  1.
         22    1    4    4    0    0 -0.50817705740E+01  0.56090997672E+01  0.72350103516E+02  0.72744923336E+02  0.00000000000E+00 0. -1.
         22    1    4    4    0    0  0.42186453706E+00  0.83069849976E+01  0.38013489735E+03  0.38022588569E+03  0.00000000000E+00 0. -1.
<mgrwt>
<rscale>  0 0.90536019E+02</rscale>
<asrwt>0</asrwt>
<pdfrwt beam="1">  1        1 0.71642865E-01 0.90536019E+02</pdfrwt>
<pdfrwt beam="2">  1       -1 0.67699139E-03 0.90536019E+02</pdfrwt>
<totfact> 0.14061738E+05</totfact>
</mgrwt>
</event>
<event>
 7    1  0.3301067E-009  0.9018444E+02  0.7818608E-02  0.1302406E+00
          1   -1    0    0  501    0  0.00000000000E+00  0.00000000000E+00  0.97505077459E+01  0.97505090484E+01  0.50400000000E-02 0. -1.
         -1   -1    0    0    0  501 -0.00000000000E+00 -0.00000000000E+00 -0.20853357938E+03  0.20853357944E+03  0.50400000000E-02 0.  1.
         23    2    1    2    0    0  0.00000000000E+00  0.00000000000E+00 -0.19878307163E+03  0.21828408849E+03  0.90184442779E+02 0.  0.
    9000005    2    3    3    0    0 -0.24365083537E+02  0.25972956476E+02 -0.16402321092E+03  0.16851964656E+03  0.15066711390E+02 0.  0.
         22    1    3    3    0    0  0.24365083537E+02 -0.25972956476E+02 -0.34759860719E+02  0.49764441934E+02  0.00000000000E+00 0.  1.
         22    1    4    4    0    0 -0.20498679126E+02  0.13457420636E+02 -0.12419497172E+03  0.12659261044E+03  0.00000000000E+00 0. -1.
         22    1    4    4    0    0 -0.38664044110E+01  0.12515535840E+02 -0.39828239194E+02  0.41927036119E+02  0.00000000000E+00 0. -1.
<mgrwt>
<rscale>  0 0.90184443E+02</rscale>
<asrwt>0</asrwt>
<pdfrwt beam="1">  1        1 0.15000784E-02 0.90184443E+02</pdfrwt>
<pdfrwt beam="2">  1       -1 0.32082086E-01 0.90184443E+02</pdfrwt>
<totfact> 0.70570012E+04</totfact>
</mgrwt>
</event>
<event>
 7    1  0.3301067E-009  0.9054058E+02  0.7818608E-02  0.1301548E+00
         -1   -1    0    0    0  501 -0.00000000000E+00  0.00000000000E+00  0.23281431412E+02  0.23281431958E+02  0.50400000000E-02 0.  1.
          1   -1    0    0  501    0  0.00000000000E+00 -0.00000000000E+00 -0.88027197732E+02  0.88027197877E+02  0.50400000000E-02 0. -1.
         23    2    1    2    0    0  0.00000000000E+00  0.00000000000E+00 -0.64745766320E+02  0.11130862983E+03  0.90540581063E+02 0.  0.
    9000005    2    3    3    0    0 -0.18298453532E+02  0.40588148846E+02 -0.35441980096E+02  0.58008131568E+02  0.11250695376E+02 0.  0.
         22    1    3    3    0    0  0.18298453532E+02 -0.40588148846E+02 -0.29303786224E+02  0.53300498267E+02  0.00000000000E+00 0.  1.
         22    1    4    4    0    0 -0.24171081149E+01  0.18547904111E+02 -0.15803635638E+02  0.24487181502E+02  0.00000000000E+00 0. -1.
         22    1    4    4    0    0 -0.15881345417E+02  0.22040244735E+02 -0.19638344458E+02  0.33520950066E+02  0.00000000000E+00 0. -1.
<mgrwt>
<rscale>  0 0.90540581E+02</rscale>
<asrwt>0</asrwt>
<pdfrwt beam="2">  1        1 0.13542646E-01 0.90540581E+02</pdfrwt>
<pdfrwt beam="1">  1       -1 0.35817588E-02 0.90540581E+02</pdfrwt>
<totfact> 0.10427006E+05</totfact>
</mgrwt>
</event>
<event>
 7    1  0.3301067E-009  0.9167786E+02  0.7818608E-02  0.1298839E+00
          1   -1    0    0  501    0  0.00000000000E+00  0.00000000000E+00  0.81792133281E+02  0.81792133436E+02  0.50400000000E-02 0. -1.
         -1   -1    0    0    0  501 -0.00000000000E+00 -0.00000000000E+00 -0.25689603119E+02  0.25689603614E+02  0.50400000000E-02 0.  1.
         23    2    1    2    0    0  0.00000000000E+00 -0.17763568394E-14  0.56102530162E+02  0.10748173705E+03  0.91677859425E+02 0.  0.
    9000005    2    3    3    0    0 -0.41402952375E+02  0.12968012584E+02  0.16293456165E+02  0.48599344196E+02  0.14630301663E+02 0.  0.
         22    1    3    3    0    0  0.41402952375E+02 -0.12968012584E+02  0.39809073997E+02  0.58882392854E+02  0.00000000000E+00 0. -1.
         22    1    4    4    0    0 -0.17795563265E+02  0.41843913740E+00  0.10685964652E+01  0.17832528190E+02  0.00000000000E+00 0.  1.
         22    1    4    4    0    0 -0.23607389110E+02  0.12549573447E+02  0.15224859700E+02  0.30766816006E+02  0.00000000000E+00 0.  1.
<mgrwt>
<rscale>  0 0.91677859E+02</rscale>
<asrwt>0</asrwt>
<pdfrwt beam="1">  1        1 0.12583405E-01 0.91677859E+02</pdfrwt>
<pdfrwt beam="2">  1       -1 0.39522467E-02 0.91677859E+02</pdfrwt>
<totfact> 0.99587660E+04</totfact>
</mgrwt>
</event>
<event>
 7    1  0.3301067E-009  0.9424152E+02  0.7818608E-02  0.1292894E+00
          1   -1    0    0  501    0  0.00000000000E+00  0.00000000000E+00  0.64545799925E+02  0.64545800122E+02  0.50400000000E-02 0. -1.
         -1   -1    0    0    0  501 -0.00000000000E+00 -0.00000000000E+00 -0.34399850045E+02  0.34399850415E+02  0.50400000000E-02 0.  1.
         23    2    1    2    0    0 -0.35527136788E-14  0.00000000000E+00  0.30145949880E+02  0.98945650537E+02  0.94241516679E+02 0.  0.
    9000005    2    3    3    0    0 -0.18538082601E+02  0.19888752720E+01 -0.29327961771E+02  0.36617789203E+02  0.11537634643E+02 0.  0.
         22    1    3    3    0    0  0.18538082601E+02 -0.19888752720E+01  0.59473911651E+02  0.62327861333E+02  0.00000000000E+00 0. -1.
         22    1    4    4    0    0 -0.67253130821E+01 -0.20239387608E+00 -0.20862391488E+02  0.21920542373E+02  0.00000000000E+00 0. -1.
         22    1    4    4    0    0 -0.11812769519E+02  0.21912691481E+01 -0.84655702834E+01  0.14697246831E+02  0.00000000000E+00 0. -1.
<mgrwt>
<rscale>  0 0.94241517E+02</rscale>
<asrwt>0</asrwt>
<pdfrwt beam="1">  1        1 0.99301231E-02 0.94241517E+02</pdfrwt>
<pdfrwt beam="2">  1       -1 0.52922847E-02 0.94241517E+02</pdfrwt>
<totfact> 0.88903639E+04</totfact>
</mgrwt>
</event>
<event>
 7    1  0.3301067E-009  0.7123911E+02  0.7818608E-02  0.1355929E+00
         -1   -1    0    0    0  501 -0.00000000000E+00  0.00000000000E+00  0.14390979457E+03  0.14390979466E+03  0.50400000000E-02 0.  1.
          1   -1    0    0  501    0  0.00000000000E+00 -0.00000000000E+00 -0.88163037092E+01  0.88163051498E+01  0.50400000000E-02 0. -1.
         23    2    1    2    0    0  0.11102230246E-15  0.00000000000E+00  0.13509349087E+03  0.15272609981E+03  0.71239106464E+02 0.  0.
    9000005    2    3    3    0    0 -0.92995933732E+00 -0.29189266488E+02  0.24198441679E+02  0.38050077748E+02  0.30603487462E+01 0.  0.
         22    1    3    3    0    0  0.92995933732E+00  0.29189266488E+02  0.11089504919E+03  0.11467602206E+03  0.00000000000E+00 0.  1.
         22    1    4    4    0    0 -0.14916822347E+01 -0.23538854002E+02  0.20694083168E+02  0.31377505347E+02  0.00000000000E+00 0. -1.
         22    1    4    4    0    0  0.56172289743E+00 -0.56504124860E+01  0.35043585111E+01  0.66725724012E+01  0.00000000000E+00 0. -1.
<mgrwt>
<rscale>  0 0.71239106E+02</rscale>
<asrwt>0</asrwt>
<pdfrwt beam="2">  1        1 0.13563548E-02 0.71239106E+02</pdfrwt>
<pdfrwt beam="1">  1       -1 0.22139965E-01 0.71239106E+02</pdfrwt>
<totfact> 0.14252583E+05</totfact>
</mgrwt>
</event>
<event>
 6    1  0.3301067E-009  0.1304507E+03  0.7818608E-02  0.1226789E+00
          1   -1    0    0  501    0  0.00000000000E+00  0.00000000000E+00  0.32339136311E+03  0.32339136314E+03  0.50400000000E-02 0. -1.
         -1   -1    0    0    0  501 -0.00000000000E+00 -0.00000000000E+00 -0.13155409866E+02  0.13155410832E+02  0.50400000000E-02 0.  1.
    9000005    2    1    2    0    0 -0.44609255937E+02 -0.11730160555E+02  0.27310234325E+03  0.27733117322E+03  0.14145931235E+02 0.  0.
         22    1    1    2    0    0  0.44609255937E+02  0.11730160555E+02  0.37133609992E+02  0.59215600756E+02  0.00000000000E+00 0.  1.
         22    1    3    3    0    0 -0.36371348133E+02 -0.42177415161E+01  0.19130005613E+03  0.19477262586E+03  0.00000000000E+00 0.  1.
         22    1    3    3    0    0 -0.82379078037E+01 -0.75124190388E+01  0.81802287114E+02  0.82558547359E+02  0.00000000000E+00 0.  1.
<mgrwt>
<rscale>  0 0.13045070E+03</rscale>
<asrwt>0</asrwt>
<pdfrwt beam="1">  1        1 0.49752516E-01 0.13045070E+03</pdfrwt>
<pdfrwt beam="2">  1       -1 0.20239093E-02 0.13045070E+03</pdfrwt>
<totfact> 0.49175582E+04</totfact>
</mgrwt>
</event>
<event>
 7    1  0.3301067E-009  0.9289896E+02  0.7818608E-02  0.1295980E+00
         -1   -1    0    0    0  501 -0.00000000000E+00  0.00000000000E+00  0.20603869352E+02  0.20603869969E+02  0.50400000000E-02 0.  1.
          1   -1    0    0  501    0  0.00000000000E+00 -0.00000000000E+00 -0.10471595968E+03  0.10471595980E+03  0.50400000000E-02 0. -1.
         23    2    1    2    0    0  0.00000000000E+00  0.00000000000E+00 -0.84112090331E+02  0.12531982977E+03  0.92898955832E+02 0.  0.
    9000005    2    3    3    0    0 -0.18842535390E+02 -0.19245327165E+02  0.71719400572E+01  0.30145264046E+02  0.11483747759E+02 0.  0.
         22    1    3    3    0    0  0.18842535390E+02  0.19245327165E+02 -0.91284030388E+02  0.95174565728E+02  0.00000000000E+00 0. -1.
         22    1    4    4    0    0 -0.98737235716E+01 -0.11313663384E+02  0.97420006694E+01  0.17899608191E+02  0.00000000000E+00 0. -1.
         22    1    4    4    0    0 -0.89688118186E+01 -0.79316637804E+01 -0.25700606122E+01  0.12245655855E+02  0.00000000000E+00 0. -1.
<mgrwt>
<rscale>  0 0.92898956E+02</rscale>
<asrwt>0</asrwt>
<pdfrwt beam="2">  1        1 0.16110147E-01 0.92898956E+02</pdfrwt>
<pdfrwt beam="1">  1       -1 0.31698262E-02 0.92898956E+02</pdfrwt>
<totfact> 0.10002104E+05</totfact>
</mgrwt>
</event>
<event>
 7    1  0.3301067E-009  0.9094482E+02  0.7818608E-02  0.1300580E+00
         -1   -1    0    0    0  501 -0.00000000000E+00  0.00000000000E+00  0.27308705845E+02  0.27308706310E+02  0.50400000000E-02 0.  1.
          1   -1    0    0  501    0  0.00000000000E+00 -0.00000000000E+00 -0.75717241660E+02  0.75717241827E+02  0.50400000000E-02 0. -1.
         23    2    1    2    0    0  0.00000000000E+00  0.00000000000E+00 -0.48408535815E+02  0.10302594814E+03  0.90944816509E+02 0.  0.
    9000005    2    3    3    0    0 -0.14111576114E+02  0.31218437043E+02  0.76737800262E+01  0.37307202395E+02  0.12617965715E+02 0.  0.
         22    1    3    3    0    0  0.14111576114E+02 -0.31218437043E+02 -0.56082315841E+02  0.65718745742E+02  0.00000000000E+00 0. -1.
         22    1    4    4    0    0 -0.85469178771E+01  0.80107549638E+01 -0.13520778773E+01  0.11791951275E+02  0.00000000000E+00 0. -1.
         22    1    4    4    0    0 -0.55646582367E+01  0.23207682079E+02  0.90258579036E+01  0.25515251119E+02  0.00000000000E+00 0. -1.
<mgrwt>
<rscale>  0 0.90944817E+02</rscale>
<asrwt>0</asrwt>
<pdfrwt beam="2">  1        1 0.11648806E-01 0.90944817E+02</pdfrwt>
<pdfrwt beam="1">  1       -1 0.42013394E-02 0.90944817E+02</pdfrwt>
<totfact> 0.10058002E+05</totfact>
</mgrwt>
</event>
<event>
 7    1  0.3301067E-009  0.9085579E+02  0.7818608E-02  0.1300792E+00
         -1   -1    0    0    0  501 -0.00000000000E+00  0.00000000000E+00  0.31379160804E+01  0.31379201279E+01  0.50400000000E-02 0.  1.
          1   -1    0    0  501    0  0.00000000000E+00 -0.00000000000E+00 -0.65766326895E+03  0.65766326897E+03  0.50400000000E-02 0. -1.
         23    2    1    2    0    0  0.00000000000E+00 -0.35527136788E-14 -0.65452535287E+03  0.66080118910E+03  0.90855786626E+02 0.  0.
    9000005    2    3    3    0    0  0.46363451052E+01 -0.31182727984E+02 -0.56436033419E+03  0.56528370999E+03  0.70162496525E+01 0.  0.
         22    1    3    3    0    0 -0.46363451052E+01  0.31182727984E+02 -0.90165018686E+02  0.95517479108E+02  0.00000000000E+00 0.  1.
         22    1    4    4    0    0  0.55670672248E+01 -0.13771658544E+02 -0.25393620860E+03  0.25437029869E+03  0.00000000000E+00 0.  1.
         22    1    4    4    0    0 -0.93072211961E+00 -0.17411069440E+02 -0.31042412559E+03  0.31091341131E+03  0.00000000000E+00 0.  1.
<mgrwt>
<rscale>  0 0.90855787E+02</rscale>
<asrwt>0</asrwt>
<pdfrwt beam="2">  1        1 0.10117885E+00 0.90855787E+02</pdfrwt>
<pdfrwt beam="1">  1       -1 0.48275716E-03 0.90855787E+02</pdfrwt>
<totfact> 0.14345346E+05</totfact>
</mgrwt>
</event>
<event>
 7    1  0.3301067E-009  0.9301802E+02  0.7818608E-02  0.1295703E+00
          1   -1    0    0  501    0  0.00000000000E+00  0.00000000000E+00  0.22076534083E+01  0.22076591614E+01  0.50400000000E-02 0. -1.
         -1   -1    0    0    0  501 -0.00000000000E+00 -0.00000000000E+00 -0.97981189638E+03  0.97981189640E+03  0.50400000000E-02 0.  1.
         23    2    1    2    0    0 -0.88817841970E-15 -0.17763568394E-14 -0.97760424297E+03  0.98201955556E+03  0.93018017689E+02 0.  0.
    9000005    2    3    3    0    0  0.41917534087E+01 -0.13137084493E+02 -0.95713931949E+03  0.95734230128E+03  0.14087267732E+02 0.  0.
         22    1    3    3    0    0 -0.41917534087E+01  0.13137084493E+02 -0.20464923480E+02  0.24677254277E+02  0.00000000000E+00 0. -1.
         22    1    4    4    0    0  0.91374058404E+01 -0.59310027449E+01 -0.57334597271E+03  0.57344945148E+03  0.00000000000E+00 0. -1.
         22    1    4    4    0    0 -0.49456524317E+01 -0.72060817480E+01 -0.38379334678E+03  0.38389284980E+03  0.00000000000E+00 0. -1.
<mgrwt>
<rscale>  0 0.93018018E+02</rscale>
<asrwt>0</asrwt>
<pdfrwt beam="1">  1        1 0.33964021E-03 0.93018018E+02</pdfrwt>
<pdfrwt beam="2">  1       -1 0.15073995E+00 0.93018018E+02</pdfrwt>
<totfact> 0.24931979E+04</totfact>
</mgrwt>
</event>
<event>
 7    1  0.3301067E-009  0.7230997E+02  0.7818608E-02  0.1352409E+00
         -1   -1    0    0    0  501 -0.00000000000E+00  0.00000000000E+00  0.26531663256E+01  0.26531711126E+01  0.50400000000E-02 0.  1.
          1   -1    0    0  501    0  0.00000000000E+00 -0.00000000000E+00 -0.49268750443E+03  0.49268750446E+03  0.50400000000E-02 0. -1.
         23    2    1    2    0    0  0.00000000000E+00  0.00000000000E+00 -0.49003433810E+03  0.49534067557E+03  0.72309974077E+02 0.  0.
    9000005    2    3    3    0    0 -0.16054652811E+02 -0.18245204782E+02 -0.42829135904E+03  0.42898681480E+03  0.23578961507E+01 0.  0.
         22    1    3    3    0    0  0.16054652811E+02  0.18245204782E+02 -0.61742979069E+02  0.66353860767E+02  0.00000000000E+00 0.  1.
         22    1    4    4    0    0 -0.72045978249E+01 -0.82243416622E+01 -0.21348895672E+03  0.21376875512E+03  0.00000000000E+00 0.  1.
         22    1    4    4    0    0 -0.88500549856E+01 -0.10020863120E+02 -0.21480240232E+03  0.21521805968E+03  0.00000000000E+00 0.  1.
<mgrwt>
<rscale>  0 0.72309974E+02</rscale>
<asrwt>0</asrwt>
<pdfrwt beam="2">  1        1 0.75798005E-01 0.72309974E+02</pdfrwt>
<pdfrwt beam="1">  1       -1 0.40818020E-03 0.72309974E+02</pdfrwt>
<totfact> 0.25515615E+05</totfact>
</mgrwt>
</event>
<event>
 7    1  0.3383867E-009  0.8940692E+02  0.7818608E-02  0.1304294E+00
          1   -1    0    0  501    0  0.00000000000E+00  0.00000000000E+00  0.25649648468E+02  0.25649648964E+02  0.50400000000E-02 0. -1.
         -1   -1    0    0    0  501 -0.00000000000E+00 -0.00000000000E+00 -0.77911380576E+02  0.77911380739E+02  0.50400000000E-02 0.  1.
         23    2    1    2    0    0 -0.35527136788E-14  0.00000000000E+00 -0.52261732108E+02  0.10356102970E+03  0.89406924957E+02 0.  0.
    9000005    2    3    3    0    0  0.19677907527E+02 -0.49109234638E+01 -0.71359827711E+02  0.75702916530E+02  0.15078771378E+02 0.  0.
         22    1    3    3    0    0 -0.19677907527E+02  0.49109234638E+01  0.19098095603E+02  0.27858113173E+02  0.00000000000E+00 0. -1.
         22    1    4    4    0    0  0.63419207210E+00  0.70930505239E+00 -0.27965328076E+02  0.27981509745E+02  0.00000000000E+00 0.  1.
         22    1    4    4    0    0  0.19043715455E+02 -0.56202285162E+01 -0.43394499635E+02  0.47721406785E+02  0.00000000000E+00 0.  1.
<mgrwt>
<rscale>  0 0.89406925E+02</rscale>
<asrwt>0</asrwt>
<pdfrwt beam="1">  1        1 0.39460998E-02 0.89406925E+02</pdfrwt>
<pdfrwt beam="2">  1       -1 0.11986366E-01 0.89406925E+02</pdfrwt>
<totfact> 0.89395441E+04</totfact>
</mgrwt>
</event>
<event>
 7    1  0.3301067E-009  0.9018792E+02  0.7818608E-02  0.1302397E+00
          1   -1    0    0  501    0  0.00000000000E+00  0.00000000000E+00  0.54646480849E+03  0.54646480851E+03  0.50400000000E-02 0. -1.
         -1   -1    0    0    0  501 -0.00000000000E+00 -0.00000000000E+00 -0.37211254491E+01  0.37211288623E+01  0.50400000000E-02 0.  1.
         23    2    1    2    0    0  0.00000000000E+00  0.00000000000E+00  0.54274368304E+03  0.55018593737E+03  0.90187916070E+02 0.  0.
    9000005    2    3    3    0    0  0.19128895070E+02  0.35844647941E+02  0.38846532995E+03  0.39064734128E+03  0.70199188776E+01 0.  0.
         22    1    3    3    0    0 -0.19128895070E+02 -0.35844647941E+02  0.15427835309E+03  0.15953859609E+03  0.00000000000E+00 0.  1.
         22    1    4    4    0    0  0.37956336336E+01  0.43335945739E+01  0.77455138453E+02  0.77669075889E+02  0.00000000000E+00 0. -1.
         22    1    4    4    0    0  0.15333261437E+02  0.31511053367E+02  0.31101019150E+03  0.31297826539E+03  0.00000000000E+00 0. -1.
<mgrwt>
<rscale>  0 0.90187916E+02</rscale>
<asrwt>0</asrwt>
<pdfrwt beam="1">  1        1 0.84071468E-01 0.90187916E+02</pdfrwt>
<pdfrwt beam="2">  1       -1 0.57248139E-03 0.90187916E+02</pdfrwt>
<totfact> 0.14469358E+05</totfact>
</mgrwt>
</event>
<event>
 7    1  0.3301067E-009  0.9351918E+02  0.7818608E-02  0.1294547E+00
         -1   -1    0    0    0  501 -0.00000000000E+00  0.00000000000E+00  0.96539354279E+01  0.96539367435E+01  0.50400000000E-02 0.  1.
          1   -1    0    0  501    0  0.00000000000E+00 -0.00000000000E+00 -0.22648372082E+03  0.22648372087E+03  0.50400000000E-02 0. -1.
         23    2    1    2    0    0  0.00000000000E+00  0.00000000000E+00 -0.21682978539E+03  0.23613765762E+03  0.93519182592E+02 0.  0.
    9000005    2    3    3    0    0 -0.19007975873E+02  0.52574274307E+01 -0.21544550262E+03  0.21636747985E+03  0.30295297887E+01 0.  0.
         22    1    3    3    0    0  0.19007975873E+02 -0.52574274307E+01 -0.13842827725E+01  0.19770177762E+02  0.00000000000E+00 0.  1.
         22    1    4    4    0    0 -0.61637436668E+01  0.52953905536E+00 -0.76347973339E+02  0.76598206118E+02  0.00000000000E+00 0. -1.
         22    1    4    4    0    0 -0.12844232206E+02  0.47278883754E+01 -0.13909752928E+03  0.13976927373E+03  0.00000000000E+00 0. -1.
<mgrwt>
<rscale>  0 0.93519183E+02</rscale>
<asrwt>0</asrwt>
<pdfrwt beam="2">  1        1 0.34843645E-01 0.93519183E+02</pdfrwt>
<pdfrwt beam="1">  1       -1 0.14852211E-02 0.93519183E+02</pdfrwt>
<totfact> 0.11333227E+05</totfact>
</mgrwt>
</event>
<event>
 7    1  0.3301067E-009  0.9239569E+02  0.7818608E-02  0.1297152E+00
         -1   -1    0    0    0  501 -0.00000000000E+00  0.00000000000E+00  0.57794289945E+02  0.57794290165E+02  0.50400000000E-02 0.  1.
          1   -1    0    0  501    0  0.00000000000E+00 -0.00000000000E+00 -0.36928231126E+02  0.36928231470E+02  0.50400000000E-02 0. -1.
         23    2    1    2    0    0  0.00000000000E+00  0.00000000000E+00  0.20866058819E+02  0.94722521635E+02  0.92395690885E+02 0.  0.
    9000005    2    3    3    0    0  0.53470905620E+01 -0.38174627235E+02  0.34875145766E+02  0.53708523303E+02  0.13506892358E+02 0.  0.
         22    1    3    3    0    0 -0.53470905620E+01  0.38174627235E+02 -0.14009086947E+02  0.41013998331E+02  0.00000000000E+00 0. -1.
         22    1    4    4    0    0  0.79044224412E+00 -0.31485227946E+02  0.21704251848E+02  0.38249430401E+02  0.00000000000E+00 0. -1.
         22    1    4    4    0    0  0.45566483179E+01 -0.66893992894E+01  0.13170893918E+02  0.15459092902E+02  0.00000000000E+00 0. -1.
<mgrwt>
<rscale>  0 0.92395691E+02</rscale>
<asrwt>0</asrwt>
<pdfrwt beam="2">  1        1 0.56812664E-02 0.92395691E+02</pdfrwt>
<pdfrwt beam="1">  1       -1 0.88914292E-02 0.92395691E+02</pdfrwt>
<totfact> 0.86245428E+04</totfact>
</mgrwt>
</event>
<event>
 7    1  0.3301067E-009  0.9016324E+02  0.7818608E-02  0.1302457E+00
         -1   -1    0    0    0  501 -0.00000000000E+00  0.00000000000E+00  0.34247122704E+03  0.34247122707E+03  0.50400000000E-02 0.  1.
          1   -1    0    0  501    0  0.00000000000E+00 -0.00000000000E+00 -0.59343737479E+01  0.59343758881E+01  0.50400000000E-02 0. -1.
         23    2    1    2    0    0  0.00000000000E+00  0.00000000000E+00  0.33653685329E+03  0.34840560296E+03  0.90163243917E+02 0.  0.
    9000005    2    3    3    0    0 -0.32733440471E+02 -0.29598315140E+02  0.13935697354E+03  0.14634758317E+03  0.70505773883E+01 0.  0.
         22    1    3    3    0    0  0.32733440471E+02  0.29598315140E+02  0.19717987975E+03  0.20205801980E+03  0.00000000000E+00 0.  1.
         22    1    4    4    0    0 -0.18836511690E+02 -0.20392095357E+02  0.94508998573E+02  0.98501789511E+02  0.00000000000E+00 0. -1.
         22    1    4    4    0    0 -0.13896928781E+02 -0.92062197822E+01  0.44847974962E+02  0.47845793655E+02  0.00000000000E+00 0. -1.
<mgrwt>
<rscale>  0 0.90163244E+02</rscale>
<asrwt>0</asrwt>
<pdfrwt beam="2">  1        1 0.91298086E-03 0.90163244E+02</pdfrwt>
<pdfrwt beam="1">  1       -1 0.52687875E-01 0.90163244E+02</pdfrwt>
<totfact> 0.59039025E+04</totfact>
</mgrwt>
</event>
<event>
 7    1  0.3301067E-009  0.8931600E+02  0.7818608E-02  0.1304517E+00
         -1   -1    0    0    0  501 -0.00000000000E+00  0.00000000000E+00  0.70911958716E+01  0.70911976626E+01  0.50400000000E-02 0. -1.
          1   -1    0    0  501    0  0.00000000000E+00 -0.00000000000E+00 -0.28124126425E+03  0.28124126429E+03  0.50400000000E-02 0.  1.
         23    2    1    2    0    0 -0.71054273576E-14 -0.88817841970E-15 -0.27415006838E+03  0.28833246196E+03  0.89316004315E+02 0.  0.
    9000005    2    3    3    0    0  0.43749240885E+02  0.36961393783E+01 -0.14066660835E+03  0.14781380972E+03  0.11583182473E+02 0.  0.
         22    1    3    3    0    0 -0.43749240885E+02 -0.36961393783E+01 -0.13348346003E+03  0.14051865224E+03  0.00000000000E+00 0. -1.
         22    1    4    4    0    0  0.38228171534E+02  0.68985878869E+01 -0.12500332601E+03  0.13090001958E+03  0.00000000000E+00 0. -1.
         22    1    4    4    0    0  0.55210693508E+01 -0.32024485086E+01 -0.15663282337E+02  0.16913790137E+02  0.00000000000E+00 0. -1.
<mgrwt>
<rscale>  0 0.89316004E+02</rscale>
<asrwt>0</asrwt>
<pdfrwt beam="2">  1        1 0.43267878E-01 0.89316004E+02</pdfrwt>
<pdfrwt beam="1">  1       -1 0.10909536E-02 0.89316004E+02</pdfrwt>
<totfact> 0.13368323E+05</totfact>
</mgrwt>
</event>
<event>
 7    1  0.3301067E-009  0.9156969E+02  0.7818608E-02  0.1299094E+00
         -1   -1    0    0    0  501 -0.00000000000E+00  0.00000000000E+00  0.71200943255E+02  0.71200943433E+02  0.50400000000E-02 0.  1.
          1   -1    0    0  501    0  0.00000000000E+00 -0.00000000000E+00 -0.29441349172E+02  0.29441349604E+02  0.50400000000E-02 0. -1.
         23    2    1    2    0    0  0.71054273576E-14  0.00000000000E+00  0.41759594082E+02  0.10064229304E+03  0.91569686304E+02 0.  0.
    9000005    2    3    3    0    0 -0.45098147864E+02 -0.44123581905E+01  0.16046343748E+02  0.48541591618E+02  0.67445625205E+01 0.  0.
         22    1    3    3    0    0  0.45098147864E+02  0.44123581905E+01  0.25713250334E+02  0.52100701418E+02  0.00000000000E+00 0.  1.
         22    1    4    4    0    0 -0.19799779656E+02 -0.23246188391E+01  0.35550321658E+01  0.20250268661E+02  0.00000000000E+00 0.  1.
         22    1    4    4    0    0 -0.25298368208E+02 -0.20877393514E+01  0.12491311582E+02  0.28291322957E+02  0.00000000000E+00 0.  1.
<mgrwt>
<rscale>  0 0.91569686E+02</rscale>
<asrwt>0</asrwt>
<pdfrwt beam="2">  1        1 0.45294384E-02 0.91569686E+02</pdfrwt>
<pdfrwt beam="1">  1       -1 0.10953991E-01 0.91569686E+02</pdfrwt>
<totfact> 0.85358583E+04</totfact>
</mgrwt>
</event>
<event>
 7    1  0.3301067E-009  0.9091438E+02  0.7818608E-02  0.1300652E+00
         -1   -1    0    0    0  501 -0.00000000000E+00  0.00000000000E+00  0.22523686061E+03  0.22523686067E+03  0.50400000000E-02 0.  1.
          1   -1    0    0  501    0  0.00000000000E+00 -0.00000000000E+00 -0.91741462065E+01  0.91741475909E+01  0.50400000000E-02 0. -1.
         23    2    1    2    0    0  0.00000000000E+00  0.88817841970E-15  0.21606271441E+03  0.23441100826E+03  0.90914378603E+02 0.  0.
    9000005    2    3    3    0    0  0.39206332614E+02  0.48273730675E+01  0.52295790971E+02  0.65947228001E+02  0.73312400010E+01 0.  0.
         22    1    3    3    0    0 -0.39206332614E+02 -0.48273730675E+01  0.16376692343E+03  0.16846378026E+03  0.00000000000E+00 0.  1.
         22    1    4    4    0    0  0.24946087509E+02  0.35722628684E+01  0.27381729656E+02  0.37213269984E+02  0.00000000000E+00 0. -1.
         22    1    4    4    0    0  0.14260245105E+02  0.12551101991E+01  0.24914061315E+02  0.28733958017E+02  0.00000000000E+00 0. -1.
<mgrwt>
<rscale>  0 0.90914379E+02</rscale>
<asrwt>0</asrwt>
<pdfrwt beam="2">  1        1 0.14114073E-02 0.90914379E+02</pdfrwt>
<pdfrwt beam="1">  1       -1 0.34651822E-01 0.90914379E+02</pdfrwt>
<totfact> 0.67507058E+04</totfact>
</mgrwt>
</event>
<event>
 7    1  0.3301067E-009  0.9181363E+02  0.7818608E-02  0.1298518E+00
         -1   -1    0    0    0  501 -0.00000000000E+00  0.00000000000E+00  0.23788404539E+02  0.23788405073E+02  0.50400000000E-02 0.  1.
          1   -1    0    0  501    0  0.00000000000E+00 -0.00000000000E+00 -0.88590874738E+02  0.88590874881E+02  0.50400000000E-02 0. -1.
         23    2    1    2    0    0  0.00000000000E+00 -0.17763568394E-14 -0.64802470199E+02  0.11237927995E+03  0.91813628722E+02 0.  0.
    9000005    2    3    3    0    0 -0.28138740582E+02 -0.13842562257E+02 -0.72231089453E+02  0.80152123154E+02  0.14954173701E+02 0.  0.
         22    1    3    3    0    0  0.28138740582E+02  0.13842562257E+02  0.74286192545E+01  0.32227156800E+02  0.00000000000E+00 0.  1.
         22    1    4    4    0    0 -0.21242876661E+02 -0.14162777970E+02 -0.42069697952E+02  0.49210807496E+02  0.00000000000E+00 0. -1.
         22    1    4    4    0    0 -0.68958639206E+01  0.32021571305E+00 -0.30161391502E+02  0.30941315658E+02  0.00000000000E+00 0. -1.
<mgrwt>
<rscale>  0 0.91813629E+02</rscale>
<asrwt>0</asrwt>
<pdfrwt beam="2">  1        1 0.13629365E-01 0.91813629E+02</pdfrwt>
<pdfrwt beam="1">  1       -1 0.36597546E-02 0.91813629E+02</pdfrwt>
<totfact> 0.10046438E+05</totfact>
</mgrwt>
</event>
<event>
 7    1  0.4010899E-009  0.9177679E+02  0.7818608E-02  0.1298605E+00
         -1   -1    0    0    0  501 -0.00000000000E+00  0.00000000000E+00  0.32020593418E+02  0.32020593815E+02  0.50400000000E-02 0.  1.
          1   -1    0    0  501    0  0.00000000000E+00 -0.00000000000E+00 -0.65762205264E+02  0.65762205457E+02  0.50400000000E-02 0. -1.
         23    2    1    2    0    0  0.00000000000E+00  0.00000000000E+00 -0.33741611846E+02  0.97782799272E+02  0.91776791529E+02 0.  0.
    9000005    2    3    3    0    0 -0.22418742336E+02  0.18867234204E+02  0.18493333692E+02  0.37890712400E+02  0.15333954503E+02 0.  0.
         22    1    3    3    0    0  0.22418742336E+02 -0.18867234204E+02 -0.52234945538E+02  0.59892086871E+02  0.00000000000E+00 0. -1.
         22    1    4    4    0    0 -0.51875888305E+01  0.14213131374E+02  0.98985047116E+01  0.18080502671E+02  0.00000000000E+00 0.  1.
         22    1    4    4    0    0 -0.17231153506E+02  0.46541028298E+01  0.85948289807E+01  0.19810209729E+02  0.00000000000E+00 0.  1.
<mgrwt>
<rscale>  0 0.91776792E+02</rscale>
<asrwt>0</asrwt>
<pdfrwt beam="2">  1        1 0.10117262E-01 0.91776792E+02</pdfrwt>
<pdfrwt beam="1">  1       -1 0.49262452E-02 0.91776792E+02</pdfrwt>
<totfact> 0.95966640E+04</totfact>
</mgrwt>
</event>
<event>
 7    1  0.3301067E-009  0.9189817E+02  0.7818608E-02  0.1298319E+00
         -1   -1    0    0    0  501 -0.00000000000E+00  0.00000000000E+00  0.94183581143E+02  0.94183581278E+02  0.50400000000E-02 0.  1.
          1   -1    0    0  501    0  0.00000000000E+00 -0.00000000000E+00 -0.22417052521E+02  0.22417053087E+02  0.50400000000E-02 0. -1.
         23    2    1    2    0    0  0.00000000000E+00  0.00000000000E+00  0.71766528622E+02  0.11660063437E+03  0.91898168120E+02 0.  0.
    9000005    2    3    3    0    0  0.38510340808E+02 -0.17806846020E+02  0.15427127888E+02  0.46072213218E+02  0.91936087357E+01 0.  0.
         22    1    3    3    0    0 -0.38510340808E+02  0.17806846020E+02  0.56339400735E+02  0.70528421147E+02  0.00000000000E+00 0.  1.
         22    1    4    4    0    0  0.28466855436E+02 -0.17361840187E+02  0.11328330970E+02  0.35215428944E+02  0.00000000000E+00 0.  1.
         22    1    4    4    0    0  0.10043485372E+02 -0.44500583313E+00  0.40987969180E+01  0.10856784274E+02  0.00000000000E+00 0.  1.
<mgrwt>
<rscale>  0 0.91898168E+02</rscale>
<asrwt>0</asrwt>
<pdfrwt beam="2">  1        1 0.34487774E-02 0.91898168E+02</pdfrwt>
<pdfrwt beam="1">  1       -1 0.14489782E-01 0.91898168E+02</pdfrwt>
<totfact> 0.80617692E+04</totfact>
</mgrwt>
</event>
<event>
 7    1  0.3301067E-009  0.8990811E+02  0.7818608E-02  0.1303074E+00
         -1   -1    0    0    0  501 -0.00000000000E+00  0.00000000000E+00  0.32834071310E+03  0.32834071314E+03  0.50400000000E-02 0.  1.
          1   -1    0    0  501    0  0.00000000000E+00 -0.00000000000E+00 -0.61547853107E+01  0.61547873743E+01  0.50400000000E-02 0. -1.
         23    2    1    2    0    0 -0.35527136788E-14  0.00000000000E+00  0.32218592779E+03  0.33449550052E+03  0.89908107521E+02 0.  0.
    9000005    2    3    3    0    0 -0.31490004462E+02 -0.31162804426E+02  0.14058981585E+03  0.14757335460E+03  0.70468366557E+01 0.  0.
         22    1    3    3    0    0  0.31490004462E+02  0.31162804426E+02  0.18159611194E+03  0.18692214592E+03  0.00000000000E+00 0.  1.
         22    1    4    4    0    0 -0.27104705915E+02 -0.23482430172E+02  0.10761789932E+03  0.11343589319E+03  0.00000000000E+00 0.  1.
         22    1    4    4    0    0 -0.43852985474E+01 -0.76803742543E+01  0.32971916528E+02  0.34137461410E+02  0.00000000000E+00 0.  1.
<mgrwt>
<rscale>  0 0.89908108E+02</rscale>
<asrwt>0</asrwt>
<pdfrwt beam="2">  1        1 0.94689008E-03 0.89908108E+02</pdfrwt>
<pdfrwt beam="1">  1       -1 0.50513963E-01 0.89908108E+02</pdfrwt>
<totfact> 0.60570134E+04</totfact>
</mgrwt>
</event>
<event>
 7    1  0.3301067E-009  0.8969693E+02  0.7818608E-02  0.1303587E+00
         -1   -1    0    0    0  501 -0.00000000000E+00  0.00000000000E+00  0.64665020565E+01  0.64665040206E+01  0.50400000000E-02 0.  1.
          1   -1    0    0  501    0  0.00000000000E+00 -0.00000000000E+00 -0.31104677733E+03  0.31104677737E+03  0.50400000000E-02 0. -1.
         23    2    1    2    0    0 -0.35527136788E-14  0.35527136788E-14 -0.30458027527E+03  0.31751328139E+03  0.89696932915E+02 0.  0.
    9000005    2    3    3    0    0  0.24838917793E+02 -0.29694578501E+02 -0.76437590072E+02  0.86109252385E+02  0.85649483852E+01 0.  0.
         22    1    3    3    0    0 -0.24838917793E+02  0.29694578501E+02 -0.22814268520E+03  0.23140402901E+03  0.00000000000E+00 0.  1.
         22    1    4    4    0    0  0.11186692159E+01  0.33230344513E+00 -0.42421161921E+01  0.43997041016E+01  0.00000000000E+00 0.  1.
         22    1    4    4    0    0  0.23720248577E+02 -0.30026881946E+02 -0.72195473880E+02  0.81709548284E+02  0.00000000000E+00 0.  1.
<mgrwt>
<rscale>  0 0.89696933E+02</rscale>
<asrwt>0</asrwt>
<pdfrwt beam="2">  1        1 0.47853339E-01 0.89696933E+02</pdfrwt>
<pdfrwt beam="1">  1       -1 0.99484687E-03 0.89696933E+02</pdfrwt>
<totfact> 0.13474196E+05</totfact>
</mgrwt>
</event>
<event>
 7    1  0.3301067E-009  0.9187805E+02  0.7818608E-02  0.1298366E+00
          1   -1    0    0  501    0  0.00000000000E+00  0.00000000000E+00  0.10522136725E+03  0.10522136737E+03  0.50400000000E-02 0. -1.
         -1   -1    0    0    0  501 -0.00000000000E+00 -0.00000000000E+00 -0.20056705075E+02  0.20056705708E+02  0.50400000000E-02 0.  1.
         23    2    1    2    0    0 -0.35527136788E-14 -0.35527136788E-14  0.85164662172E+02  0.12527807308E+03  0.91878049123E+02 0.  0.
    9000005    2    3    3    0    0 -0.20993716392E+02 -0.26644281864E+02  0.38497035432E+00  0.33964054279E+02  0.16597882090E+01 0.  0.
         22    1    3    3    0    0  0.20993716392E+02  0.26644281864E+02  0.84779691817E+02  0.91314018796E+02  0.00000000000E+00 0. -1.
         22    1    4    4    0    0 -0.14744142313E+02 -0.18118463356E+02  0.94007503005E+00  0.23378455637E+02  0.00000000000E+00 0. -1.
         22    1    4    4    0    0 -0.62495740793E+01 -0.85258185081E+01 -0.55510467573E+00  0.10585598642E+02  0.00000000000E+00 0. -1.
<mgrwt>
<rscale>  0 0.91878049E+02</rscale>
<asrwt>0</asrwt>
<pdfrwt beam="1">  1        1 0.16187903E-01 0.91878049E+02</pdfrwt>
<pdfrwt beam="2">  1       -1 0.30856469E-02 0.91878049E+02</pdfrwt>
<totfact> 0.10316763E+05</totfact>
</mgrwt>
</event>
<event>
 7    1  0.3301067E-009  0.9232543E+02  0.7818608E-02  0.1297316E+00
          1   -1    0    0  501    0  0.00000000000E+00  0.00000000000E+00  0.49980164103E+02  0.49980164357E+02  0.50400000000E-02 0.  1.
         -1   -1    0    0    0  501 -0.00000000000E+00 -0.00000000000E+00 -0.42636837513E+02  0.42636837811E+02  0.50400000000E-02 0. -1.
         23    2    1    2    0    0  0.00000000000E+00  0.71054273576E-14  0.73433265900E+01  0.92617002169E+02  0.92325427945E+02 0.  0.
    9000005    2    3    3    0    0  0.14071432540E+02 -0.43003584213E+02 -0.14876530810E+01  0.46516029610E+02  0.10687115144E+02 0.  0.
         22    1    3    3    0    0 -0.14071432540E+02  0.43003584213E+02  0.88309796710E+01  0.46100972558E+02  0.00000000000E+00 0.  1.
         22    1    4    4    0    0  0.13813810646E+01 -0.17167254029E+02 -0.38058292711E+01  0.17638230098E+02  0.00000000000E+00 0. -1.
         22    1    4    4    0    0  0.12690051475E+02 -0.25836330184E+02  0.23181761902E+01  0.28877799512E+02  0.00000000000E+00 0. -1.
<mgrwt>
<rscale>  0 0.92325428E+02</rscale>
<asrwt>0</asrwt>
<pdfrwt beam="1">  1        1 0.76892561E-02 0.92325428E+02</pdfrwt>
<pdfrwt beam="2">  1       -1 0.65595135E-02 0.92325428E+02</pdfrwt>
<totfact> 0.90527892E+04</totfact>
</mgrwt>
</event>
<event>
 7    1  0.3301067E-009  0.9808663E+02  0.7818608E-02  0.1284372E+00
          1   -1    0    0  501    0  0.00000000000E+00  0.00000000000E+00  0.13599258610E+02  0.13599259544E+02  0.50400000000E-02 0. -1.
         -1   -1    0    0    0  501 -0.00000000000E+00 -0.00000000000E+00 -0.17686601714E+03  0.17686601721E+03  0.50400000000E-02 0.  1.
         23    2    1    2    0    0  0.00000000000E+00  0.00000000000E+00 -0.16326675853E+03  0.19046527675E+03  0.98086631142E+02 0.  0.
    9000005    2    3    3    0    0 -0.15021331428E+02  0.34809928658E+02 -0.14178281692E+03  0.14688854813E+03  0.60420910658E+01 0.  0.
         22    1    3    3    0    0  0.15021331428E+02 -0.34809928658E+02 -0.21483941603E+02  0.43576728627E+02  0.00000000000E+00 0. -1.
         22    1    4    4    0    0  0.53853518374E+00  0.63412310082E+00 -0.35373009540E+01  0.36338175918E+01  0.00000000000E+00 0. -1.
         22    1    4    4    0    0 -0.15559866612E+02  0.34175805557E+02 -0.13824551597E+03  0.14325473053E+03  0.00000000000E+00 0. -1.
<mgrwt>
<rscale>  0 0.98086631E+02</rscale>
<asrwt>0</asrwt>
<pdfrwt beam="1">  1        1 0.20921938E-02 0.98086631E+02</pdfrwt>
<pdfrwt beam="2">  1       -1 0.27210155E-01 0.98086631E+02</pdfrwt>
<totfact> 0.59345165E+04</totfact>
</mgrwt>
</event>
<event>
 7    1  0.3301067E-009  0.8950805E+02  0.7818608E-02  0.1304047E+00
         -1   -1    0    0    0  501 -0.00000000000E+00  0.00000000000E+00  0.11057552265E+02  0.11057553414E+02  0.50400000000E-02 0.  1.
          1   -1    0    0  501    0  0.00000000000E+00 -0.00000000000E+00 -0.18113616017E+03  0.18113616024E+03  0.50400000000E-02 0. -1.
         23    2    1    2    0    0  0.00000000000E+00 -0.17763568394E-14 -0.17007860791E+03  0.19219371366E+03  0.89508048249E+02 0.  0.
    9000005    2    3    3    0    0 -0.15810765515E+02 -0.90635511892E+01 -0.17244374632E+03  0.17381649553E+03  0.11966628905E+02 0.  0.
         22    1    3    3    0    0  0.15810765515E+02  0.90635511892E+01  0.23651384122E+01  0.18377218126E+02  0.00000000000E+00 0.  1.
         22    1    4    4    0    0 -0.55832965417E+01  0.25933451926E+01 -0.40645706932E+02  0.41109270628E+02  0.00000000000E+00 0. -1.
         22    1    4    4    0    0 -0.10227468973E+02 -0.11656896382E+02 -0.13179803939E+03  0.13270722490E+03  0.00000000000E+00 0. -1.
<mgrwt>
<rscale>  0 0.89508048E+02</rscale>
<asrwt>0</asrwt>
<pdfrwt beam="2">  1        1 0.27867100E-01 0.89508048E+02</pdfrwt>
<pdfrwt beam="1">  1       -1 0.17011621E-02 0.89508048E+02</pdfrwt>
<totfact> 0.12206672E+05</totfact>
</mgrwt>
</event>
<event>
 7    1  0.3301067E-009  0.8383192E+02  0.7818608E-02  0.1318516E+00
         -1   -1    0    0    0  501 -0.00000000000E+00  0.00000000000E+00  0.44335139696E+01  0.44335168343E+01  0.50400000000E-02 0.  1.
          1   -1    0    0  501    0  0.00000000000E+00 -0.00000000000E+00 -0.39628769174E+03  0.39628769177E+03  0.50400000000E-02 0. -1.
         23    2    1    2    0    0 -0.22204460493E-15  0.00000000000E+00 -0.39185417777E+03  0.40072120860E+03  0.83831917495E+02 0.  0.
    9000005    2    3    3    0    0 -0.10196573313E+01  0.18320493003E+02 -0.37513430169E+03  0.37589713921E+03  0.15369931762E+02 0.  0.
         22    1    3    3    0    0  0.10196573313E+01 -0.18320493003E+02 -0.16719876083E+02  0.24824069392E+02  0.00000000000E+00 0.  1.
         22    1    4    4    0    0 -0.50198280487E+01  0.84747359728E+00 -0.13441377666E+03  0.13451014921E+03  0.00000000000E+00 0. -1.
         22    1    4    4    0    0  0.40001707173E+01  0.17473019405E+02 -0.24072052503E+03  0.24138699000E+03  0.00000000000E+00 0. -1.
<mgrwt>
<rscale>  0 0.83831917E+02</rscale>
<asrwt>0</asrwt>
<pdfrwt beam="2">  1        1 0.60967309E-01 0.83831917E+02</pdfrwt>
<pdfrwt beam="1">  1       -1 0.68207961E-03 0.83831917E+02</pdfrwt>
<totfact> 0.16816722E+05</totfact>
</mgrwt>
</event>
<event>
 7    1  0.4356666E-009  0.9157282E+02  0.7818608E-02  0.1299087E+00
         -1   -1    0    0    0  501 -0.00000000000E+00  0.00000000000E+00  0.17975646414E+02  0.17975647120E+02  0.50400000000E-02 0.  1.
          1   -1    0    0  501    0  0.00000000000E+00 -0.00000000000E+00 -0.11662418632E+03  0.11662418643E+03  0.50400000000E-02 0. -1.
         23    2    1    2    0    0  0.00000000000E+00  0.00000000000E+00 -0.98648539907E+02  0.13459983355E+03  0.91572816741E+02 0.  0.
    9000005    2    3    3    0    0  0.37665413166E+02  0.23707084186E+02 -0.49597041265E+02  0.68367222937E+02  0.15280755226E+02 0.  0.
         22    1    3    3    0    0 -0.37665413166E+02 -0.23707084186E+02 -0.49051498642E+02  0.66232610613E+02  0.00000000000E+00 0. -1.
         22    1    4    4    0    0  0.29025901541E+02  0.98071860380E+01 -0.30789912732E+02  0.43436189799E+02  0.00000000000E+00 0.  1.
         22    1    4    4    0    0  0.86395116259E+01  0.13899898148E+02 -0.18807128533E+02  0.24931033138E+02  0.00000000000E+00 0.  1.
<mgrwt>
<rscale>  0 0.91572817E+02</rscale>
<asrwt>0</asrwt>
<pdfrwt beam="2">  1        1 0.17942182E-01 0.91572817E+02</pdfrwt>
<pdfrwt beam="1">  1       -1 0.27654842E-02 0.91572817E+02</pdfrwt>
<totfact> 0.10595279E+05</totfact>
</mgrwt>
</event>
<event>
 7    1  0.3301067E-009  0.9140257E+02  0.7818608E-02  0.1299490E+00
         -1   -1    0    0    0  501 -0.00000000000E+00  0.00000000000E+00  0.10915212560E+03  0.10915212572E+03  0.50400000000E-02 0.  1.
          1   -1    0    0  501    0  0.00000000000E+00 -0.00000000000E+00 -0.19134829691E+02  0.19134830355E+02  0.50400000000E-02 0. -1.
         23    2    1    2    0    0  0.00000000000E+00  0.00000000000E+00  0.90017295910E+02  0.12828695607E+03  0.91402568538E+02 0.  0.
    9000005    2    3    3    0    0 -0.32457447578E+02 -0.24510266772E+02  0.16418133349E+02  0.44197266989E+02  0.54409765772E+01 0.  0.
         22    1    3    3    0    0  0.32457447578E+02  0.24510266772E+02  0.73599162561E+02  0.84089689083E+02  0.00000000000E+00 0. -1.
         22    1    4    4    0    0 -0.22714542157E+02 -0.19577499772E+02  0.10472890370E+02  0.31763349247E+02  0.00000000000E+00 0.  1.
         22    1    4    4    0    0 -0.97429054212E+01 -0.49327670001E+01  0.59452429790E+01  0.12433917741E+02  0.00000000000E+00 0.  1.
<mgrwt>
<rscale>  0 0.91402569E+02</rscale>
<asrwt>0</asrwt>
<pdfrwt beam="2">  1        1 0.29438200E-02 0.91402569E+02</pdfrwt>
<pdfrwt beam="1">  1       -1 0.16792635E-01 0.91402569E+02</pdfrwt>
<totfact> 0.79518309E+04</totfact>
</mgrwt>
</event>
<event>
 7    1  0.3301067E-009  0.8946728E+02  0.7818608E-02  0.1304147E+00
          1   -1    0    0  501    0  0.00000000000E+00  0.00000000000E+00  0.16181360394E+03  0.16181360402E+03  0.50400000000E-02 0. -1.
         -1   -1    0    0    0  501 -0.00000000000E+00 -0.00000000000E+00 -0.12366687442E+02  0.12366688469E+02  0.50400000000E-02 0.  1.
         23    2    1    2    0    0 -0.35527136788E-14  0.00000000000E+00  0.14944691650E+03  0.17418029249E+03  0.89467275807E+02 0.  0.
    9000005    2    3    3    0    0  0.31374004651E+02  0.26185335177E+02  0.39524105552E+02  0.56907003489E+02  0.25004360066E+01 0.  0.
         22    1    3    3    0    0 -0.31374004651E+02 -0.26185335177E+02  0.10992281095E+03  0.11727328900E+03  0.00000000000E+00 0. -1.
         22    1    4    4    0    0  0.20422795291E+02  0.15471844457E+02  0.24640541821E+02  0.35547501172E+02  0.00000000000E+00 0.  1.
         22    1    4    4    0    0  0.10951209361E+02  0.10713490720E+02  0.14883563732E+02  0.21359502317E+02  0.00000000000E+00 0.  1.
<mgrwt>
<rscale>  0 0.89467276E+02</rscale>
<asrwt>0</asrwt>
<pdfrwt beam="1">  1        1 0.24894399E-01 0.89467276E+02</pdfrwt>
<pdfrwt beam="2">  1       -1 0.19025675E-02 0.89467276E+02</pdfrwt>
<totfact> 0.11965468E+05</totfact>
</mgrwt>
</event>
<event>
 7    1  0.3301067E-009  0.9017220E+02  0.7818608E-02  0.1302435E+00
         -1   -1    0    0    0  501 -0.00000000000E+00  0.00000000000E+00  0.16781627142E+02  0.16781627899E+02  0.50400000000E-02 0.  1.
          1   -1    0    0  501    0  0.00000000000E+00 -0.00000000000E+00 -0.12112987602E+03  0.12112987613E+03  0.50400000000E-02 0. -1.
         23    2    1    2    0    0  0.00000000000E+00  0.00000000000E+00 -0.10434824888E+03  0.13791150403E+03  0.90172201362E+02 0.  0.
    9000005    2    3    3    0    0  0.26809654482E+02  0.24890395738E+02 -0.91655605519E+02  0.99189513261E+02  0.99759783710E+01 0.  0.
         22    1    3    3    0    0 -0.26809654482E+02 -0.24890395738E+02 -0.12692643364E+02  0.38721990768E+02  0.00000000000E+00 0.  1.
         22    1    4    4    0    0  0.19466121627E+02  0.12533394356E+02 -0.49406515864E+02  0.54562071764E+02  0.00000000000E+00 0. -1.
         22    1    4    4    0    0  0.73435328543E+01  0.12357001382E+02 -0.42249089654E+02  0.44627441497E+02  0.00000000000E+00 0. -1.
<mgrwt>
<rscale>  0 0.90172201E+02</rscale>
<asrwt>0</asrwt>
<pdfrwt beam="2">  1        1 0.18635365E-01 0.90172201E+02</pdfrwt>
<pdfrwt beam="1">  1       -1 0.25817889E-02 0.90172201E+02</pdfrwt>
<totfact> 0.11120126E+05</totfact>
</mgrwt>
</event>
<event>
 6    1  0.3301067E-009  0.5021853E+03  0.7818608E-02  0.1013210E+00
         -1   -1    0    0    0  501 -0.00000000000E+00  0.00000000000E+00  0.22286089307E+03  0.22286089312E+03  0.50400000000E-02 0.  1.
          1   -1    0    0  501    0  0.00000000000E+00 -0.00000000000E+00 -0.28290076958E+03  0.28290076963E+03  0.50400000000E-02 0. -1.
    9000005    2    1    2    0    0 -0.67711665710E+02  0.93495142978E+02  0.19453322198E+03  0.22623764963E+03  0.37534279137E+01 0.  0.
         22    1    1    2    0    0  0.67711665710E+02 -0.93495142978E+02 -0.25457309850E+03  0.27952401312E+03  0.00000000000E+00 0. -1.
         22    1    3    3    0    0 -0.36787812743E+02  0.52651205934E+02  0.11117680937E+03  0.12839694542E+03  0.00000000000E+00 0. -1.
         22    1    3    3    0    0 -0.30923852966E+02  0.40843937044E+02  0.83356412614E+02  0.97840704206E+02  0.00000000000E+00 0. -1.
<mgrwt>
<rscale>  0 0.50218530E+03</rscale>
<asrwt>0</asrwt>
<pdfrwt beam="2">  1        1 0.43523195E-01 0.50218530E+03</pdfrwt>
<pdfrwt beam="1">  1       -1 0.34286291E-01 0.50218530E+03</pdfrwt>
<totfact> 0.76678567E+02</totfact>
</mgrwt>
</event>
<event>
 7    1  0.3301067E-009  0.8999801E+02  0.7818608E-02  0.1302857E+00
         -1   -1    0    0    0  501 -0.00000000000E+00  0.00000000000E+00  0.11770149497E+02  0.11770150576E+02  0.50400000000E-02 0.  1.
          1   -1    0    0  501    0  0.00000000000E+00 -0.00000000000E+00 -0.17203778685E+03  0.17203778692E+03  0.50400000000E-02 0. -1.
         23    2    1    2    0    0  0.35527136788E-14  0.00000000000E+00 -0.16026763735E+03  0.18380793750E+03  0.89998012786E+02 0.  0.
    9000005    2    3    3    0    0 -0.31490538822E+02 -0.63578585831E+01 -0.21218145679E+02  0.41095507994E+02  0.14372009955E+02 0.  0.
         22    1    3    3    0    0  0.31490538822E+02  0.63578585831E+01 -0.13904949167E+03  0.14271242950E+03  0.00000000000E+00 0. -1.
         22    1    4    4    0    0 -0.42730526103E+01  0.46217789634E+00  0.19386741094E+01  0.47149808399E+01  0.00000000000E+00 0.  1.
         22    1    4    4    0    0 -0.27217486212E+02 -0.68200364794E+01 -0.23156819789E+02  0.36380527154E+02  0.00000000000E+00 0.  1.
<mgrwt>
<rscale>  0 0.89998013E+02</rscale>
<asrwt>0</asrwt>
<pdfrwt beam="2">  1        1 0.26467350E-01 0.89998013E+02</pdfrwt>
<pdfrwt beam="1">  1       -1 0.18107924E-02 0.89998013E+02</pdfrwt>
<totfact> 0.11912540E+05</totfact>
</mgrwt>
</event>
<event>
 7    1  0.3301067E-009  0.1000736E+03  0.7818608E-02  0.1280141E+00
         -1   -1    0    0    0  501 -0.00000000000E+00  0.00000000000E+00  0.33727537954E+02  0.33727538330E+02  0.50400000000E-02 0.  1.
          1   -1    0    0  501    0  0.00000000000E+00 -0.00000000000E+00 -0.74232600175E+02  0.74232600346E+02  0.50400000000E-02 0. -1.
         23    2    1    2    0    0  0.00000000000E+00  0.00000000000E+00 -0.40505062221E+02  0.10796013868E+03  0.10007363028E+03 0.  0.
    9000005    2    3    3    0    0  0.35153891767E+02 -0.85942427445E+01 -0.56326979814E+02  0.68463427535E+02  0.14312761445E+02 0.  0.
         22    1    3    3    0    0 -0.35153891767E+02  0.85942427445E+01  0.15821917593E+02  0.39496711141E+02  0.00000000000E+00 0.  1.
         22    1    4    4    0    0  0.33468617314E+02 -0.10986002251E+02 -0.54846847339E+02  0.65184486294E+02  0.00000000000E+00 0.  1.
         22    1    4    4    0    0  0.16852744526E+01  0.23917595068E+01 -0.14801324752E+01  0.32789412412E+01  0.00000000000E+00 0.  1.
<mgrwt>
<rscale>  0 0.10007363E+03</rscale>
<asrwt>0</asrwt>
<pdfrwt beam="2">  1        1 0.11420400E-01 0.10007363E+03</pdfrwt>
<pdfrwt beam="1">  1       -1 0.51888520E-02 0.10007363E+03</pdfrwt>
<totfact> 0.76917145E+04</totfact>
</mgrwt>
</event>
<event>
 7    1  0.3301067E-009  0.9130241E+02  0.7818608E-02  0.1299728E+00
         -1   -1    0    0    0  501 -0.00000000000E+00  0.00000000000E+00  0.29085537440E+03  0.29085537445E+03  0.50400000000E-02 0.  1.
          1   -1    0    0  501    0  0.00000000000E+00 -0.00000000000E+00 -0.71651840354E+01  0.71651858079E+01  0.50400000000E-02 0. -1.
         23    2    1    2    0    0  0.00000000000E+00 -0.22204460493E-15  0.28369019037E+03  0.29802056026E+03  0.91302410832E+02 0.  0.
    9000005    2    3    3    0    0 -0.43401220616E+02  0.17934074467E+01  0.18661782105E+03  0.19167241901E+03  0.50222320143E+01 0.  0.
         22    1    3    3    0    0  0.43401220616E+02 -0.17934074467E+01  0.97072369318E+02  0.10634814124E+03  0.00000000000E+00 0. -1.
         22    1    4    4    0    0 -0.37616734413E+02  0.24455566694E+01  0.16742606508E+03  0.17161726814E+03  0.00000000000E+00 0. -1.
         22    1    4    4    0    0 -0.57844862034E+01 -0.65214922263E+00  0.19191755973E+02  0.20055150874E+02  0.00000000000E+00 0. -1.
<mgrwt>
<rscale>  0 0.91302411E+02</rscale>
<asrwt>0</asrwt>
<pdfrwt beam="2">  1        1 0.11023362E-02 0.91302411E+02</pdfrwt>
<pdfrwt beam="1">  1       -1 0.44746980E-01 0.91302411E+02</pdfrwt>
<totfact> 0.61099441E+04</totfact>
</mgrwt>
</event>
<event>
 7    1  0.3673947E-009  0.9021385E+02  0.7818608E-02  0.1302335E+00
          1   -1    0    0  501    0  0.00000000000E+00  0.00000000000E+00  0.10117384077E+02  0.10117385332E+02  0.50400000000E-02 0. -1.
         -1   -1    0    0    0  501 -0.00000000000E+00 -0.00000000000E+00 -0.20110281642E+03  0.20110281648E+03  0.50400000000E-02 0.  1.
         23    2    1    2    0    0  0.00000000000E+00  0.00000000000E+00 -0.19098543234E+03  0.21122020181E+03  0.90213847537E+02 0.  0.
    9000005    2    3    3    0    0  0.50024276485E+01 -0.91711687300E+01 -0.19789254112E+03  0.19869651346E+03  0.14481436730E+02 0.  0.
         22    1    3    3    0    0 -0.50024276485E+01  0.91711687300E+01  0.69071087831E+01  0.12523688354E+02  0.00000000000E+00 0. -1.
         22    1    4    4    0    0  0.88409252057E+01 -0.10161592207E+02 -0.16856305034E+03  0.16910033074E+03  0.00000000000E+00 0. -1.
         22    1    4    4    0    0 -0.38384975573E+01  0.99042347728E+00 -0.29329490780E+02  0.29596182719E+02  0.00000000000E+00 0. -1.
<mgrwt>
<rscale>  0 0.90213848E+02</rscale>
<asrwt>0</asrwt>
<pdfrwt beam="1">  1        1 0.15565209E-02 0.90213848E+02</pdfrwt>
<pdfrwt beam="2">  1       -1 0.30938892E-01 0.90213848E+02</pdfrwt>
<totfact> 0.71257922E+04</totfact>
</mgrwt>
</event>
<event>
 7    1  0.3301067E-009  0.8278045E+02  0.7818608E-02  0.1321341E+00
         -1   -1    0    0    0  501 -0.00000000000E+00  0.00000000000E+00  0.10860437663E+02  0.10860438832E+02  0.50400000000E-02 0.  1.
          1   -1    0    0  501    0  0.00000000000E+00 -0.00000000000E+00 -0.15774230763E+03  0.15774230771E+03  0.50400000000E-02 0. -1.
         23    2    1    2    0    0  0.17763568394E-14  0.17763568394E-14 -0.14688186997E+03  0.16860274655E+03  0.82780447069E+02 0.  0.
    9000005    2    3    3    0    0 -0.10301078609E+02 -0.73438790351E+01 -0.15325621030E+03  0.15443669577E+03  0.14254200230E+02 0.  0.
         22    1    3    3    0    0  0.10301078609E+02  0.73438790351E+01  0.63743403357E+01  0.14166050773E+02  0.00000000000E+00 0.  1.
         22    1    4    4    0    0 -0.21873019298E+01  0.17395310281E+01 -0.54057694825E+01  0.60854417775E+01  0.00000000000E+00 0. -1.
         22    1    4    4    0    0 -0.81137766793E+01 -0.90834100632E+01 -0.14785044082E+03  0.14835125399E+03  0.00000000000E+00 0. -1.
<mgrwt>
<rscale>  0 0.82780447E+02</rscale>
<asrwt>0</asrwt>
<pdfrwt beam="2">  1        1 0.24268046E-01 0.82780447E+02</pdfrwt>
<pdfrwt beam="1">  1       -1 0.16708368E-02 0.82780447E+02</pdfrwt>
<totfact> 0.14659906E+05</totfact>
</mgrwt>
</event>
<event>
 7    1  0.3301067E-009  0.9155116E+02  0.7818608E-02  0.1299138E+00
          1   -1    0    0  501    0  0.00000000000E+00  0.00000000000E+00  0.53086350361E+03  0.53086350364E+03  0.50400000000E-02 0. -1.
         -1   -1    0    0    0  501 -0.00000000000E+00 -0.00000000000E+00 -0.39471591244E+01  0.39471623421E+01  0.50400000000E-02 0.  1.
         23    2    1    2    0    0  0.00000000000E+00  0.35527136788E-14  0.52691634449E+03  0.53481066598E+03  0.91551157042E+02 0.  0.
    9000005    2    3    3    0    0 -0.32304646070E+02  0.31753143866E+02  0.29536198026E+03  0.29886729164E+03  0.55773043194E+01 0.  0.
         22    1    3    3    0    0  0.32304646070E+02 -0.31753143866E+02  0.23155436423E+03  0.23594337434E+03  0.00000000000E+00 0.  1.
         22    1    4    4    0    0 -0.14527306440E+02  0.16205203560E+02  0.15759221547E+03  0.15908789279E+03  0.00000000000E+00 0. -1.
         22    1    4    4    0    0 -0.17777339630E+02  0.15547940306E+02  0.13776976479E+03  0.13977939885E+03  0.00000000000E+00 0. -1.
<mgrwt>
<rscale>  0 0.91551157E+02</rscale>
<asrwt>0</asrwt>
<pdfrwt beam="1">  1        1 0.81671308E-01 0.91551157E+02</pdfrwt>
<pdfrwt beam="2">  1       -1 0.60725551E-03 0.91551157E+02</pdfrwt>
<totfact> 0.13867014E+05</totfact>
</mgrwt>
</event>
<event>
 7    1  0.3301067E-009  0.9101826E+02  0.7818608E-02  0.1300404E+00
          1   -1    0    0  501    0  0.00000000000E+00  0.00000000000E+00  0.13925105521E+01  0.13925196729E+01  0.50400000000E-02 0. -1.
         -1   -1    0    0    0  501 -0.00000000000E+00 -0.00000000000E+00 -0.14872951541E+04  0.14872951541E+04  0.50400000000E-02 0.  1.
         23    2    1    2    0    0  0.00000000000E+00  0.00000000000E+00 -0.14859026436E+04  0.14886876738E+04  0.91018261718E+02 0.  0.
    9000005    2    3    3    0    0 -0.10522265028E+02  0.38968824467E+01 -0.14635654037E+04  0.14636905532E+04  0.15506154759E+02 0.  0.
         22    1    3    3    0    0  0.10522265028E+02 -0.38968824467E+01 -0.22337239900E+02  0.24997120643E+02  0.00000000000E+00 0. -1.
         22    1    4    4    0    0 -0.16490990774E+01 -0.32332580547E+01 -0.84209758323E+02  0.84287940313E+02  0.00000000000E+00 0. -1.
         22    1    4    4    0    0 -0.88731659507E+01  0.71301405014E+01 -0.13793556453E+04  0.13794026128E+04  0.00000000000E+00 0. -1.
<mgrwt>
<rscale>  0 0.91018262E+02</rscale>
<asrwt>0</asrwt>
<pdfrwt beam="1">  1        1 0.21423428E-03 0.91018262E+02</pdfrwt>
<pdfrwt beam="2">  1       -1 0.22881337E+00 0.91018262E+02</pdfrwt>
<totfact> 0.14086019E+04</totfact>
</mgrwt>
</event>
<event>
 7    1  0.3747691E-009  0.9206523E+02  0.7818608E-02  0.1297926E+00
         -1   -1    0    0    0  501 -0.00000000000E+00  0.00000000000E+00  0.50317689651E+01  0.50317714892E+01  0.50400000000E-02 0.  1.
          1   -1    0    0  501    0  0.00000000000E+00 -0.00000000000E+00 -0.42112449353E+03  0.42112449356E+03  0.50400000000E-02 0. -1.
         23    2    1    2    0    0  0.00000000000E+00  0.00000000000E+00 -0.41609272456E+03  0.42615626505E+03  0.92065231249E+02 0.  0.
    9000005    2    3    3    0    0 -0.17048455992E+02 -0.41610303461E+02 -0.22592058301E+03  0.23074001539E+03  0.13370776735E+02 0.  0.
         22    1    3    3    0    0  0.17048455992E+02  0.41610303461E+02 -0.19017214156E+03  0.19541624966E+03  0.00000000000E+00 0. -1.
         22    1    4    4    0    0 -0.17289873194E+02 -0.41949699349E+02 -0.21144408860E+03  0.21625753072E+03  0.00000000000E+00 0.  1.
         22    1    4    4    0    0  0.24141720195E+00  0.33939588808E+00 -0.14476494411E+02  0.14482484671E+02  0.00000000000E+00 0.  1.
<mgrwt>
<rscale>  0 0.92065231E+02</rscale>
<asrwt>0</asrwt>
<pdfrwt beam="2">  1        1 0.64788356E-01 0.92065231E+02</pdfrwt>
<pdfrwt beam="1">  1       -1 0.77411883E-03 0.92065231E+02</pdfrwt>
<totfact> 0.13254592E+05</totfact>
</mgrwt>
</event>
<event>
 7    1  0.3301067E-009  0.9125457E+02  0.7818608E-02  0.1299842E+00
         -1   -1    0    0    0  501 -0.00000000000E+00  0.00000000000E+00  0.28409317029E+02  0.28409317476E+02  0.50400000000E-02 0.  1.
          1   -1    0    0  501    0  0.00000000000E+00 -0.00000000000E+00 -0.73280510815E+02  0.73280510988E+02  0.50400000000E-02 0. -1.
         23    2    1    2    0    0  0.00000000000E+00  0.00000000000E+00 -0.44871193786E+02  0.10168982846E+03  0.91254573481E+02 0.  0.
    9000005    2    3    3    0    0 -0.36631996902E+02  0.16043590719E+01  0.77674334076E+01  0.37539206971E+02  0.20932924282E+01 0.  0.
         22    1    3    3    0    0  0.36631996902E+02 -0.16043590719E+01 -0.52638627193E+02  0.64150621493E+02  0.00000000000E+00 0. -1.
         22    1    4    4    0    0 -0.22376491727E+02  0.83607318645E+00  0.57735185446E+01  0.23124444140E+02  0.00000000000E+00 0. -1.
         22    1    4    4    0    0 -0.14255505175E+02  0.76828588541E+00  0.19939148630E+01  0.14414762831E+02  0.00000000000E+00 0. -1.
<mgrwt>
<rscale>  0 0.91254573E+02</rscale>
<asrwt>0</asrwt>
<pdfrwt beam="2">  1        1 0.11273925E-01 0.91254573E+02</pdfrwt>
<pdfrwt beam="1">  1       -1 0.43706642E-02 0.91254573E+02</pdfrwt>
<totfact> 0.99136368E+04</totfact>
</mgrwt>
</event>
<event>
 7    1  0.3301067E-009  0.9434663E+02  0.7818608E-02  0.1292654E+00
         -1   -1    0    0    0  501 -0.00000000000E+00  0.00000000000E+00  0.40510773244E+02  0.40510773557E+02  0.50400000000E-02 0.  1.
          1   -1    0    0  501    0  0.00000000000E+00 -0.00000000000E+00 -0.54931602424E+02  0.54931602655E+02  0.50400000000E-02 0. -1.
         23    2    1    2    0    0  0.00000000000E+00 -0.11102230246E-15 -0.14420829180E+02  0.95442376212E+02  0.94346631433E+02 0.  0.
    9000005    2    3    3    0    0 -0.40892583075E+02 -0.56597008188E+00 -0.28506864631E+02  0.52188011491E+02  0.15440969517E+02 0.  0.
         22    1    3    3    0    0  0.40892583075E+02  0.56597008188E+00  0.14086035451E+02  0.43254364721E+02  0.00000000000E+00 0.  1.
         22    1    4    4    0    0 -0.39462983674E+02  0.29092673060E+01 -0.27812555250E+02  0.48366611896E+02  0.00000000000E+00 0.  1.
         22    1    4    4    0    0 -0.14295994006E+01 -0.34752373879E+01 -0.69430938051E+00  0.38213995949E+01  0.00000000000E+00 0.  1.
<mgrwt>
<rscale>  0 0.94346631E+02</rscale>
<asrwt>0</asrwt>
<pdfrwt beam="2">  1        1 0.84510159E-02 0.94346631E+02</pdfrwt>
<pdfrwt beam="1">  1       -1 0.62324266E-02 0.94346631E+02</pdfrwt>
<totfact> 0.86438258E+04</totfact>
</mgrwt>
</event>
<event>
 7    1  0.3301067E-009  0.8934146E+02  0.7818608E-02  0.1304454E+00
          1   -1    0    0  501    0  0.00000000000E+00  0.00000000000E+00  0.15560307833E+03  0.15560307841E+03  0.50400000000E-02 0. -1.
         -1   -1    0    0    0  501 -0.00000000000E+00 -0.00000000000E+00 -0.12824129979E+02  0.12824130970E+02  0.50400000000E-02 0.  1.
         23    2    1    2    0    0  0.00000000000E+00  0.22204460493E-15  0.14277894835E+03  0.16842720938E+03  0.89341461641E+02 0.  0.
    9000005    2    3    3    0    0  0.35640447463E+02 -0.61925073790E+00  0.21626645244E+02  0.42139816841E+02  0.61177947022E+01 0.  0.
         22    1    3    3    0    0 -0.35640447463E+02  0.61925073790E+00  0.12115230311E+03  0.12628739254E+03  0.00000000000E+00 0. -1.
         22    1    4    4    0    0  0.29398016652E+02  0.10238518709E+01  0.19700892015E+02  0.35403626960E+02  0.00000000000E+00 0.  1.
         22    1    4    4    0    0  0.62424308106E+01 -0.16431026089E+01  0.19257532292E+01  0.67361898806E+01  0.00000000000E+00 0.  1.
<mgrwt>
<rscale>  0 0.89341462E+02</rscale>
<asrwt>0</asrwt>
<pdfrwt beam="1">  1        1 0.23938933E-01 0.89341462E+02</pdfrwt>
<pdfrwt beam="2">  1       -1 0.19729433E-02 0.89341462E+02</pdfrwt>
<totfact> 0.11924265E+05</totfact>
</mgrwt>
</event>
<event>
 7    1  0.3301067E-009  0.9016813E+02  0.7818608E-02  0.1302445E+00
          1   -1    0    0  501    0  0.00000000000E+00  0.00000000000E+00  0.11742695261E+03  0.11742695272E+03  0.50400000000E-02 0. -1.
         -1   -1    0    0    0  501 -0.00000000000E+00 -0.00000000000E+00 -0.17309252679E+02  0.17309253413E+02  0.50400000000E-02 0.  1.
         23    2    1    2    0    0  0.00000000000E+00 -0.44408920985E-15  0.10011769993E+03  0.13473620613E+03  0.90168128533E+02 0.  0.
    9000005    2    3    3    0    0  0.33921705325E+02  0.80541520017E+00  0.93164577307E+02  0.10009985673E+03  0.13748165902E+02 0.  0.
         22    1    3    3    0    0 -0.33921705325E+02 -0.80541520017E+00  0.69531226201E+01  0.34636349403E+02  0.00000000000E+00 0.  1.
         22    1    4    4    0    0  0.22922993079E+02 -0.56862881781E+01  0.55050430511E+02  0.59902816164E+02  0.00000000000E+00 0.  1.
         22    1    4    4    0    0  0.10998712246E+02  0.64917033783E+01  0.38114146797E+02  0.40197040561E+02  0.00000000000E+00 0.  1.
<mgrwt>
<rscale>  0 0.90168129E+02</rscale>
<asrwt>0</asrwt>
<pdfrwt beam="1">  1        1 0.18065685E-01 0.90168129E+02</pdfrwt>
<pdfrwt beam="2">  1       -1 0.26629620E-02 0.90168129E+02</pdfrwt>
<totfact> 0.11062009E+05</totfact>
</mgrwt>
</event>
<event>
 7    1  0.3301067E-009  0.9218385E+02  0.7818608E-02  0.1297648E+00
         -1   -1    0    0    0  501 -0.00000000000E+00  0.00000000000E+00  0.80453752469E+01  0.80453768255E+01  0.50400000000E-02 0.  1.
          1   -1    0    0  501    0  0.00000000000E+00 -0.00000000000E+00 -0.26406043417E+03  0.26406043422E+03  0.50400000000E-02 0. -1.
         23    2    1    2    0    0  0.88817841970E-15  0.00000000000E+00 -0.25601505892E+03  0.27210581104E+03  0.92183848955E+02 0.  0.
    9000005    2    3    3    0    0  0.54179137941E+01 -0.11531588234E+02 -0.25851118665E+03  0.25912266925E+03  0.12417438633E+02 0.  0.
         22    1    3    3    0    0 -0.54179137941E+01  0.11531588234E+02  0.24961277255E+01  0.12983141789E+02  0.00000000000E+00 0.  1.
         22    1    4    4    0    0 -0.38481701122E+01 -0.38828703437E+01 -0.10487158820E+03  0.10501397577E+03  0.00000000000E+00 0.  1.
         22    1    4    4    0    0  0.92660839063E+01 -0.76487178906E+01 -0.15363959845E+03  0.15410869349E+03  0.00000000000E+00 0.  1.
<mgrwt>
<rscale>  0 0.92183849E+02</rscale>
<asrwt>0</asrwt>
<pdfrwt beam="2">  1        1 0.40624676E-01 0.92183849E+02</pdfrwt>
<pdfrwt beam="1">  1       -1 0.12377504E-02 0.92183849E+02</pdfrwt>
<totfact> 0.12138207E+05</totfact>
</mgrwt>
</event>
<event>
 7    1  0.3301067E-009  0.9523158E+02  0.7818608E-02  0.1290655E+00
          1   -1    0    0  501    0  0.00000000000E+00  0.00000000000E+00  0.32528306091E+03  0.32528306095E+03  0.50400000000E-02 0. -1.
         -1   -1    0    0    0  501 -0.00000000000E+00 -0.00000000000E+00 -0.69701234427E+01  0.69701252648E+01  0.50400000000E-02 0.  1.
         23    2    1    2    0    0 -0.17763568394E-14  0.00000000000E+00  0.31831293747E+03  0.33225318621E+03  0.95231578745E+02 0.  0.
    9000005    2    3    3    0    0 -0.15172530866E+02 -0.44937121468E+02  0.15703078453E+03  0.16414166539E+03  0.58539257942E+01 0.  0.
         22    1    3    3    0    0  0.15172530866E+02  0.44937121468E+02  0.16128215293E+03  0.16811152082E+03  0.00000000000E+00 0.  1.
         22    1    4    4    0    0 -0.10614209565E+02 -0.34126367333E+02  0.12586649789E+03  0.13084206389E+03  0.00000000000E+00 0.  1.
         22    1    4    4    0    0 -0.45583213009E+01 -0.10810754135E+02  0.31164286644E+02  0.33299601500E+02  0.00000000000E+00 0.  1.
<mgrwt>
<rscale>  0 0.95231579E+02</rscale>
<asrwt>0</asrwt>
<pdfrwt beam="1">  1        1 0.50043531E-01 0.95231579E+02</pdfrwt>
<pdfrwt beam="2">  1       -1 0.10723272E-02 0.95231579E+02</pdfrwt>
<totfact> 0.11582357E+05</totfact>
</mgrwt>
</event>
<event>
 7    1  0.3301067E-009  0.9832000E+02  0.7818608E-02  0.1283869E+00
          1   -1    0    0  501    0  0.00000000000E+00  0.00000000000E+00  0.47829312050E+03  0.47829312053E+03  0.50400000000E-02 0. -1.
         -1   -1    0    0    0  501 -0.00000000000E+00 -0.00000000000E+00 -0.50527697440E+01  0.50527722577E+01  0.50400000000E-02 0.  1.
         23    2    1    2    0    0  0.35527136788E-14  0.00000000000E+00  0.47324035076E+03  0.48334589279E+03  0.98320000446E+02 0.  0.
    9000005    2    3    3    0    0  0.30729886363E+02 -0.37295887493E+02  0.21956427347E+03  0.22510789920E+03  0.11392408048E+02 0.  0.
         22    1    3    3    0    0 -0.30729886363E+02  0.37295887493E+02  0.25367607729E+03  0.25823799358E+03  0.00000000000E+00 0.  1.
         22    1    4    4    0    0  0.29008032315E+02 -0.35812977369E+02  0.21613497653E+03  0.22099403468E+03  0.00000000000E+00 0.  1.
         22    1    4    4    0    0  0.17218540473E+01 -0.14829101239E+01  0.34292969372E+01  0.41138645188E+01  0.00000000000E+00 0.  1.
<mgrwt>
<rscale>  0 0.98320000E+02</rscale>
<asrwt>0</asrwt>
<pdfrwt beam="1">  1        1 0.73583572E-01 0.98320000E+02</pdfrwt>
<pdfrwt beam="2">  1       -1 0.77734923E-03 0.98320000E+02</pdfrwt>
<totfact> 0.11331041E+05</totfact>
</mgrwt>
</event>
<event>
 7    1  0.3301067E-009  0.9337207E+02  0.7818608E-02  0.1294885E+00
          1   -1    0    0  501    0  0.00000000000E+00  0.00000000000E+00  0.32696682317E+02  0.32696682706E+02  0.50400000000E-02 0. -1.
         -1   -1    0    0    0  501 -0.00000000000E+00 -0.00000000000E+00 -0.66660757480E+02  0.66660757671E+02  0.50400000000E-02 0.  1.
         23    2    1    2    0    0  0.00000000000E+00 -0.88817841970E-15 -0.33964075163E+02  0.99357440376E+02  0.93372065183E+02 0.  0.
    9000005    2    3    3    0    0  0.19682411128E+02 -0.52942038758E+01  0.27070138575E+02  0.35009937324E+02  0.88021251119E+01 0.  0.
         22    1    3    3    0    0 -0.19682411128E+02  0.52942038758E+01 -0.61034213738E+02  0.64347503052E+02  0.00000000000E+00 0.  1.
         22    1    4    4    0    0  0.50018578005E+01 -0.16294986251E+01  0.14208815284E+02  0.15151378782E+02  0.00000000000E+00 0.  1.
         22    1    4    4    0    0  0.14680553328E+02 -0.36647052507E+01  0.12861323291E+02  0.19858558542E+02  0.00000000000E+00 0.  1.
<mgrwt>
<rscale>  0 0.93372065E+02</rscale>
<asrwt>0</asrwt>
<pdfrwt beam="1">  1        1 0.50302589E-02 0.93372065E+02</pdfrwt>
<pdfrwt beam="2">  1       -1 0.10255501E-01 0.93372065E+02</pdfrwt>
<totfact> 0.82091281E+04</totfact>
</mgrwt>
</event>
<event>
 7    1  0.3301067E-009  0.9106474E+02  0.7818608E-02  0.1300294E+00
         -1   -1    0    0    0  501 -0.00000000000E+00  0.00000000000E+00  0.31010232049E+02  0.31010232459E+02  0.50400000000E-02 0.  1.
          1   -1    0    0  501    0  0.00000000000E+00 -0.00000000000E+00 -0.66855247043E+02  0.66855247233E+02  0.50400000000E-02 0. -1.
         23    2    1    2    0    0  0.00000000000E+00  0.00000000000E+00 -0.35845014994E+02  0.97865479692E+02  0.91064740791E+02 0.  0.
    9000005    2    3    3    0    0  0.10589451546E+02  0.24640834927E+02  0.20665304292E+02  0.35313713803E+02  0.10034757154E+02 0.  0.
         22    1    3    3    0    0 -0.10589451546E+02 -0.24640834927E+02 -0.56510319286E+02  0.62551765888E+02  0.00000000000E+00 0. -1.
         22    1    4    4    0    0  0.30156825635E+01  0.71174139502E+01  0.81393728812E+00  0.77726711349E+01  0.00000000000E+00 0.  1.
         22    1    4    4    0    0  0.75737689824E+01  0.17523420977E+02  0.19851367004E+02  0.27541042669E+02  0.00000000000E+00 0.  1.
<mgrwt>
<rscale>  0 0.91064741E+02</rscale>
<asrwt>0</asrwt>
<pdfrwt beam="2">  1        1 0.10285423E-01 0.91064741E+02</pdfrwt>
<pdfrwt beam="1">  1       -1 0.47708050E-02 0.91064741E+02</pdfrwt>
<totfact> 0.98305680E+04</totfact>
</mgrwt>
</event>
<event>
 7    1  0.3301067E-009  0.9106032E+02  0.7818608E-02  0.1300304E+00
          1   -1    0    0  501    0  0.00000000000E+00  0.00000000000E+00  0.18111489259E+03  0.18111489267E+03  0.50400000000E-02 0. -1.
         -1   -1    0    0    0  501 -0.00000000000E+00 -0.00000000000E+00 -0.11445748417E+02  0.11445749527E+02  0.50400000000E-02 0.  1.
         23    2    1    2    0    0  0.00000000000E+00  0.00000000000E+00  0.16966914418E+03  0.19256064219E+03  0.91060323058E+02 0.  0.
    9000005    2    3    3    0    0  0.28840956627E+02  0.17814446568E+02  0.14773566016E+03  0.15218449816E+03  0.13606649530E+02 0.  0.
         22    1    3    3    0    0 -0.28840956627E+02 -0.17814446568E+02  0.21933484015E+02  0.40376144030E+02  0.00000000000E+00 0.  1.
         22    1    4    4    0    0  0.20730701384E+02  0.18707548631E+02  0.10339074050E+03  0.10709518933E+03  0.00000000000E+00 0. -1.
         22    1    4    4    0    0  0.81102552431E+01 -0.89310206365E+00  0.44344919661E+02  0.45089308835E+02  0.00000000000E+00 0. -1.
<mgrwt>
<rscale>  0 0.91060323E+02</rscale>
<asrwt>0</asrwt>
<pdfrwt beam="1">  1        1 0.27863829E-01 0.91060323E+02</pdfrwt>
<pdfrwt beam="2">  1       -1 0.17608845E-02 0.91060323E+02</pdfrwt>
<totfact> 0.11656344E+05</totfact>
</mgrwt>
</event>
<event>
 7    1  0.3301067E-009  0.9146554E+02  0.7818608E-02  0.1299341E+00
          1   -1    0    0  501    0  0.00000000000E+00  0.00000000000E+00  0.34089894385E+03  0.34089894389E+03  0.50400000000E-02 0. -1.
         -1   -1    0    0    0  501 -0.00000000000E+00 -0.00000000000E+00 -0.61352083760E+01  0.61352104461E+01  0.50400000000E-02 0.  1.
         23    2    1    2    0    0  0.00000000000E+00  0.00000000000E+00  0.33476373548E+03  0.34703415434E+03  0.91465543706E+02 0.  0.
    9000005    2    3    3    0    0  0.28747318902E+02  0.35943328596E+01  0.30069710558E+03  0.30231432825E+03  0.11656594179E+02 0.  0.
         22    1    3    3    0    0 -0.28747318902E+02 -0.35943328596E+01  0.34066629898E+02  0.44719826088E+02  0.00000000000E+00 0.  1.
         22    1    4    4    0    0  0.80428425626E+01  0.42857135817E+01  0.13852102583E+03  0.13882049292E+03  0.00000000000E+00 0. -1.
         22    1    4    4    0    0  0.20704476339E+02 -0.69138072215E+00  0.16217607975E+03  0.16349383533E+03  0.00000000000E+00 0. -1.
<mgrwt>
<rscale>  0 0.91465544E+02</rscale>
<asrwt>0</asrwt>
<pdfrwt beam="1">  1        1 0.52445995E-01 0.91465544E+02</pdfrwt>
<pdfrwt beam="2">  1       -1 0.94387831E-03 0.91465544E+02</pdfrwt>
<totfact> 0.13010968E+05</totfact>
</mgrwt>
</event>
<event>
 7    1  0.3301067E-009  0.8772037E+02  0.7818608E-02  0.1308468E+00
         -1   -1    0    0    0  501 -0.00000000000E+00  0.00000000000E+00  0.20267976103E+03  0.20267976109E+03  0.50400000000E-02 0.  1.
          1   -1    0    0  501    0  0.00000000000E+00 -0.00000000000E+00 -0.94914055229E+01  0.94914068611E+01  0.50400000000E-02 0. -1.
         23    2    1    2    0    0 -0.88817841970E-15  0.00000000000E+00  0.19318835550E+03  0.21217116795E+03  0.87720372817E+02 0.  0.
    9000005    2    3    3    0    0 -0.47404302802E+01  0.28522730150E+02  0.20814512036E+02  0.37389133043E+02  0.11343965090E+02 0.  0.
         22    1    3    3    0    0  0.47404302802E+01 -0.28522730150E+02  0.17237384347E+03  0.17478203491E+03  0.00000000000E+00 0.  1.
         22    1    4    4    0    0 -0.30067046803E+01  0.22476726363E+02  0.97970529282E+01  0.24702747764E+02  0.00000000000E+00 0.  1.
         22    1    4    4    0    0 -0.17337255998E+01  0.60460037876E+01  0.11017459108E+02  0.12686385279E+02  0.00000000000E+00 0.  1.
<mgrwt>
<rscale>  0 0.87720373E+02</rscale>
<asrwt>0</asrwt>
<pdfrwt beam="2">  1        1 0.14602165E-02 0.87720373E+02</pdfrwt>
<pdfrwt beam="1">  1       -1 0.31181499E-01 0.87720373E+02</pdfrwt>
<totfact> 0.76472918E+04</totfact>
</mgrwt>
</event>
<event>
 7    1  0.3301067E-009  0.9173686E+02  0.7818608E-02  0.1298699E+00
         -1   -1    0    0    0  501 -0.00000000000E+00  0.00000000000E+00  0.18744712187E+03  0.18744712194E+03  0.50400000000E-02 0.  1.
          1   -1    0    0  501    0  0.00000000000E+00 -0.00000000000E+00 -0.11224033003E+02  0.11224034134E+02  0.50400000000E-02 0. -1.
         23    2    1    2    0    0  0.44408920985E-15  0.00000000000E+00  0.17622308887E+03  0.19867115608E+03  0.91736858488E+02 0.  0.
    9000005    2    3    3    0    0  0.36095032969E+01 -0.32877471233E+02  0.22923669481E+02  0.41844281421E+02  0.11467023872E+02 0.  0.
         22    1    3    3    0    0 -0.36095032969E+01  0.32877471233E+02  0.15329941939E+03  0.15682687466E+03  0.00000000000E+00 0. -1.
         22    1    4    4    0    0  0.34679629234E+01 -0.90817871334E+01  0.12576952038E+02  0.15896079609E+02  0.00000000000E+00 0.  1.
         22    1    4    4    0    0  0.14154037348E+00 -0.23795684099E+02  0.10346717443E+02  0.25948201812E+02  0.00000000000E+00 0.  1.
<mgrwt>
<rscale>  0 0.91736858E+02</rscale>
<asrwt>0</asrwt>
<pdfrwt beam="2">  1        1 0.17267746E-02 0.91736858E+02</pdfrwt>
<pdfrwt beam="1">  1       -1 0.28838015E-01 0.91736858E+02</pdfrwt>
<totfact> 0.69574549E+04</totfact>
</mgrwt>
</event>
<event>
 7    1  0.3301067E-009  0.9161878E+02  0.7818608E-02  0.1298978E+00
         -1   -1    0    0    0  501 -0.00000000000E+00  0.00000000000E+00  0.13403790298E+02  0.13403791246E+02  0.50400000000E-02 0.  1.
          1   -1    0    0  501    0  0.00000000000E+00 -0.00000000000E+00 -0.15656020858E+03  0.15656020866E+03  0.50400000000E-02 0. -1.
         23    2    1    2    0    0 -0.35527136788E-14  0.00000000000E+00 -0.14315641828E+03  0.16996399991E+03  0.91618781748E+02 0.  0.
    9000005    2    3    3    0    0  0.21348329803E+02  0.63820205814E+01 -0.14504177374E+03  0.14760251656E+03  0.15902999534E+02 0.  0.
         22    1    3    3    0    0 -0.21348329803E+02 -0.63820205814E+01  0.18853554585E+01  0.22361483343E+02  0.00000000000E+00 0.  1.
         22    1    4    4    0    0  0.73393028767E+01 -0.50602484721E+01 -0.37122395869E+02  0.38177791403E+02  0.00000000000E+00 0.  1.
         22    1    4    4    0    0  0.14009026926E+02  0.11442269054E+02 -0.10791937787E+03  0.10942472516E+03  0.00000000000E+00 0.  1.
<mgrwt>
<rscale>  0 0.91618782E+02</rscale>
<asrwt>0</asrwt>
<pdfrwt beam="2">  1        1 0.24086185E-01 0.91618782E+02</pdfrwt>
<pdfrwt beam="1">  1       -1 0.20621218E-02 0.91618782E+02</pdfrwt>
<totfact> 0.11155758E+05</totfact>
</mgrwt>
</event>
<event>
 7    1  0.3301067E-009  0.9088824E+02  0.7818608E-02  0.1300715E+00
         -1   -1    0    0    0  501 -0.00000000000E+00  0.00000000000E+00  0.21243752561E+03  0.21243752567E+03  0.50400000000E-02 0.  1.
          1   -1    0    0  501    0  0.00000000000E+00 -0.00000000000E+00 -0.97212959166E+01  0.97212972231E+01  0.50400000000E-02 0. -1.
         23    2    1    2    0    0  0.00000000000E+00 -0.35527136788E-14  0.20271622970E+03  0.22215882290E+03  0.90888243509E+02 0.  0.
    9000005    2    3    3    0    0 -0.11949208113E+02 -0.30985517019E+02  0.17701460377E+03  0.18016525893E+03  0.47396979700E+01 0.  0.
         22    1    3    3    0    0  0.11949208113E+02  0.30985517019E+02  0.25701625923E+02  0.41993563966E+02  0.00000000000E+00 0. -1.
         22    1    4    4    0    0 -0.28565634056E+01 -0.69743908576E+01  0.30455018946E+02  0.31373719277E+02  0.00000000000E+00 0.  1.
         22    1    4    4    0    0 -0.90926447079E+01 -0.24011126161E+02  0.14655958483E+03  0.14879153965E+03  0.00000000000E+00 0.  1.
<mgrwt>
<rscale>  0 0.90888244E+02</rscale>
<asrwt>0</asrwt>
<pdfrwt beam="2">  1        1 0.14955842E-02 0.90888244E+02</pdfrwt>
<pdfrwt beam="1">  1       -1 0.32682695E-01 0.90888244E+02</pdfrwt>
<totfact> 0.68776375E+04</totfact>
</mgrwt>
</event>
<event>
 7    1  0.3301067E-009  0.9374464E+02  0.7818608E-02  0.1294029E+00
         -1   -1    0    0    0  501 -0.00000000000E+00  0.00000000000E+00  0.51361961563E+02  0.51361961810E+02  0.50400000000E-02 0.  1.
          1   -1    0    0  501    0  0.00000000000E+00 -0.00000000000E+00 -0.42775122514E+02  0.42775122811E+02  0.50400000000E-02 0. -1.
         23    2    1    2    0    0 -0.35527136788E-14  0.00000000000E+00  0.85868390490E+01  0.94137084621E+02  0.93744636626E+02 0.  0.
    9000005    2    3    3    0    0  0.27279924741E+02 -0.37874097390E+02  0.38958457282E+01  0.47226030857E+02  0.60397706578E+01 0.  0.
         22    1    3    3    0    0 -0.27279924741E+02  0.37874097390E+02  0.46909933208E+01  0.46911053764E+02  0.00000000000E+00 0. -1.
         22    1    4    4    0    0  0.10815910307E+02 -0.18036963634E+02 -0.68679338990E+00  0.21042520240E+02  0.00000000000E+00 0. -1.
         22    1    4    4    0    0  0.16464014434E+02 -0.19837133756E+02  0.45826391181E+01  0.26183510617E+02  0.00000000000E+00 0. -1.
<mgrwt>
<rscale>  0 0.93744637E+02</rscale>
<asrwt>0</asrwt>
<pdfrwt beam="2">  1        1 0.65807881E-02 0.93744637E+02</pdfrwt>
<pdfrwt beam="1">  1       -1 0.79018403E-02 0.93744637E+02</pdfrwt>
<totfact> 0.84678789E+04</totfact>
</mgrwt>
</event>
<event>
 7    1  0.3301067E-009  0.8839776E+02  0.7818608E-02  0.1306779E+00
          1   -1    0    0  501    0  0.00000000000E+00  0.00000000000E+00  0.11873430955E+02  0.11873432024E+02  0.50400000000E-02 0. -1.
         -1   -1    0    0    0  501 -0.00000000000E+00 -0.00000000000E+00 -0.16453046145E+03  0.16453046153E+03  0.50400000000E-02 0.  1.
         23    2    1    2    0    0  0.00000000000E+00  0.00000000000E+00 -0.15265703050E+03  0.17640389355E+03  0.88397764115E+02 0.  0.
    9000005    2    3    3    0    0 -0.13434846746E+02 -0.36605568669E+02 -0.37595437097E+02  0.54914663411E+02  0.90410509571E+01 0.  0.
         22    1    3    3    0    0  0.13434846746E+02  0.36605568669E+02 -0.11506159340E+03  0.12148923014E+03  0.00000000000E+00 0.  1.
         22    1    4    4    0    0 -0.13882515354E+02 -0.27558857163E+02 -0.30726636470E+02  0.43546997938E+02  0.00000000000E+00 0.  1.
         22    1    4    4    0    0  0.44766860774E+00 -0.90467115061E+01 -0.68688006267E+01  0.11367665473E+02  0.00000000000E+00 0.  1.
<mgrwt>
<rscale>  0 0.88397764E+02</rscale>
<asrwt>0</asrwt>
<pdfrwt beam="1">  1        1 0.18266819E-02 0.88397764E+02</pdfrwt>
<pdfrwt beam="2">  1       -1 0.25312377E-01 0.88397764E+02</pdfrwt>
<totfact> 0.79254411E+04</totfact>
</mgrwt>
</event>
<event>
 7    1  0.3301067E-009  0.9123743E+02  0.7818608E-02  0.1299882E+00
         -1   -1    0    0    0  501 -0.00000000000E+00  0.00000000000E+00  0.33426340153E+02  0.33426340533E+02  0.50400000000E-02 0.  1.
          1   -1    0    0  501    0  0.00000000000E+00 -0.00000000000E+00 -0.62258306099E+02  0.62258306303E+02  0.50400000000E-02 0. -1.
         23    2    1    2    0    0  0.00000000000E+00  0.00000000000E+00 -0.28831965946E+02  0.95684646836E+02  0.91237434093E+02 0.  0.
    9000005    2    3    3    0    0  0.30684077707E+02 -0.16322866616E+02 -0.44723115896E+02  0.57468455948E+02  0.97220231588E+01 0.  0.
         22    1    3    3    0    0 -0.30684077707E+02  0.16322866616E+02  0.15891149950E+02  0.38216190889E+02  0.00000000000E+00 0.  1.
         22    1    4    4    0    0  0.10441238782E+02 -0.10974589651E+02 -0.19211588087E+02  0.24465203905E+02  0.00000000000E+00 0. -1.
         22    1    4    4    0    0  0.20242838925E+02 -0.53482769654E+01 -0.25511527809E+02  0.33003252042E+02  0.00000000000E+00 0. -1.
<mgrwt>
<rscale>  0 0.91237434E+02</rscale>
<asrwt>0</asrwt>
<pdfrwt beam="2">  1        1 0.95782010E-02 0.91237434E+02</pdfrwt>
<pdfrwt beam="1">  1       -1 0.51425139E-02 0.91237434E+02</pdfrwt>
<totfact> 0.96734315E+04</totfact>
</mgrwt>
</event>
<event>
 7    1  0.3301067E-009  0.8975974E+02  0.7818608E-02  0.1303435E+00
          1   -1    0    0  501    0  0.00000000000E+00  0.00000000000E+00  0.48516556451E+02  0.48516556713E+02  0.50400000000E-02 0. -1.
         -1   -1    0    0    0  501 -0.00000000000E+00 -0.00000000000E+00 -0.41515784874E+02  0.41515785180E+02  0.50400000000E-02 0.  1.
         23    2    1    2    0    0  0.00000000000E+00  0.00000000000E+00  0.70007715766E+01  0.90032341893E+02  0.89759744786E+02 0.  0.
    9000005    2    3    3    0    0  0.17585681285E+02 -0.40060034439E+02 -0.52918963508E+00  0.45639066937E+02  0.12983907103E+02 0.  0.
         22    1    3    3    0    0 -0.17585681285E+02  0.40060034439E+02  0.75299612117E+01  0.44393274957E+02  0.00000000000E+00 0.  1.
         22    1    4    4    0    0  0.43321797488E+01 -0.25329982239E+02 -0.19611715284E+01  0.25772504251E+02  0.00000000000E+00 0. -1.
         22    1    4    4    0    0  0.13253501537E+02 -0.14730052200E+02  0.14319818933E+01  0.19866562685E+02  0.00000000000E+00 0. -1.
<mgrwt>
<rscale>  0 0.89759745E+02</rscale>
<asrwt>0</asrwt>
<pdfrwt beam="1">  1        1 0.74640857E-02 0.89759745E+02</pdfrwt>
<pdfrwt beam="2">  1       -1 0.63870439E-02 0.89759745E+02</pdfrwt>
<totfact> 0.97515678E+04</totfact>
</mgrwt>
</event>
<event>
 7    1  0.3301067E-009  0.9408491E+02  0.7818608E-02  0.1293251E+00
          1   -1    0    0  501    0  0.00000000000E+00  0.00000000000E+00  0.12775202347E+02  0.12775203341E+02  0.50400000000E-02 0. -1.
         -1   -1    0    0    0  501 -0.00000000000E+00 -0.00000000000E+00 -0.17322561934E+03  0.17322561941E+03  0.50400000000E-02 0.  1.
         23    2    1    2    0    0  0.00000000000E+00  0.00000000000E+00 -0.16045041699E+03  0.18600082275E+03  0.94084907143E+02 0.  0.
    9000005    2    3    3    0    0  0.11923283031E+02  0.44823264437E+02 -0.74341751780E+02  0.88194933679E+02  0.10018011572E+02 0.  0.
         22    1    3    3    0    0 -0.11923283031E+02 -0.44823264437E+02 -0.86108665213E+02  0.97805889075E+02  0.00000000000E+00 0.  1.
         22    1    4    4    0    0  0.28251053947E+01  0.21044024878E+02 -0.41733531920E+02  0.46824351465E+02  0.00000000000E+00 0.  1.
         22    1    4    4    0    0  0.90981776359E+01  0.23779239560E+02 -0.32608219860E+02  0.41370582214E+02  0.00000000000E+00 0.  1.
<mgrwt>
<rscale>  0 0.94084907E+02</rscale>
<asrwt>0</asrwt>
<pdfrwt beam="1">  1        1 0.19654160E-02 0.94084907E+02</pdfrwt>
<pdfrwt beam="2">  1       -1 0.26650094E-01 0.94084907E+02</pdfrwt>
<totfact> 0.66520748E+04</totfact>
</mgrwt>
</event>
<event>
 7    1  0.3301067E-009  0.7885136E+02  0.7818608E-02  0.1332343E+00
          1   -1    0    0  501    0  0.00000000000E+00  0.00000000000E+00  0.13550802485E+02  0.13550803422E+02  0.50400000000E-02 0. -1.
         -1   -1    0    0    0  501 -0.00000000000E+00 -0.00000000000E+00 -0.11470789498E+03  0.11470789509E+03  0.50400000000E-02 0.  1.
         23    2    1    2    0    0  0.35527136788E-14 -0.17763568394E-14 -0.10115709249E+03  0.12825869851E+03  0.78851356247E+02 0.  0.
    9000005    2    3    3    0    0 -0.21694876773E+02  0.78826923895E+01 -0.15662093324E+01  0.26027839538E+02  0.11924382660E+02 0.  0.
         22    1    3    3    0    0  0.21694876773E+02 -0.78826923895E+01 -0.99590883161E+02  0.10223085897E+03  0.00000000000E+00 0.  1.
         22    1    4    4    0    0 -0.14223819078E+02 -0.44330108808E+00  0.18040588107E+01  0.14344621752E+02  0.00000000000E+00 0.  1.
         22    1    4    4    0    0 -0.74710576954E+01  0.83259934776E+01 -0.33702681431E+01  0.11683217786E+02  0.00000000000E+00 0.  1.
<mgrwt>
<rscale>  0 0.78851356E+02</rscale>
<asrwt>0</asrwt>
<pdfrwt beam="1">  1        1 0.20847390E-02 0.78851356E+02</pdfrwt>
<pdfrwt beam="2">  1       -1 0.17647368E-01 0.78851356E+02</pdfrwt>
<totfact> 0.11516277E+05</totfact>
</mgrwt>
</event>
<event>
 7    1  0.3301067E-009  0.9181392E+02  0.7818608E-02  0.1298518E+00
          1   -1    0    0  501    0  0.00000000000E+00  0.00000000000E+00  0.84187864981E+02  0.84187865132E+02  0.50400000000E-02 0. -1.
         -1   -1    0    0    0  501 -0.00000000000E+00 -0.00000000000E+00 -0.25032690114E+02  0.25032690622E+02  0.50400000000E-02 0.  1.
         23    2    1    2    0    0  0.00000000000E+00  0.00000000000E+00  0.59155174866E+02  0.10922055575E+03  0.91813915534E+02 0.  0.
    9000005    2    3    3    0    0 -0.19533053360E+02 -0.17846654276E+02 -0.13073316428E+02  0.32298529017E+02  0.13124028795E+02 0.  0.
         22    1    3    3    0    0  0.19533053360E+02  0.17846654276E+02  0.72228491295E+02  0.76922026736E+02  0.00000000000E+00 0. -1.
         22    1    4    4    0    0  0.14897030328E+01 -0.13625874936E+01  0.82945162487E+00  0.21826245214E+01  0.00000000000E+00 0. -1.
         22    1    4    4    0    0 -0.21022756393E+02 -0.16484066783E+02 -0.13902768053E+02  0.30115904496E+02  0.00000000000E+00 0. -1.
<mgrwt>
<rscale>  0 0.91813916E+02</rscale>
<asrwt>0</asrwt>
<pdfrwt beam="1">  1        1 0.12951979E-01 0.91813916E+02</pdfrwt>
<pdfrwt beam="2">  1       -1 0.38511831E-02 0.91813916E+02</pdfrwt>
<totfact> 0.99640973E+04</totfact>
</mgrwt>
</event>
<event>
 7    1  0.3301067E-009  0.9174017E+02  0.7818608E-02  0.1298692E+00
         -1   -1    0    0    0  501 -0.00000000000E+00  0.00000000000E+00  0.49397858599E+01  0.49397884310E+01  0.50400000000E-02 0.  1.
          1   -1    0    0  501    0  0.00000000000E+00 -0.00000000000E+00 -0.42594237329E+03  0.42594237332E+03  0.50400000000E-02 0. -1.
         23    2    1    2    0    0  0.00000000000E+00  0.00000000000E+00 -0.42100258743E+03  0.43088216175E+03  0.91740169458E+02 0.  0.
    9000005    2    3    3    0    0  0.21044974523E+02 -0.39248385559E+02 -0.18060056526E+03  0.18638991446E+03  0.11887359614E+02 0.  0.
         22    1    3    3    0    0 -0.21044974523E+02  0.39248385559E+02 -0.24040202217E+03  0.24449224729E+03  0.00000000000E+00 0.  1.
         22    1    4    4    0    0  0.11506083250E+02 -0.14451721158E+02 -0.55305504995E+02  0.58309013702E+02  0.00000000000E+00 0.  1.
         22    1    4    4    0    0  0.95388912727E+01 -0.24796664401E+02 -0.12529506027E+03  0.12808090076E+03  0.00000000000E+00 0.  1.
<mgrwt>
<rscale>  0 0.91740169E+02</rscale>
<asrwt>0</asrwt>
<pdfrwt beam="2">  1        1 0.65529567E-01 0.91740169E+02</pdfrwt>
<pdfrwt beam="1">  1       -1 0.75996759E-03 0.91740169E+02</pdfrwt>
<totfact> 0.13403301E+05</totfact>
</mgrwt>
</event>
<event>
 7    1  0.3301067E-009  0.8874893E+02  0.7818608E-02  0.1305910E+00
         -1   -1    0    0    0  501 -0.00000000000E+00  0.00000000000E+00  0.87007839571E+01  0.87007854168E+01  0.50400000000E-02 0.  1.
          1   -1    0    0  501    0  0.00000000000E+00 -0.00000000000E+00 -0.22631214526E+03  0.22631214532E+03  0.50400000000E-02 0. -1.
         23    2    1    2    0    0  0.00000000000E+00 -0.88817841970E-15 -0.21761136131E+03  0.23501293074E+03  0.88748932634E+02 0.  0.
    9000005    2    3    3    0    0  0.38174152707E+02  0.62854631002E+01 -0.16360551873E+03  0.16857947521E+03  0.12469992819E+02 0.  0.
         22    1    3    3    0    0 -0.38174152707E+02 -0.62854631002E+01 -0.54005842578E+02  0.66433455531E+02  0.00000000000E+00 0.  1.
         22    1    4    4    0    0  0.13588653333E+02 -0.22747645554E+01 -0.73875325316E+02  0.75149116720E+02  0.00000000000E+00 0.  1.
         22    1    4    4    0    0  0.24585499374E+02  0.85602276556E+01 -0.89730193412E+02  0.93430358486E+02  0.00000000000E+00 0.  1.
<mgrwt>
<rscale>  0 0.88748933E+02</rscale>
<asrwt>0</asrwt>
<pdfrwt beam="2">  1        1 0.34817249E-01 0.88748933E+02</pdfrwt>
<pdfrwt beam="1">  1       -1 0.13385824E-02 0.88748933E+02</pdfrwt>
<totfact> 0.13035569E+05</totfact>
</mgrwt>
</event>
<event>
 7    1  0.3301067E-009  0.8899479E+02  0.7818608E-02  0.1305304E+00
         -1   -1    0    0    0  501 -0.00000000000E+00  0.00000000000E+00  0.48553342684E+02  0.48553342945E+02  0.50400000000E-02 0.  1.
          1   -1    0    0  501    0  0.00000000000E+00 -0.00000000000E+00 -0.40780261677E+02  0.40780261988E+02  0.50400000000E-02 0. -1.
         23    2    1    2    0    0  0.00000000000E+00  0.00000000000E+00  0.77730810071E+01  0.89333604933E+02  0.88994787387E+02 0.  0.
    9000005    2    3    3    0    0 -0.86031412244E+01 -0.33105578622E+02 -0.24532059922E+02  0.42284529434E+02  0.40207077237E+01 0.  0.
         22    1    3    3    0    0  0.86031412244E+01  0.33105578622E+02  0.32305140929E+02  0.47049075499E+02  0.00000000000E+00 0.  1.
         22    1    4    4    0    0 -0.35801284344E+01 -0.79791630542E+01 -0.74548286991E+01  0.11491685411E+02  0.00000000000E+00 0.  1.
         22    1    4    4    0    0 -0.50230127901E+01 -0.25126415568E+02 -0.17077231223E+02  0.30792844023E+02  0.00000000000E+00 0.  1.
<mgrwt>
<rscale>  0 0.88994787E+02</rscale>
<asrwt>0</asrwt>
<pdfrwt beam="2">  1        1 0.62738865E-02 0.88994787E+02</pdfrwt>
<pdfrwt beam="1">  1       -1 0.74697450E-02 0.88994787E+02</pdfrwt>
<totfact> 0.97343859E+04</totfact>
</mgrwt>
</event>
<event>
 7    1  0.3301067E-009  0.9104557E+02  0.7818608E-02  0.1300339E+00
         -1   -1    0    0    0  501 -0.00000000000E+00  0.00000000000E+00  0.25732766127E+02  0.25732766620E+02  0.50400000000E-02 0.  1.
          1   -1    0    0  501    0  0.00000000000E+00 -0.00000000000E+00 -0.80532499976E+02  0.80532500134E+02  0.50400000000E-02 0. -1.
         23    2    1    2    0    0  0.00000000000E+00  0.00000000000E+00 -0.54799733849E+02  0.10626526675E+03  0.91045571492E+02 0.  0.
    9000005    2    3    3    0    0  0.19451787603E+02  0.22102791251E+02 -0.67681999576E+02  0.74127155542E+02  0.68612462558E+01 0.  0.
         22    1    3    3    0    0 -0.19451787603E+02 -0.22102791251E+02  0.12882265727E+02  0.32138111212E+02  0.00000000000E+00 0.  1.
         22    1    4    4    0    0  0.93051429226E+01  0.62472307063E+01 -0.21251559840E+02  0.24025868807E+02  0.00000000000E+00 0.  1.
         22    1    4    4    0    0  0.10146644680E+02  0.15855560544E+02 -0.46430439736E+02  0.50101286735E+02  0.00000000000E+00 0.  1.
<mgrwt>
<rscale>  0 0.91045571E+02</rscale>
<asrwt>0</asrwt>
<pdfrwt beam="2">  1        1 0.12389615E-01 0.91045571E+02</pdfrwt>
<pdfrwt beam="1">  1       -1 0.39588872E-02 0.91045571E+02</pdfrwt>
<totfact> 0.10124966E+05</totfact>
</mgrwt>
</event>
<event>
 7    1  0.3301067E-009  0.8946637E+02  0.7818608E-02  0.1304149E+00
         -1   -1    0    0    0  501 -0.00000000000E+00  0.00000000000E+00  0.61215939586E+03  0.61215939588E+03  0.50400000000E-02 0.  1.
          1   -1    0    0  501    0  0.00000000000E+00 -0.00000000000E+00 -0.32688486900E+01  0.32688525754E+01  0.50400000000E-02 0. -1.
         23    2    1    2    0    0 -0.35527136788E-14  0.00000000000E+00  0.60889054717E+03  0.61542824845E+03  0.89466365550E+02 0.  0.
    9000005    2    3    3    0    0  0.25226009855E+02 -0.23300137645E+01  0.55791227690E+03  0.55850229148E+03  0.41134341773E+01 0.  0.
         22    1    3    3    0    0 -0.25226009855E+02  0.23300137645E+01  0.50978270269E+02  0.56925956970E+02  0.00000000000E+00 0. -1.
         22    1    4    4    0    0  0.62991749674E+01 -0.22008610612E+01  0.12860553502E+03  0.12877851930E+03  0.00000000000E+00 0.  1.
         22    1    4    4    0    0  0.18926834888E+02 -0.12915270323E+00  0.42930674188E+03  0.42972377219E+03  0.00000000000E+00 0.  1.
<mgrwt>
<rscale>  0 0.89466366E+02</rscale>
<asrwt>0</asrwt>
<pdfrwt beam="2">  1        1 0.50289991E-03 0.89466366E+02</pdfrwt>
<pdfrwt beam="1">  1       -1 0.94178404E-01 0.89466366E+02</pdfrwt>
<totfact> 0.43091819E+04</totfact>
</mgrwt>
</event>
<event>
 7    1  0.3301067E-009  0.9045100E+02  0.7818608E-02  0.1301763E+00
         -1   -1    0    0    0  501 -0.00000000000E+00  0.00000000000E+00  0.20298756669E+02  0.20298757295E+02  0.50400000000E-02 0.  1.
          1   -1    0    0  501    0  0.00000000000E+00 -0.00000000000E+00 -0.10076213156E+03  0.10076213169E+03  0.50400000000E-02 0. -1.
         23    2    1    2    0    0  0.17763568394E-14  0.00000000000E+00 -0.80463374893E+02  0.12106088898E+03  0.90451004098E+02 0.  0.
    9000005    2    3    3    0    0  0.98180021037E+01 -0.22056433778E+02  0.10911655473E+02  0.26550172074E+02  0.17227813886E+01 0.  0.
         22    1    3    3    0    0 -0.98180021037E+01  0.22056433778E+02 -0.91375030366E+02  0.94510716909E+02  0.00000000000E+00 0. -1.
         22    1    4    4    0    0  0.92037692451E+01 -0.20859882504E+02  0.10709647576E+02  0.25190089671E+02  0.00000000000E+00 0. -1.
         22    1    4    4    0    0  0.61423285867E+00 -0.11965512736E+01  0.20200789723E+00  0.13600824040E+01  0.00000000000E+00 0. -1.
<mgrwt>
<rscale>  0 0.90451004E+02</rscale>
<asrwt>0</asrwt>
<pdfrwt beam="2">  1        1 0.15501866E-01 0.90451004E+02</pdfrwt>
<pdfrwt beam="1">  1       -1 0.31228858E-02 0.90451004E+02</pdfrwt>
<totfact> 0.10688443E+05</totfact>
</mgrwt>
</event>
<event>
 7    1  0.3301067E-009  0.9018776E+02  0.7818608E-02  0.1302398E+00
         -1   -1    0    0    0  501 -0.00000000000E+00  0.00000000000E+00  0.62424686175E+03  0.62424686177E+03  0.50400000000E-02 0.  1.
          1   -1    0    0  501    0  0.00000000000E+00 -0.00000000000E+00 -0.32574563040E+01  0.32574602030E+01  0.50400000000E-02 0. -1.
         23    2    1    2    0    0  0.00000000000E+00  0.00000000000E+00  0.62098940545E+03  0.62750432197E+03  0.90187762025E+02 0.  0.
    9000005    2    3    3    0    0  0.29350658770E+02  0.32893345554E+02  0.36205439330E+03  0.36484337347E+03  0.91580624274E+01 0.  0.
         22    1    3    3    0    0 -0.29350658770E+02 -0.32893345554E+02  0.25893501215E+03  0.26266094850E+03  0.00000000000E+00 0. -1.
         22    1    4    4    0    0  0.66039235203E-01 -0.40876153959E+00  0.97617603743E+01  0.97705379986E+01  0.00000000000E+00 0. -1.
         22    1    4    4    0    0  0.29284619535E+02  0.33302107094E+02  0.35229263293E+03  0.35507283548E+03  0.00000000000E+00 0. -1.
<mgrwt>
<rscale>  0 0.90187762E+02</rscale>
<asrwt>0</asrwt>
<pdfrwt beam="2">  1        1 0.50114752E-03 0.90187762E+02</pdfrwt>
<pdfrwt beam="1">  1       -1 0.96037961E-01 0.90187762E+02</pdfrwt>
<totfact> 0.41578043E+04</totfact>
</mgrwt>
</event>
<event>
 7    1  0.3301067E-009  0.9155603E+02  0.7818608E-02  0.1299127E+00
          1   -1    0    0  501    0  0.00000000000E+00  0.00000000000E+00  0.61252297510E+02  0.61252297718E+02  0.50400000000E-02 0. -1.
         -1   -1    0    0    0  501 -0.00000000000E+00 -0.00000000000E+00 -0.34213025911E+02  0.34213026282E+02  0.50400000000E-02 0.  1.
         23    2    1    2    0    0  0.00000000000E+00  0.35527136788E-14  0.27039271599E+02  0.95465324000E+02  0.91556025895E+02 0.  0.
    9000005    2    3    3    0    0  0.37847744179E+02 -0.21960957055E+02  0.54044443631E+01  0.46651380052E+02  0.15244929244E+02 0.  0.
         22    1    3    3    0    0 -0.37847744179E+02  0.21960957055E+02  0.21634827236E+02  0.48813943948E+02  0.00000000000E+00 0. -1.
         22    1    4    4    0    0  0.16498207306E+02 -0.40956919816E+01  0.78141430766E+01  0.18708991666E+02  0.00000000000E+00 0.  1.
         22    1    4    4    0    0  0.21349536873E+02 -0.17865265074E+02 -0.24096987135E+01  0.27942388386E+02  0.00000000000E+00 0.  1.
<mgrwt>
<rscale>  0 0.91556026E+02</rscale>
<asrwt>0</asrwt>
<pdfrwt beam="1">  1        1 0.94234304E-02 0.91556026E+02</pdfrwt>
<pdfrwt beam="2">  1       -1 0.52635425E-02 0.91556026E+02</pdfrwt>
<totfact> 0.95566271E+04</totfact>
</mgrwt>
</event>
<event>
 7    1  0.3301067E-009  0.9079867E+02  0.7818608E-02  0.1300929E+00
          1   -1    0    0  501    0  0.00000000000E+00  0.00000000000E+00  0.15844349664E+02  0.15844350466E+02  0.50400000000E-02 0. -1.
         -1   -1    0    0    0  501 -0.00000000000E+00 -0.00000000000E+00 -0.13008421431E+03  0.13008421441E+03  0.50400000000E-02 0.  1.
         23    2    1    2    0    0  0.17763568394E-14  0.00000000000E+00 -0.11423986465E+03  0.14592856487E+03  0.90798674944E+02 0.  0.
    9000005    2    3    3    0    0  0.10820212975E+02 -0.13819428370E+02 -0.12427641807E+03  0.12571010761E+03  0.70957351969E+01 0.  0.
         22    1    3    3    0    0 -0.10820212975E+02  0.13819428370E+02  0.10036553426E+02  0.20218457260E+02  0.00000000000E+00 0. -1.
         22    1    4    4    0    0  0.10015176398E+02 -0.14053322165E+02 -0.12284574385E+03  0.12405191012E+03  0.00000000000E+00 0. -1.
         22    1    4    4    0    0  0.80503657708E+00  0.23389379477E+00 -0.14306742180E+01  0.16581974900E+01  0.00000000000E+00 0. -1.
<mgrwt>
<rscale>  0 0.90798675E+02</rscale>
<asrwt>0</asrwt>
<pdfrwt beam="1">  1        1 0.24375924E-02 0.90798675E+02</pdfrwt>
<pdfrwt beam="2">  1       -1 0.20012955E-01 0.90798675E+02</pdfrwt>
<totfact> 0.78049205E+04</totfact>
</mgrwt>
</event>
<event>
 7    1  0.3301067E-009  0.9180140E+02  0.7818608E-02  0.1298547E+00
         -1   -1    0    0    0  501 -0.00000000000E+00  0.00000000000E+00  0.14069662195E+02  0.14069663098E+02  0.50400000000E-02 0.  1.
          1   -1    0    0  501    0  0.00000000000E+00 -0.00000000000E+00 -0.14974589204E+03  0.14974589212E+03  0.50400000000E-02 0. -1.
         23    2    1    2    0    0  0.00000000000E+00 -0.88817841970E-15 -0.13567622984E+03  0.16381555522E+03  0.91801398616E+02 0.  0.
    9000005    2    3    3    0    0 -0.17124129640E+02  0.40290124226E+01 -0.14298851151E+03  0.14476461771E+03  0.14198991481E+02 0.  0.
         22    1    3    3    0    0  0.17124129640E+02 -0.40290124226E+01  0.73122816656E+01  0.19050937514E+02  0.00000000000E+00 0.  1.
         22    1    4    4    0    0 -0.23075050296E+01 -0.23812073920E+01 -0.62382438635E+01  0.70647303279E+01  0.00000000000E+00 0. -1.
         22    1    4    4    0    0 -0.14816624610E+02  0.64102198147E+01 -0.13675026765E+03  0.13769988738E+03  0.00000000000E+00 0. -1.
<mgrwt>
<rscale>  0 0.91801399E+02</rscale>
<asrwt>0</asrwt>
<pdfrwt beam="2">  1        1 0.23037829E-01 0.91801399E+02</pdfrwt>
<pdfrwt beam="1">  1       -1 0.21645636E-02 0.91801399E+02</pdfrwt>
<totfact> 0.11004954E+05</totfact>
</mgrwt>
</event>
<event>
 7    1  0.3301067E-009  0.9216462E+02  0.7818608E-02  0.1297693E+00
         -1   -1    0    0    0  501 -0.00000000000E+00  0.00000000000E+00  0.20642165153E+02  0.20642165768E+02  0.50400000000E-02 0.  1.
          1   -1    0    0  501    0  0.00000000000E+00 -0.00000000000E+00 -0.10287579174E+03  0.10287579186E+03  0.50400000000E-02 0. -1.
         23    2    1    2    0    0 -0.35527136788E-14  0.00000000000E+00 -0.82233626585E+02  0.12351795763E+03  0.92164616397E+02 0.  0.
    9000005    2    3    3    0    0  0.24269271772E+02 -0.41910295992E+01 -0.93034798513E+02  0.96625066441E+02  0.86236563531E+01 0.  0.
         22    1    3    3    0    0 -0.24269271772E+02  0.41910295992E+01  0.10801171928E+02  0.26892891188E+02  0.00000000000E+00 0.  1.
         22    1    4    4    0    0  0.13771651741E+02  0.55121662721E+00 -0.38655580082E+02  0.41039202026E+02  0.00000000000E+00 0. -1.
         22    1    4    4    0    0  0.10497620031E+02 -0.47422462264E+01 -0.54379218431E+02  0.55585864415E+02  0.00000000000E+00 0. -1.
<mgrwt>
<rscale>  0 0.92164616E+02</rscale>
<asrwt>0</asrwt>
<pdfrwt beam="2">  1        1 0.15827045E-01 0.92164616E+02</pdfrwt>
<pdfrwt beam="1">  1       -1 0.31757178E-02 0.92164616E+02</pdfrwt>
<totfact> 0.10190662E+05</totfact>
</mgrwt>
</event>
<event>
 7    1  0.3301067E-009  0.8992665E+02  0.7818608E-02  0.1303029E+00
          1   -1    0    0  501    0  0.00000000000E+00  0.00000000000E+00  0.70923877952E+01  0.70923895860E+01  0.50400000000E-02 0. -1.
         -1   -1    0    0    0  501 -0.00000000000E+00 -0.00000000000E+00 -0.28505216917E+03  0.28505216921E+03  0.50400000000E-02 0.  1.
         23    2    1    2    0    0 -0.35527136788E-14 -0.17763568394E-14 -0.27795978137E+03  0.29214455880E+03  0.89926654418E+02 0.  0.
    9000005    2    3    3    0    0  0.27708295855E+02  0.12156895918E+02 -0.24687104220E+03  0.24876196458E+03  0.46544352946E+01 0.  0.
         22    1    3    3    0    0 -0.27708295855E+02 -0.12156895918E+02 -0.31088739168E+02  0.43382594212E+02  0.00000000000E+00 0. -1.
         22    1    4    4    0    0  0.15326644688E+02  0.55298964236E+01 -0.11579346417E+03  0.11693422141E+03  0.00000000000E+00 0.  1.
         22    1    4    4    0    0  0.12381651167E+02  0.66269994947E+01 -0.13107757803E+03  0.13182774317E+03  0.00000000000E+00 0.  1.
<mgrwt>
<rscale>  0 0.89926654E+02</rscale>
<asrwt>0</asrwt>
<pdfrwt beam="1">  1        1 0.10911369E-02 0.89926654E+02</pdfrwt>
<pdfrwt beam="2">  1       -1 0.43854171E-01 0.89926654E+02</pdfrwt>
<totfact> 0.64060819E+04</totfact>
</mgrwt>
</event>
<event>
 7    1  0.3301067E-009  0.9159837E+02  0.7818608E-02  0.1299027E+00
          1   -1    0    0  501    0  0.00000000000E+00  0.00000000000E+00  0.80079866874E+02  0.80079867033E+02  0.50400000000E-02 0. -1.
         -1   -1    0    0    0  501 -0.00000000000E+00 -0.00000000000E+00 -0.26193416851E+02  0.26193417336E+02  0.50400000000E-02 0.  1.
         23    2    1    2    0    0 -0.35527136788E-14  0.44408920985E-15  0.53886450023E+02  0.10627328437E+03  0.91598370479E+02 0.  0.
    9000005    2    3    3    0    0 -0.30700508440E+02  0.39257481002E+01 -0.11213107298E+02  0.34190796343E+02  0.92381850303E+01 0.  0.
         22    1    3    3    0    0  0.30700508440E+02 -0.39257481002E+01  0.65099557321E+02  0.72082488026E+02  0.00000000000E+00 0. -1.
         22    1    4    4    0    0 -0.26275557434E+02  0.84138494555E+00 -0.11699977654E+02  0.28775029525E+02  0.00000000000E+00 0. -1.
         22    1    4    4    0    0 -0.44249510061E+01  0.30843631546E+01  0.48687035593E+00  0.54157668173E+01  0.00000000000E+00 0. -1.
<mgrwt>
<rscale>  0 0.91598370E+02</rscale>
<asrwt>0</asrwt>
<pdfrwt beam="1">  1        1 0.12319980E-01 0.91598370E+02</pdfrwt>
<pdfrwt beam="2">  1       -1 0.40297565E-02 0.91598370E+02</pdfrwt>
<totfact> 0.99490813E+04</totfact>
</mgrwt>
</event>
<event>
 7    1  0.3301067E-009  0.9032659E+02  0.7818608E-02  0.1302063E+00
         -1   -1    0    0    0  501 -0.00000000000E+00  0.00000000000E+00  0.28544373110E+02  0.28544373555E+02  0.50400000000E-02 0.  1.
          1   -1    0    0  501    0  0.00000000000E+00 -0.00000000000E+00 -0.71457977562E+02  0.71457977739E+02  0.50400000000E-02 0. -1.
         23    2    1    2    0    0  0.00000000000E+00  0.71054273576E-14 -0.42913604451E+02  0.10000235129E+03  0.90326589758E+02 0.  0.
    9000005    2    3    3    0    0 -0.17797052631E+02  0.35497027469E+02 -0.12354301505E+00  0.41626299704E+02  0.12488375503E+02 0.  0.
         22    1    3    3    0    0  0.17797052631E+02 -0.35497027469E+02 -0.42790061436E+02  0.58376051590E+02  0.00000000000E+00 0. -1.
         22    1    4    4    0    0 -0.39486655613E+01  0.11957388890E+01  0.19779135619E+01  0.45753571734E+01  0.00000000000E+00 0.  1.
         22    1    4    4    0    0 -0.13848387070E+02  0.34301288580E+02 -0.21014565770E+01  0.37050942531E+02  0.00000000000E+00 0.  1.
<mgrwt>
<rscale>  0 0.90326590E+02</rscale>
<asrwt>0</asrwt>
<pdfrwt beam="2">  1        1 0.10993535E-01 0.90326590E+02</pdfrwt>
<pdfrwt beam="1">  1       -1 0.43914421E-02 0.90326590E+02</pdfrwt>
<totfact> 0.10156738E+05</totfact>
</mgrwt>
</event>
<event>
 7    1  0.3301067E-009  0.8926642E+02  0.7818608E-02  0.1304638E+00
          1   -1    0    0  501    0  0.00000000000E+00  0.00000000000E+00  0.79294975660E+02  0.79294975820E+02  0.50400000000E-02 0. -1.
         -1   -1    0    0    0  501 -0.00000000000E+00 -0.00000000000E+00 -0.25122946401E+02  0.25122946907E+02  0.50400000000E-02 0.  1.
         23    2    1    2    0    0  0.00000000000E+00  0.00000000000E+00  0.54172029258E+02  0.10441792273E+03  0.89266420521E+02 0.  0.
    9000005    2    3    3    0    0 -0.40386913966E+02 -0.38462354833E+01  0.46975356228E+02  0.63214907670E+02  0.11980989601E+02 0.  0.
         22    1    3    3    0    0  0.40386913966E+02  0.38462354833E+01  0.71966730302E+01  0.41203015057E+02  0.00000000000E+00 0. -1.
         22    1    4    4    0    0 -0.50045977042E+01 -0.47545910824E+01  0.73199588216E+01  0.10061507426E+02  0.00000000000E+00 0. -1.
         22    1    4    4    0    0 -0.35382316262E+02  0.90835559909E+00  0.39655397406E+02  0.53153400243E+02  0.00000000000E+00 0. -1.
<mgrwt>
<rscale>  0 0.89266421E+02</rscale>
<asrwt>0</asrwt>
<pdfrwt beam="1">  1        1 0.12199227E-01 0.89266421E+02</pdfrwt>
<pdfrwt beam="2">  1       -1 0.38650688E-02 0.89266421E+02</pdfrwt>
<totfact> 0.10661193E+05</totfact>
</mgrwt>
</event>
<event>
 7    1  0.3301067E-009  0.9124828E+02  0.7818608E-02  0.1299857E+00
          1   -1    0    0  501    0  0.00000000000E+00  0.00000000000E+00  0.35501964932E+03  0.35501964936E+03  0.50400000000E-02 0. -1.
         -1   -1    0    0    0  501 -0.00000000000E+00 -0.00000000000E+00 -0.58632301526E+01  0.58632323188E+01  0.50400000000E-02 0.  1.
         23    2    1    2    0    0  0.00000000000E+00  0.35527136788E-14  0.34915641917E+03  0.36088288168E+03  0.91248283491E+02 0.  0.
    9000005    2    3    3    0    0  0.37868450113E+02  0.25355134890E+02  0.17748214632E+03  0.18326261724E+03  0.28934818050E+01 0.  0.
         22    1    3    3    0    0 -0.37868450113E+02 -0.25355134890E+02  0.17167427285E+03  0.17762026444E+03  0.00000000000E+00 0. -1.
         22    1    4    4    0    0  0.22889797048E+02  0.16281442385E+02  0.10460379060E+03  0.10830965415E+03  0.00000000000E+00 0. -1.
         22    1    4    4    0    0  0.14978653066E+02  0.90736925047E+01  0.72878355718E+02  0.74952963087E+02  0.00000000000E+00 0. -1.
<mgrwt>
<rscale>  0 0.91248283E+02</rscale>
<asrwt>0</asrwt>
<pdfrwt beam="1">  1        1 0.54618395E-01 0.91248283E+02</pdfrwt>
<pdfrwt beam="2">  1       -1 0.90203579E-03 0.91248283E+02</pdfrwt>
<totfact> 0.13189166E+05</totfact>
</mgrwt>
</event>
<event>
 7    1  0.3301067E-009  0.9054267E+02  0.7818608E-02  0.1301543E+00
         -1   -1    0    0    0  501 -0.00000000000E+00  0.00000000000E+00  0.22903512303E+03  0.22903512309E+03  0.50400000000E-02 0.  1.
          1   -1    0    0  501    0  0.00000000000E+00 -0.00000000000E+00 -0.89483819773E+01  0.89483833966E+01  0.50400000000E-02 0. -1.
         23    2    1    2    0    0  0.00000000000E+00  0.00000000000E+00  0.22008674105E+03  0.23798350648E+03  0.90542673753E+02 0.  0.
    9000005    2    3    3    0    0  0.50420232491E+01  0.19656083770E+02  0.21623991352E+03  0.21732965189E+03  0.77906201447E+01 0.  0.
         22    1    3    3    0    0 -0.50420232491E+01 -0.19656083770E+02  0.38468275335E+01  0.20653854597E+02  0.00000000000E+00 0. -1.
         22    1    4    4    0    0  0.23612171412E+01  0.26056212569E+01  0.67524502440E+02  0.67615996912E+02  0.00000000000E+00 0. -1.
         22    1    4    4    0    0  0.26808061079E+01  0.17050462513E+02  0.14871541108E+03  0.14971365498E+03  0.00000000000E+00 0. -1.
<mgrwt>
<rscale>  0 0.90542674E+02</rscale>
<asrwt>0</asrwt>
<pdfrwt beam="2">  1        1 0.13766740E-02 0.90542674E+02</pdfrwt>
<pdfrwt beam="1">  1       -1 0.35236179E-01 0.90542674E+02</pdfrwt>
<totfact> 0.67873898E+04</totfact>
</mgrwt>
</event>
<event>
 7    1  0.3301067E-009  0.9235551E+02  0.7818608E-02  0.1297246E+00
         -1   -1    0    0    0  501 -0.00000000000E+00  0.00000000000E+00  0.80521607570E+01  0.80521623343E+01  0.50400000000E-02 0.  1.
          1   -1    0    0  501    0  0.00000000000E+00 -0.00000000000E+00 -0.26482145421E+03  0.26482145425E+03  0.50400000000E-02 0. -1.
         23    2    1    2    0    0  0.35527136788E-14  0.00000000000E+00 -0.25676929345E+03  0.27287361659E+03  0.92355511864E+02 0.  0.
    9000005    2    3    3    0    0 -0.19063428198E+02 -0.36157697413E+02 -0.18668713245E+03  0.19174222521E+03  0.15562844490E+02 0.  0.
         22    1    3    3    0    0  0.19063428198E+02  0.36157697413E+02 -0.70082160998E+02  0.81131391379E+02  0.00000000000E+00 0.  1.
         22    1    4    4    0    0 -0.11741275957E+02 -0.75060602977E+01 -0.69313883385E+02  0.70700869388E+02  0.00000000000E+00 0.  1.
         22    1    4    4    0    0 -0.73221522414E+01 -0.28651637116E+02 -0.11737324907E+03  0.12104135582E+03  0.00000000000E+00 0.  1.
<mgrwt>
<rscale>  0 0.92355512E+02</rscale>
<asrwt>0</asrwt>
<pdfrwt beam="2">  1        1 0.40741756E-01 0.92355512E+02</pdfrwt>
<pdfrwt beam="1">  1       -1 0.12387943E-02 0.92355512E+02</pdfrwt>
<totfact> 0.12084779E+05</totfact>
</mgrwt>
</event>
<event>
 7    1  0.3301067E-009  0.8797045E+02  0.7818608E-02  0.1307842E+00
          1   -1    0    0  501    0  0.00000000000E+00  0.00000000000E+00  0.50892336082E+01  0.50892361038E+01  0.50400000000E-02 0. -1.
         -1   -1    0    0    0  501 -0.00000000000E+00 -0.00000000000E+00 -0.38015541056E+03  0.38015541059E+03  0.50400000000E-02 0.  1.
         23    2    1    2    0    0  0.71054273576E-14  0.00000000000E+00 -0.37506617695E+03  0.38524464670E+03  0.87970453651E+02 0.  0.
    9000005    2    3    3    0    0 -0.43146957817E+02 -0.38721320789E+01 -0.21392957212E+03  0.21838644704E+03  0.70799045393E+01 0.  0.
         22    1    3    3    0    0  0.43146957817E+02  0.38721320789E+01 -0.16113660483E+03  0.16685819966E+03  0.00000000000E+00 0. -1.
         22    1    4    4    0    0 -0.20957685430E+01  0.60317940579E+00 -0.19401298767E+02  0.19523484961E+02  0.00000000000E+00 0. -1.
         22    1    4    4    0    0 -0.41051189274E+02 -0.44753114847E+01 -0.19452827335E+03  0.19886296208E+03  0.00000000000E+00 0. -1.
<mgrwt>
<rscale>  0 0.87970454E+02</rscale>
<asrwt>0</asrwt>
<pdfrwt beam="1">  1        1 0.78295951E-03 0.87970454E+02</pdfrwt>
<pdfrwt beam="2">  1       -1 0.58485426E-01 0.87970454E+02</pdfrwt>
<totfact> 0.60008488E+04</totfact>
</mgrwt>
</event>
<event>
 7    1  0.3301067E-009  0.9188467E+02  0.7818608E-02  0.1298351E+00
         -1   -1    0    0    0  501 -0.00000000000E+00  0.00000000000E+00  0.15885236508E+02  0.15885237307E+02  0.50400000000E-02 0.  1.
          1   -1    0    0  501    0  0.00000000000E+00 -0.00000000000E+00 -0.13287168744E+03  0.13287168754E+03  0.50400000000E-02 0. -1.
         23    2    1    2    0    0  0.00000000000E+00  0.00000000000E+00 -0.11698645094E+03  0.14875692485E+03  0.91884672210E+02 0.  0.
    9000005    2    3    3    0    0  0.25189177531E+02 -0.36567769764E+02 -0.45332928673E+02  0.64460283734E+02  0.11329488371E+02 0.  0.
         22    1    3    3    0    0 -0.25189177531E+02  0.36567769764E+02 -0.71653522263E+02  0.84296641113E+02  0.00000000000E+00 0.  1.
         22    1    4    4    0    0  0.67735082711E+01 -0.12506566163E+02 -0.22088187932E+02  0.26271327671E+02  0.00000000000E+00 0.  1.
         22    1    4    4    0    0  0.18415669260E+02 -0.24061203601E+02 -0.23244740742E+02  0.38188956063E+02  0.00000000000E+00 0.  1.
<mgrwt>
<rscale>  0 0.91884672E+02</rscale>
<asrwt>0</asrwt>
<pdfrwt beam="2">  1        1 0.20441797E-01 0.91884672E+02</pdfrwt>
<pdfrwt beam="1">  1       -1 0.24438827E-02 0.91884672E+02</pdfrwt>
<totfact> 0.10741962E+05</totfact>
</mgrwt>
</event>
<event>
 7    1  0.5175677E-009  0.9133783E+02  0.7818608E-02  0.1299644E+00
         -1   -1    0    0    0  501 -0.00000000000E+00  0.00000000000E+00  0.56414013010E+02  0.56414013236E+02  0.50400000000E-02 0.  1.
          1   -1    0    0  501    0  0.00000000000E+00 -0.00000000000E+00 -0.36970416822E+02  0.36970417165E+02  0.50400000000E-02 0. -1.
         23    2    1    2    0    0 -0.35527136788E-14  0.35527136788E-14  0.19443596189E+02  0.93384430401E+02  0.91337825727E+02 0.  0.
    9000005    2    3    3    0    0 -0.25886748774E+02  0.25708439892E+02  0.35855227911E+02  0.53379564452E+02  0.15255585494E+02 0.  0.
         22    1    3    3    0    0  0.25886748774E+02 -0.25708439892E+02 -0.16411631723E+02  0.40004865949E+02  0.00000000000E+00 0. -1.
         22    1    4    4    0    0 -0.12855790348E+02  0.38741579997E+01  0.78501633707E+01  0.15553311886E+02  0.00000000000E+00 0.  1.
         22    1    4    4    0    0 -0.13030958425E+02  0.21834281893E+02  0.28005064541E+02  0.37826252566E+02  0.00000000000E+00 0.  1.
<mgrwt>
<rscale>  0 0.91337826E+02</rscale>
<asrwt>0</asrwt>
<pdfrwt beam="2">  1        1 0.56877565E-02 0.91337826E+02</pdfrwt>
<pdfrwt beam="1">  1       -1 0.86790790E-02 0.91337826E+02</pdfrwt>
<totfact> 0.89131388E+04</totfact>
</mgrwt>
</event>
<event>
 7    1  0.3301067E-009  0.9164521E+02  0.7818608E-02  0.1298916E+00
          1   -1    0    0  501    0  0.00000000000E+00  0.00000000000E+00  0.16798963108E+02  0.16798963864E+02  0.50400000000E-02 0. -1.
         -1   -1    0    0    0  501 -0.00000000000E+00 -0.00000000000E+00 -0.12499050839E+03  0.12499050849E+03  0.50400000000E-02 0.  1.
         23    2    1    2    0    0  0.00000000000E+00  0.00000000000E+00 -0.10819154528E+03  0.14178947235E+03  0.91645207187E+02 0.  0.
    9000005    2    3    3    0    0 -0.28685268037E+02  0.66904768695E+01 -0.15035299316E+01  0.31110026647E+02  0.98977811959E+01 0.  0.
         22    1    3    3    0    0  0.28685268037E+02 -0.66904768695E+01 -0.10668801535E+03  0.11067944571E+03  0.00000000000E+00 0.  1.
         22    1    4    4    0    0 -0.26107917996E+02  0.76687418282E+01 -0.38600616341E+01  0.27483323291E+02  0.00000000000E+00 0. -1.
         22    1    4    4    0    0 -0.25773500412E+01 -0.97826495866E+00  0.23565317025E+01  0.36267033556E+01  0.00000000000E+00 0. -1.
<mgrwt>
<rscale>  0 0.91645207E+02</rscale>
<asrwt>0</asrwt>
<pdfrwt beam="1">  1        1 0.25844560E-02 0.91645207E+02</pdfrwt>
<pdfrwt beam="2">  1       -1 0.19229308E-01 0.91645207E+02</pdfrwt>
<totfact> 0.76844286E+04</totfact>
</mgrwt>
</event>
<event>
 7    1  0.3301067E-009  0.9274961E+02  0.7818608E-02  0.1296326E+00
         -1   -1    0    0    0  501 -0.00000000000E+00  0.00000000000E+00  0.13117643974E+02  0.13117644942E+02  0.50400000000E-02 0.  1.
          1   -1    0    0  501    0  0.00000000000E+00 -0.00000000000E+00 -0.16394884150E+03  0.16394884158E+03  0.50400000000E-02 0. -1.
         23    2    1    2    0    0 -0.17763568394E-14  0.71054273576E-14 -0.15083119753E+03  0.17706648652E+03  0.92749611866E+02 0.  0.
    9000005    2    3    3    0    0  0.10720504810E+02 -0.44084921558E+02 -0.71028555198E+02  0.85268494958E+02  0.12932557626E+02 0.  0.
         22    1    3    3    0    0 -0.10720504810E+02  0.44084921558E+02 -0.79802642328E+02  0.91797991562E+02  0.00000000000E+00 0.  1.
         22    1    4    4    0    0  0.68631395052E+00 -0.17189138262E+02 -0.17567134885E+02  0.24587430307E+02  0.00000000000E+00 0. -1.
         22    1    4    4    0    0  0.10034190860E+02 -0.26895783296E+02 -0.53461420313E+02  0.60681064651E+02  0.00000000000E+00 0. -1.
<mgrwt>
<rscale>  0 0.92749612E+02</rscale>
<asrwt>0</asrwt>
<pdfrwt beam="2">  1        1 0.25222897E-01 0.92749612E+02</pdfrwt>
<pdfrwt beam="1">  1       -1 0.20180993E-02 0.92749612E+02</pdfrwt>
<totfact> 0.10885849E+05</totfact>
</mgrwt>
</event>
<event>
 7    1  0.3301067E-009  0.8971738E+02  0.7818608E-02  0.1303538E+00
          1   -1    0    0  501    0  0.00000000000E+00  0.00000000000E+00  0.93925274958E+03  0.93925274960E+03  0.50400000000E-02 0. -1.
         -1   -1    0    0    0  501 -0.00000000000E+00 -0.00000000000E+00 -0.21424470641E+01  0.21424529923E+01  0.50400000000E-02 0.  1.
         23    2    1    2    0    0  0.00000000000E+00  0.35527136788E-14  0.93711030252E+03  0.94139520259E+03  0.89717380535E+02 0.  0.
    9000005    2    3    3    0    0 -0.23495431768E+02  0.28341565150E+02  0.72700095539E+03  0.72808505895E+03  0.14905847722E+02 0.  0.
         22    1    3    3    0    0  0.23495431768E+02 -0.28341565150E+02  0.21010934713E+03  0.21331014364E+03  0.00000000000E+00 0.  1.
         22    1    4    4    0    0 -0.59047708202E+01 -0.41447252885E+00  0.92386115259E+02  0.92575549680E+02  0.00000000000E+00 0. -1.
         22    1    4    4    0    0 -0.17590660948E+02  0.28756037679E+02  0.63461484013E+03  0.63550950927E+03  0.00000000000E+00 0. -1.
<mgrwt>
<rscale>  0 0.89717381E+02</rscale>
<asrwt>0</asrwt>
<pdfrwt beam="1">  1        1 0.14450105E+00 0.89717381E+02</pdfrwt>
<pdfrwt beam="2">  1       -1 0.32960626E-03 0.89717381E+02</pdfrwt>
<totfact> 0.14405923E+05</totfact>
</mgrwt>
</event>
<event>
 7    1  0.3301067E-009  0.9038533E+02  0.7818608E-02  0.1301921E+00
         -1   -1    0    0    0  501 -0.00000000000E+00  0.00000000000E+00  0.17559685447E+02  0.17559686171E+02  0.50400000000E-02 0.  1.
          1   -1    0    0  501    0  0.00000000000E+00 -0.00000000000E+00 -0.11631055756E+03  0.11631055767E+03  0.50400000000E-02 0. -1.
         23    2    1    2    0    0  0.00000000000E+00  0.00000000000E+00 -0.98750872111E+02  0.13387024384E+03  0.90385327585E+02 0.  0.
    9000005    2    3    3    0    0 -0.16141451527E+02 -0.98905691404E+01  0.98578564077E+01  0.23624038798E+02  0.10126601644E+02 0.  0.
         22    1    3    3    0    0  0.16141451527E+02  0.98905691404E+01 -0.10860872852E+03  0.11024620504E+03  0.00000000000E+00 0. -1.
         22    1    4    4    0    0 -0.11362675724E+02 -0.11476113176E+02  0.90863338470E+01  0.18530327467E+02  0.00000000000E+00 0. -1.
         22    1    4    4    0    0 -0.47787758029E+01  0.15855440358E+01  0.77152256073E+00  0.50937113312E+01  0.00000000000E+00 0. -1.
<mgrwt>
<rscale>  0 0.90385328E+02</rscale>
<asrwt>0</asrwt>
<pdfrwt beam="2">  1        1 0.17893932E-01 0.90385328E+02</pdfrwt>
<pdfrwt beam="1">  1       -1 0.27014902E-02 0.90385328E+02</pdfrwt>
<totfact> 0.10972137E+05</totfact>
</mgrwt>
</event>
<event>
 7    1  0.3301067E-009  0.9107768E+02  0.7818608E-02  0.1300263E+00
          1   -1    0    0  501    0  0.00000000000E+00  0.00000000000E+00  0.16773662649E+03  0.16773662657E+03  0.50400000000E-02 0. -1.
         -1   -1    0    0    0  501 -0.00000000000E+00 -0.00000000000E+00 -0.12363345276E+02  0.12363346303E+02  0.50400000000E-02 0.  1.
         23    2    1    2    0    0  0.00000000000E+00  0.00000000000E+00  0.15537328122E+03  0.18009997287E+03  0.91077679550E+02 0.  0.
    9000005    2    3    3    0    0  0.16363212814E+02 -0.85707805475E+01  0.15952848507E+03  0.16116643829E+03  0.13567249855E+02 0.  0.
         22    1    3    3    0    0 -0.16363212814E+02  0.85707805475E+01 -0.41552038533E+01  0.18933534584E+02  0.00000000000E+00 0.  1.
         22    1    4    4    0    0  0.46462111205E+00  0.31156317248E+01  0.18976018306E+02  0.19235703901E+02  0.00000000000E+00 0.  1.
         22    1    4    4    0    0  0.15898591702E+02 -0.11686412272E+02  0.14055246677E+03  0.14193073439E+03  0.00000000000E+00 0.  1.
<mgrwt>
<rscale>  0 0.91077680E+02</rscale>
<asrwt>0</asrwt>
<pdfrwt beam="1">  1        1 0.25805636E-01 0.91077680E+02</pdfrwt>
<pdfrwt beam="2">  1       -1 0.19020531E-02 0.91077680E+02</pdfrwt>
<totfact> 0.11482256E+05</totfact>
</mgrwt>
</event>
<event>
 7    1  0.3301067E-009  0.9142430E+02  0.7818608E-02  0.1299439E+00
         -1   -1    0    0    0  501 -0.00000000000E+00  0.00000000000E+00  0.27893365481E+02  0.27893365936E+02  0.50400000000E-02 0.  1.
          1   -1    0    0  501    0  0.00000000000E+00 -0.00000000000E+00 -0.74913891572E+02  0.74913891742E+02  0.50400000000E-02 0. -1.
         23    2    1    2    0    0  0.71054273576E-14  0.00000000000E+00 -0.47020526092E+02  0.10280725768E+03  0.91424298506E+02 0.  0.
    9000005    2    3    3    0    0 -0.44106775254E+02  0.10612960459E+02 -0.19793527503E+02  0.49898354787E+02  0.63260988297E+01 0.  0.
         22    1    3    3    0    0  0.44106775254E+02 -0.10612960459E+02 -0.27226998589E+02  0.52908902891E+02  0.00000000000E+00 0. -1.
         22    1    4    4    0    0 -0.11712974208E+02  0.56826246884E+01 -0.49820075195E+01  0.13939382593E+02  0.00000000000E+00 0. -1.
         22    1    4    4    0    0 -0.32393801046E+02  0.49303357707E+01 -0.14811519983E+02  0.35958972194E+02  0.00000000000E+00 0. -1.
<mgrwt>
<rscale>  0 0.91424299E+02</rscale>
<asrwt>0</asrwt>
<pdfrwt beam="2">  1        1 0.11525214E-01 0.91424299E+02</pdfrwt>
<pdfrwt beam="1">  1       -1 0.42912871E-02 0.91424299E+02</pdfrwt>
<totfact> 0.98969733E+04</totfact>
</mgrwt>
</event>
<event>
 7    1  0.3301067E-009  0.9449359E+02  0.7818608E-02  0.1292321E+00
          1   -1    0    0  501    0  0.00000000000E+00  0.00000000000E+00  0.24773883987E+03  0.24773883992E+03  0.50400000000E-02 0. -1.
         -1   -1    0    0    0  501 -0.00000000000E+00 -0.00000000000E+00 -0.90105344239E+01  0.90105358334E+01  0.50400000000E-02 0.  1.
         23    2    1    2    0    0  0.00000000000E+00  0.00000000000E+00  0.23872830545E+03  0.25674937576E+03  0.94493587768E+02 0.  0.
    9000005    2    3    3    0    0 -0.26280985532E+02 -0.28418973892E+02  0.47044846227E+02  0.61196628865E+02  0.57863244306E+01 0.  0.
         22    1    3    3    0    0  0.26280985532E+02  0.28418973892E+02  0.19168345922E+03  0.19555274689E+03  0.00000000000E+00 0. -1.
         22    1    4    4    0    0 -0.18395442055E+02 -0.23248726241E+02  0.34169905039E+02  0.45238014662E+02  0.00000000000E+00 0.  1.
         22    1    4    4    0    0 -0.78855434771E+01 -0.51702476512E+01  0.12874941187E+02  0.15958614203E+02  0.00000000000E+00 0.  1.
<mgrwt>
<rscale>  0 0.94493588E+02</rscale>
<asrwt>0</asrwt>
<pdfrwt beam="1">  1        1 0.38113664E-01 0.94493588E+02</pdfrwt>
<pdfrwt beam="2">  1       -1 0.13862363E-02 0.94493588E+02</pdfrwt>
<totfact> 0.11218348E+05</totfact>
</mgrwt>
</event>
<event>
 7    1  0.3301067E-009  0.1017843E+03  0.7818608E-02  0.1276588E+00
          1   -1    0    0  501    0  0.00000000000E+00  0.00000000000E+00  0.23725731672E+02  0.23725732207E+02  0.50400000000E-02 0. -1.
         -1   -1    0    0    0  501 -0.00000000000E+00 -0.00000000000E+00 -0.10916455585E+03  0.10916455596E+03  0.50400000000E-02 0.  1.
         23    2    1    2    0    0  0.00000000000E+00  0.71054273576E-14 -0.85438824173E+02  0.13289028817E+03  0.10178426211E+03 0.  0.
    9000005    2    3    3    0    0 -0.17295905818E+02  0.39548260044E+02 -0.77425812469E+02  0.88987878360E+02  0.78021040685E+01 0.  0.
         22    1    3    3    0    0  0.17295905818E+02 -0.39548260044E+02 -0.80130117041E+01  0.43902409810E+02  0.00000000000E+00 0. -1.
         22    1    4    4    0    0 -0.10057452643E+02  0.31029945219E+02 -0.59748666903E+02  0.68072851054E+02  0.00000000000E+00 0.  1.
         22    1    4    4    0    0 -0.72384531752E+01  0.85183148245E+01 -0.17677145566E+02  0.20915027305E+02  0.00000000000E+00 0.  1.
<mgrwt>
<rscale>  0 0.10178426E+03</rscale>
<asrwt>0</asrwt>
<pdfrwt beam="1">  1        1 0.36501127E-02 0.10178426E+03</pdfrwt>
<pdfrwt beam="2">  1       -1 0.16794547E-01 0.10178426E+03</pdfrwt>
<totfact> 0.60201733E+04</totfact>
</mgrwt>
</event>
<event>
 7    1  0.3301067E-009  0.8907543E+02  0.7818608E-02  0.1305106E+00
          1   -1    0    0  501    0  0.00000000000E+00  0.00000000000E+00  0.69499227349E+03  0.69499227351E+03  0.50400000000E-02 0. -1.
         -1   -1    0    0    0  501 -0.00000000000E+00 -0.00000000000E+00 -0.28541418483E+01  0.28541462982E+01  0.50400000000E-02 0.  1.
         23    2    1    2    0    0  0.17763568394E-14  0.00000000000E+00  0.69213813165E+03  0.69784641981E+03  0.89075430756E+02 0.  0.
    9000005    2    3    3    0    0  0.12338021648E+02  0.40616411781E+02  0.44505641102E+03  0.44714481161E+03  0.78328717931E+01 0.  0.
         22    1    3    3    0    0 -0.12338021648E+02 -0.40616411781E+02  0.24708172063E+03  0.25070160820E+03  0.00000000000E+00 0. -1.
         22    1    4    4    0    0  0.32491030088E+01  0.11952872794E+02  0.96049955279E+02  0.96845349643E+02  0.00000000000E+00 0.  1.
         22    1    4    4    0    0  0.90889186392E+01  0.28663538987E+02  0.34900645574E+03  0.35029946197E+03  0.00000000000E+00 0.  1.
<mgrwt>
<rscale>  0 0.89075431E+02</rscale>
<asrwt>0</asrwt>
<pdfrwt beam="1">  1        1 0.10692193E+00 0.89075431E+02</pdfrwt>
<pdfrwt beam="2">  1       -1 0.43909893E-03 0.89075431E+02</pdfrwt>
<totfact> 0.15121551E+05</totfact>
</mgrwt>
</event>
<event>
 7    1  0.3301067E-009  0.9888198E+02  0.7818608E-02  0.1282665E+00
          1   -1    0    0  501    0  0.00000000000E+00  0.00000000000E+00  0.31467726953E+02  0.31467727356E+02  0.50400000000E-02 0. -1.
         -1   -1    0    0    0  501 -0.00000000000E+00 -0.00000000000E+00 -0.77679957772E+02  0.77679957935E+02  0.50400000000E-02 0.  1.
         23    2    1    2    0    0  0.00000000000E+00  0.44408920985E-15 -0.46212230819E+02  0.10914768529E+03  0.98881984847E+02 0.  0.
    9000005    2    3    3    0    0  0.46421606708E+02 -0.25153991385E+01 -0.38978627327E+02  0.62098585176E+02  0.13251720280E+02 0.  0.
         22    1    3    3    0    0 -0.46421606708E+02  0.25153991385E+01 -0.72336034919E+01  0.47049100115E+02  0.00000000000E+00 0. -1.
         22    1    4    4    0    0  0.33515395636E+02  0.42246600530E+01 -0.27082601684E+02  0.43296614316E+02  0.00000000000E+00 0.  1.
         22    1    4    4    0    0  0.12906211072E+02 -0.67400591915E+01 -0.11896025643E+02  0.18801970860E+02  0.00000000000E+00 0.  1.
<mgrwt>
<rscale>  0 0.98881985E+02</rscale>
<asrwt>0</asrwt>
<pdfrwt beam="1">  1        1 0.48411888E-02 0.98881985E+02</pdfrwt>
<pdfrwt beam="2">  1       -1 0.11950763E-01 0.98881985E+02</pdfrwt>
<totfact> 0.69109503E+04</totfact>
</mgrwt>
</event>
<event>
 7    1  0.3301067E-009  0.9995380E+02  0.7818608E-02  0.1280393E+00
         -1   -1    0    0    0  501 -0.00000000000E+00  0.00000000000E+00  0.36644063662E+01  0.36644098322E+01  0.50400000000E-02 0.  1.
          1   -1    0    0  501    0  0.00000000000E+00 -0.00000000000E+00 -0.68160814372E+03  0.68160814374E+03  0.50400000000E-02 0. -1.
         23    2    1    2    0    0  0.00000000000E+00  0.00000000000E+00 -0.67794373735E+03  0.68527255357E+03  0.99953797628E+02 0.  0.
    9000005    2    3    3    0    0 -0.80926108017E+01 -0.82520076888E+01 -0.67212343979E+03  0.67233184864E+03  0.12108277800E+02 0.  0.
         22    1    3    3    0    0  0.80926108017E+01  0.82520076888E+01 -0.58202975595E+01  0.12940704933E+02  0.00000000000E+00 0.  1.
         22    1    4    4    0    0 -0.79567314782E+01 -0.79954076946E+01 -0.67180961900E+03  0.67190430889E+03  0.00000000000E+00 0.  1.
         22    1    4    4    0    0 -0.13587932345E+00 -0.25659999415E+00 -0.31382079428E+00  0.42753975074E+00  0.00000000000E+00 0.  1.
<mgrwt>
<rscale>  0 0.99953798E+02</rscale>
<asrwt>0</asrwt>
<pdfrwt beam="2">  1        1 0.10486269E+00 0.99953798E+02</pdfrwt>
<pdfrwt beam="1">  1       -1 0.56375564E-03 0.99953798E+02</pdfrwt>
<totfact> 0.11137565E+05</totfact>
</mgrwt>
</event>
<event>
 7    1  0.3301067E-009  0.9193488E+02  0.7818608E-02  0.1298233E+00
         -1   -1    0    0    0  501 -0.00000000000E+00  0.00000000000E+00  0.34888393603E+02  0.34888393967E+02  0.50400000000E-02 0.  1.
          1   -1    0    0  501    0  0.00000000000E+00 -0.00000000000E+00 -0.60564715836E+02  0.60564716046E+02  0.50400000000E-02 0. -1.
         23    2    1    2    0    0  0.00000000000E+00  0.00000000000E+00 -0.25676322234E+02  0.95453110012E+02  0.91934882866E+02 0.  0.
    9000005    2    3    3    0    0 -0.10409302297E+02 -0.20078808134E+02 -0.53489909738E+02  0.59604710323E+02  0.13417858942E+02 0.  0.
         22    1    3    3    0    0  0.10409302297E+02  0.20078808134E+02  0.27813587504E+02  0.35848399689E+02  0.00000000000E+00 0.  1.
         22    1    4    4    0    0 -0.40749754013E+01 -0.31342327945E+01 -0.27267490358E+02  0.27747880462E+02  0.00000000000E+00 0. -1.
         22    1    4    4    0    0 -0.63343268962E+01 -0.16944575340E+02 -0.26222419380E+02  0.31856829861E+02  0.00000000000E+00 0. -1.
<mgrwt>
<rscale>  0 0.91934883E+02</rscale>
<asrwt>0</asrwt>
<pdfrwt beam="2">  1        1 0.93176486E-02 0.91934883E+02</pdfrwt>
<pdfrwt beam="1">  1       -1 0.53674452E-02 0.91934883E+02</pdfrwt>
<totfact> 0.94314221E+04</totfact>
</mgrwt>
</event>
<event>
 7    1  0.3301067E-009  0.9013253E+02  0.7818608E-02  0.1302531E+00
          1   -1    0    0  501    0  0.00000000000E+00  0.00000000000E+00  0.14244023969E+03  0.14244023977E+03  0.50400000000E-02 0. -1.
         -1   -1    0    0    0  501 -0.00000000000E+00 -0.00000000000E+00 -0.14258388629E+02  0.14258389520E+02  0.50400000000E-02 0.  1.
         23    2    1    2    0    0  0.00000000000E+00  0.00000000000E+00  0.12818185106E+03  0.15669862929E+03  0.90132532877E+02 0.  0.
    9000005    2    3    3    0    0 -0.33249164227E+02  0.13667715787E+02  0.11048010646E+03  0.11662787764E+03  0.10192867211E+02 0.  0.
         22    1    3    3    0    0  0.33249164227E+02 -0.13667715787E+02  0.17701744593E+02  0.40070751655E+02  0.00000000000E+00 0. -1.
         22    1    4    4    0    0 -0.17810337218E+02  0.12181076138E+02  0.57134817291E+02  0.61073513691E+02  0.00000000000E+00 0. -1.
         22    1    4    4    0    0 -0.15438827009E+02  0.14866396486E+01  0.53345289171E+02  0.55554363948E+02  0.00000000000E+00 0. -1.
<mgrwt>
<rscale>  0 0.90132533E+02</rscale>
<asrwt>0</asrwt>
<pdfrwt beam="1">  1        1 0.21913883E-01 0.90132533E+02</pdfrwt>
<pdfrwt beam="2">  1       -1 0.21935984E-02 0.90132533E+02</pdfrwt>
<totfact> 0.11458334E+05</totfact>
</mgrwt>
</event>
<event>
 7    1  0.3301067E-009  0.8972768E+02  0.7818608E-02  0.1303512E+00
         -1   -1    0    0    0  501 -0.00000000000E+00  0.00000000000E+00  0.34765544934E+02  0.34765545300E+02  0.50400000000E-02 0.  1.
          1   -1    0    0  501    0  0.00000000000E+00 -0.00000000000E+00 -0.57895374542E+02  0.57895374761E+02  0.50400000000E-02 0. -1.
         23    2    1    2    0    0  0.00000000000E+00  0.00000000000E+00 -0.23129829607E+02  0.92660920061E+02  0.89727682957E+02 0.  0.
    9000005    2    3    3    0    0  0.11310719331E+02  0.19364823461E+02 -0.51632581265E+02  0.56393364153E+02  0.33703579819E+01 0.  0.
         22    1    3    3    0    0 -0.11310719331E+02 -0.19364823461E+02  0.28502751658E+02  0.36267555908E+02  0.00000000000E+00 0.  1.
         22    1    4    4    0    0  0.60735415205E+01  0.10463471157E+02 -0.23632702782E+02  0.26549515552E+02  0.00000000000E+00 0.  1.
         22    1    4    4    0    0  0.52371778108E+01  0.89013523041E+01 -0.27999878483E+02  0.29843848601E+02  0.00000000000E+00 0.  1.
<mgrwt>
<rscale>  0 0.89727683E+02</rscale>
<asrwt>0</asrwt>
<pdfrwt beam="2">  1        1 0.89069807E-02 0.89727683E+02</pdfrwt>
<pdfrwt beam="1">  1       -1 0.53485454E-02 0.89727683E+02</pdfrwt>
<totfact> 0.10020583E+05</totfact>
</mgrwt>
</event>
<event>
 7    1  0.3301067E-009  0.9177533E+02  0.7818608E-02  0.1298609E+00
          1   -1    0    0  501    0  0.00000000000E+00  0.00000000000E+00  0.12276503512E+03  0.12276503523E+03  0.50400000000E-02 0. -1.
         -1   -1    0    0    0  501 -0.00000000000E+00 -0.00000000000E+00 -0.17152096952E+02  0.17152097692E+02  0.50400000000E-02 0.  1.
         23    2    1    2    0    0  0.22204460493E-15  0.00000000000E+00  0.10561293817E+03  0.13991713292E+03  0.91775330972E+02 0.  0.
    9000005    2    3    3    0    0  0.16110661092E+01 -0.29094168911E+02  0.10625683316E+03  0.11077127902E+03  0.11432211715E+02 0.  0.
         22    1    3    3    0    0 -0.16110661092E+01  0.29094168911E+02 -0.64389498748E+00  0.29145853897E+02  0.00000000000E+00 0.  1.
         22    1    4    4    0    0 -0.44119375396E+00  0.14653439856E+00 -0.76948863289E-01  0.47121692039E+00  0.00000000000E+00 0.  1.
         22    1    4    4    0    0  0.20522598632E+01 -0.29240703309E+02  0.10633378202E+03  0.11030006210E+03  0.00000000000E+00 0.  1.
<mgrwt>
<rscale>  0 0.91775331E+02</rscale>
<asrwt>0</asrwt>
<pdfrwt beam="1">  1        1 0.18886929E-01 0.91775331E+02</pdfrwt>
<pdfrwt beam="2">  1       -1 0.26387841E-02 0.91775331E+02</pdfrwt>
<totfact> 0.10626394E+05</totfact>
</mgrwt>
</event>
<event>
 7    1  0.3301067E-009  0.9188077E+02  0.7818608E-02  0.1298360E+00
          1   -1    0    0  501    0  0.00000000000E+00  0.00000000000E+00  0.14762933011E+02  0.14762933871E+02  0.50400000000E-02 0. -1.
         -1   -1    0    0    0  501 -0.00000000000E+00 -0.00000000000E+00 -0.14296066220E+03  0.14296066229E+03  0.50400000000E-02 0.  1.
         23    2    1    2    0    0  0.00000000000E+00  0.00000000000E+00 -0.12819772919E+03  0.15772359616E+03  0.91880765216E+02 0.  0.
    9000005    2    3    3    0    0 -0.33194494551E+02  0.30996897613E+02 -0.66324337813E+02  0.80970754582E+02  0.97295005534E+01 0.  0.
         22    1    3    3    0    0  0.33194494551E+02 -0.30996897613E+02 -0.61873391378E+02  0.76752841581E+02  0.00000000000E+00 0. -1.
         22    1    4    4    0    0 -0.29126940888E+02  0.22401767868E+02 -0.55513244641E+02  0.66572803904E+02  0.00000000000E+00 0. -1.
         22    1    4    4    0    0 -0.40675536633E+01  0.85951297441E+01 -0.10811093172E+02  0.14397950677E+02  0.00000000000E+00 0. -1.
<mgrwt>
<rscale>  0 0.91880765E+02</rscale>
<asrwt>0</asrwt>
<pdfrwt beam="1">  1        1 0.22712206E-02 0.91880765E+02</pdfrwt>
<pdfrwt beam="2">  1       -1 0.21993947E-01 0.91880765E+02</pdfrwt>
<totfact> 0.74127012E+04</totfact>
</mgrwt>
</event>
<event>
 7    1  0.4049996E-009  0.9234044E+02  0.7818608E-02  0.1297281E+00
          1   -1    0    0  501    0  0.00000000000E+00  0.00000000000E+00  0.35391017749E+02  0.35391018108E+02  0.50400000000E-02 0. -1.
         -1   -1    0    0    0  501 -0.00000000000E+00 -0.00000000000E+00 -0.60232485696E+02  0.60232485907E+02  0.50400000000E-02 0.  1.
         23    2    1    2    0    0  0.00000000000E+00 -0.17763568394E-14 -0.24841467947E+02  0.95623504015E+02  0.92340435294E+02 0.  0.
    9000005    2    3    3    0    0  0.39046334109E+02 -0.13914863870E+02 -0.31127363021E+02  0.53697949507E+02  0.14011331440E+02 0.  0.
         22    1    3    3    0    0 -0.39046334109E+02  0.13914863870E+02  0.62858950745E+01  0.41925554508E+02  0.00000000000E+00 0. -1.
         22    1    4    4    0    0  0.33588146419E+02 -0.16361194145E+02 -0.24054480355E+02  0.44435011859E+02  0.00000000000E+00 0. -1.
         22    1    4    4    0    0  0.54581876897E+01  0.24463302744E+01 -0.70728826664E+01  0.92629376485E+01  0.00000000000E+00 0. -1.
<mgrwt>
<rscale>  0 0.92340435E+02</rscale>
<asrwt>0</asrwt>
<pdfrwt beam="1">  1        1 0.54447720E-02 0.92340435E+02</pdfrwt>
<pdfrwt beam="2">  1       -1 0.92665363E-02 0.92340435E+02</pdfrwt>
<totfact> 0.85819533E+04</totfact>
</mgrwt>
</event>
<event>
 7    1  0.3301067E-009  0.9189960E+02  0.7818608E-02  0.1298316E+00
         -1   -1    0    0    0  501 -0.00000000000E+00  0.00000000000E+00  0.10461973328E+03  0.10461973340E+03  0.50400000000E-02 0.  1.
          1   -1    0    0  501    0  0.00000000000E+00 -0.00000000000E+00 -0.20181506698E+02  0.20181507327E+02  0.50400000000E-02 0. -1.
         23    2    1    2    0    0 -0.35527136788E-14  0.00000000000E+00  0.84438226580E+02  0.12480124073E+03  0.91899595096E+02 0.  0.
    9000005    2    3    3    0    0 -0.24894689627E+02 -0.25121473452E+02  0.29897500941E+01  0.36005473249E+02  0.60515698959E+01 0.  0.
         22    1    3    3    0    0  0.24894689627E+02  0.25121473452E+02  0.81448476486E+02  0.88795767478E+02  0.00000000000E+00 0.  1.
         22    1    4    4    0    0 -0.22557890492E+02 -0.20150289587E+02  0.36760040700E+01  0.30469748929E+02  0.00000000000E+00 0. -1.
         22    1    4    4    0    0 -0.23367991344E+01 -0.49711838657E+01 -0.68625397582E+00  0.55357243194E+01  0.00000000000E+00 0. -1.
<mgrwt>
<rscale>  0 0.91899595E+02</rscale>
<asrwt>0</asrwt>
<pdfrwt beam="2">  1        1 0.31048473E-02 0.91899595E+02</pdfrwt>
<pdfrwt beam="1">  1       -1 0.16095344E-01 0.91899595E+02</pdfrwt>
<totfact> 0.79055114E+04</totfact>
</mgrwt>
</event>
<event>
 7    1  0.3301067E-009  0.9042700E+02  0.7818608E-02  0.1301821E+00
         -1   -1    0    0    0  501 -0.00000000000E+00  0.00000000000E+00  0.32096361086E+02  0.32096361482E+02  0.50400000000E-02 0.  1.
          1   -1    0    0  501    0  0.00000000000E+00 -0.00000000000E+00 -0.63691356206E+02  0.63691356405E+02  0.50400000000E-02 0. -1.
         23    2    1    2    0    0  0.00000000000E+00  0.00000000000E+00 -0.31594995120E+02  0.95787717887E+02  0.90427004713E+02 0.  0.
    9000005    2    3    3    0    0 -0.15061135557E+02  0.47270682165E+01  0.28098577297E+02  0.34042227638E+02  0.10961762550E+02 0.  0.
         22    1    3    3    0    0  0.15061135557E+02 -0.47270682165E+01 -0.59693572417E+02  0.61745490249E+02  0.00000000000E+00 0. -1.
         22    1    4    4    0    0 -0.80353263465E+01  0.67026545370E+01  0.97775716600E+01  0.14321066821E+02  0.00000000000E+00 0.  1.
         22    1    4    4    0    0 -0.70258092105E+01 -0.19755863204E+01  0.18321005637E+02  0.19721160816E+02  0.00000000000E+00 0.  1.
<mgrwt>
<rscale>  0 0.90427005E+02</rscale>
<asrwt>0</asrwt>
<pdfrwt beam="2">  1        1 0.97986702E-02 0.90427005E+02</pdfrwt>
<pdfrwt beam="1">  1       -1 0.49379018E-02 0.90427005E+02</pdfrwt>
<totfact> 0.99494021E+04</totfact>
</mgrwt>
</event>
<event>
 7    1  0.3301067E-009  0.8379353E+02  0.7818608E-02  0.1318618E+00
          1   -1    0    0  501    0  0.00000000000E+00  0.00000000000E+00  0.22757677690E+02  0.22757678248E+02  0.50400000000E-02 0. -1.
         -1   -1    0    0    0  501 -0.00000000000E+00 -0.00000000000E+00 -0.77131721692E+02  0.77131721857E+02  0.50400000000E-02 0.  1.
         23    2    1    2    0    0  0.00000000000E+00  0.00000000000E+00 -0.54374044002E+02  0.99889400104E+02  0.83793529536E+02 0.  0.
    9000005    2    3    3    0    0 -0.17006119463E+02  0.45397822569E+01  0.16894921468E+02  0.26479025080E+02  0.10289930789E+02 0.  0.
         22    1    3    3    0    0  0.17006119463E+02 -0.45397822569E+01 -0.71268965470E+02  0.73410375025E+02  0.00000000000E+00 0.  1.
         22    1    4    4    0    0 -0.78986515642E+01 -0.36542132191E+00  0.16847985679E+01  0.80846011336E+01  0.00000000000E+00 0. -1.
         22    1    4    4    0    0 -0.91074678985E+01  0.49052035788E+01  0.15210122900E+02  0.18394423946E+02  0.00000000000E+00 0. -1.
<mgrwt>
<rscale>  0 0.83793530E+02</rscale>
<asrwt>0</asrwt>
<pdfrwt beam="1">  1        1 0.35011813E-02 0.83793530E+02</pdfrwt>
<pdfrwt beam="2">  1       -1 0.11866419E-01 0.83793530E+02</pdfrwt>
<totfact> 0.10565960E+05</totfact>
</mgrwt>
</event>
<event>
 7    1  0.3301067E-009  0.9137618E+02  0.7818608E-02  0.1299553E+00
         -1   -1    0    0    0  501 -0.00000000000E+00  0.00000000000E+00  0.65153909082E+02  0.65153909277E+02  0.50400000000E-02 0.  1.
          1   -1    0    0  501    0  0.00000000000E+00 -0.00000000000E+00 -0.32038007238E+02  0.32038007634E+02  0.50400000000E-02 0. -1.
         23    2    1    2    0    0  0.71054273576E-14  0.00000000000E+00  0.33115901844E+02  0.97191916911E+02  0.91376177190E+02 0.  0.
    9000005    2    3    3    0    0  0.35509460540E+02  0.27334808000E+02  0.81956538371E+01  0.45916852045E+02  0.57510906465E+01 0.  0.
         22    1    3    3    0    0 -0.35509460540E+02 -0.27334808000E+02  0.24920248007E+02  0.51275064866E+02  0.00000000000E+00 0. -1.
         22    1    4    4    0    0  0.13976590369E+02  0.12074556387E+02  0.70940886275E+00  0.18483594110E+02  0.00000000000E+00 0. -1.
         22    1    4    4    0    0  0.21532870171E+02  0.15260251613E+02  0.74862449744E+01  0.27433257935E+02  0.00000000000E+00 0. -1.
<mgrwt>
<rscale>  0 0.91376177E+02</rscale>
<asrwt>0</asrwt>
<pdfrwt beam="2">  1        1 0.49289243E-02 0.91376177E+02</pdfrwt>
<pdfrwt beam="1">  1       -1 0.10023678E-01 0.91376177E+02</pdfrwt>
<totfact> 0.87054088E+04</totfact>
</mgrwt>
</event>
<event>
 7    1  0.3301067E-009  0.8941490E+02  0.7818608E-02  0.1304275E+00
          1   -1    0    0  501    0  0.00000000000E+00  0.00000000000E+00  0.38024834037E+03  0.38024834041E+03  0.50400000000E-02 0. -1.
         -1   -1    0    0    0  501 -0.00000000000E+00 -0.00000000000E+00 -0.52564480561E+01  0.52564504724E+01  0.50400000000E-02 0.  1.
         23    2    1    2    0    0  0.00000000000E+00  0.00000000000E+00  0.37499189232E+03  0.38550479088E+03  0.89414900811E+02 0.  0.
    9000005    2    3    3    0    0  0.71797702727E+01 -0.42292387426E+02  0.23901446136E+03  0.24292128248E+03  0.65300544524E+01 0.  0.
         22    1    3    3    0    0 -0.71797702727E+01  0.42292387426E+02  0.13597743096E+03  0.14258350840E+03  0.00000000000E+00 0.  1.
         22    1    4    4    0    0 -0.11552139048E+01 -0.37464451174E+01  0.18991237664E+02  0.19391685801E+02  0.00000000000E+00 0. -1.
         22    1    4    4    0    0  0.83349841775E+01 -0.38545942309E+02  0.22002322369E+03  0.22352959668E+03  0.00000000000E+00 0. -1.
<mgrwt>
<rscale>  0 0.89414901E+02</rscale>
<asrwt>0</asrwt>
<pdfrwt beam="1">  1        1 0.58499742E-01 0.89414901E+02</pdfrwt>
<pdfrwt beam="2">  1       -1 0.80868455E-03 0.89414901E+02</pdfrwt>
<totfact> 0.14085960E+05</totfact>
</mgrwt>
</event>
<event>
 6    1  0.3301067E-009  0.1330999E+03  0.7818608E-02  0.1222927E+00
         -1   -1    0    0    0  501 -0.00000000000E+00  0.00000000000E+00  0.22266621948E+03  0.22266621953E+03  0.50400000000E-02 0.  1.
          1   -1    0    0  501    0  0.00000000000E+00 -0.00000000000E+00 -0.19890290971E+02  0.19890291610E+02  0.50400000000E-02 0. -1.
    9000005    2    1    2    0    0 -0.40072271708E+02  0.38874695811E+02  0.37497257107E+02  0.68102883628E+02  0.10720519283E+02 0.  0.
         22    1    1    2    0    0  0.40072271708E+02 -0.38874695811E+02  0.16527867140E+03  0.17445362752E+03  0.00000000000E+00 0.  1.
         22    1    3    3    0    0 -0.27407976847E+02  0.24019114260E+02  0.18525846627E+02  0.40881805708E+02  0.00000000000E+00 0. -1.
         22    1    3    3    0    0 -0.12664294861E+02  0.14855581551E+02  0.18971410481E+02  0.27221077920E+02  0.00000000000E+00 0. -1.
<mgrwt>
<rscale>  0 0.13309990E+03</rscale>
<asrwt>0</asrwt>
<pdfrwt beam="2">  1        1 0.30600449E-02 0.13309990E+03</pdfrwt>
<pdfrwt beam="1">  1       -1 0.34256340E-01 0.13309990E+03</pdfrwt>
<totfact> 0.24815285E+04</totfact>
</mgrwt>
</event>
<event>
 7    1  0.3301067E-009  0.9230687E+02  0.7818608E-02  0.1297360E+00
         -1   -1    0    0    0  501 -0.00000000000E+00  0.00000000000E+00  0.49240997821E+01  0.49241023615E+01  0.50400000000E-02 0.  1.
          1   -1    0    0  501    0  0.00000000000E+00 -0.00000000000E+00 -0.43259464177E+03  0.43259464180E+03  0.50400000000E-02 0. -1.
         23    2    1    2    0    0  0.00000000000E+00  0.00000000000E+00 -0.42767054199E+03  0.43751874416E+03  0.92306874109E+02 0.  0.
    9000005    2    3    3    0    0  0.26727366991E+02  0.30501655212E+02 -0.31075799403E+03  0.31377203921E+03  0.15416180383E+02 0.  0.
         22    1    3    3    0    0 -0.26727366991E+02 -0.30501655212E+02 -0.11691254796E+03  0.12374670495E+03  0.00000000000E+00 0.  1.
         22    1    4    4    0    0  0.27304647656E+02  0.31723056572E+02 -0.29472811721E+03  0.29768533584E+03  0.00000000000E+00 0. -1.
         22    1    4    4    0    0 -0.57728066530E+00 -0.12214013603E+01 -0.16029876819E+02  0.16086703363E+02  0.00000000000E+00 0. -1.
<mgrwt>
<rscale>  0 0.92306874E+02</rscale>
<asrwt>0</asrwt>
<pdfrwt beam="2">  1        1 0.66552992E-01 0.92306874E+02</pdfrwt>
<pdfrwt beam="1">  1       -1 0.75755435E-03 0.92306874E+02</pdfrwt>
<totfact> 0.13216901E+05</totfact>
</mgrwt>
</event>
<event>
 7    1  0.3301067E-009  0.9200566E+02  0.7818608E-02  0.1298066E+00
         -1   -1    0    0    0  501 -0.00000000000E+00  0.00000000000E+00  0.42976555939E+01  0.42976585491E+01  0.50400000000E-02 0.  1.
          1   -1    0    0  501    0  0.00000000000E+00 -0.00000000000E+00 -0.49242186897E+03  0.49242186900E+03  0.50400000000E-02 0. -1.
         23    2    1    2    0    0  0.00000000000E+00 -0.17763568394E-14 -0.48812421338E+03  0.49671952755E+03  0.92005659394E+02 0.  0.
    9000005    2    3    3    0    0  0.41747653800E+02 -0.15685848547E+02 -0.27084105523E+03  0.27490680641E+03  0.15164516845E+02 0.  0.
         22    1    3    3    0    0 -0.41747653800E+02  0.15685848547E+02 -0.21728315815E+03  0.22181272114E+03  0.00000000000E+00 0. -1.
         22    1    4    4    0    0  0.20936915195E+01  0.26587973772E+01 -0.22111688526E+02  0.22369164427E+02  0.00000000000E+00 0.  1.
         22    1    4    4    0    0  0.39653962281E+02 -0.18344645924E+02 -0.24872936670E+03  0.25253764198E+03  0.00000000000E+00 0.  1.
<mgrwt>
<rscale>  0 0.92005659E+02</rscale>
<asrwt>0</asrwt>
<pdfrwt beam="2">  1        1 0.75757166E-01 0.92005659E+02</pdfrwt>
<pdfrwt beam="1">  1       -1 0.66117840E-03 0.92005659E+02</pdfrwt>
<totfact> 0.13571320E+05</totfact>
</mgrwt>
</event>
<event>
 7    1  0.3301067E-009  0.9110466E+02  0.7818608E-02  0.1300198E+00
         -1   -1    0    0    0  501 -0.00000000000E+00  0.00000000000E+00  0.38144546572E+02  0.38144546905E+02  0.50400000000E-02 0.  1.
          1   -1    0    0  501    0  0.00000000000E+00 -0.00000000000E+00 -0.54398731841E+02  0.54398732075E+02  0.50400000000E-02 0. -1.
         23    2    1    2    0    0  0.00000000000E+00 -0.35527136788E-14 -0.16254185269E+02  0.92543278980E+02  0.91104664785E+02 0.  0.
    9000005    2    3    3    0    0  0.19992795124E+02  0.28669936706E+02  0.20463671650E+02  0.41849313418E+02  0.10532143591E+02 0.  0.
         22    1    3    3    0    0 -0.19992795124E+02 -0.28669936706E+02 -0.36717856919E+02  0.50693965561E+02  0.00000000000E+00 0. -1.
         22    1    4    4    0    0  0.14757150470E+02  0.11993747083E+02  0.11143907488E+02  0.22041100998E+02  0.00000000000E+00 0. -1.
         22    1    4    4    0    0  0.52356446535E+01  0.16676189622E+02  0.93197641619E+01  0.19808212420E+02  0.00000000000E+00 0. -1.
<mgrwt>
<rscale>  0 0.91104665E+02</rscale>
<asrwt>0</asrwt>
<pdfrwt beam="2">  1        1 0.83690357E-02 0.91104665E+02</pdfrwt>
<pdfrwt beam="1">  1       -1 0.58683918E-02 0.91104665E+02</pdfrwt>
<totfact> 0.95168033E+04</totfact>
</mgrwt>
</event>
<event>
 7    1  0.3301067E-009  0.8922987E+02  0.7818608E-02  0.1304727E+00
          1   -1    0    0  501    0  0.00000000000E+00  0.00000000000E+00  0.27472154726E+02  0.27472155188E+02  0.50400000000E-02 0. -1.
         -1   -1    0    0    0  501 -0.00000000000E+00 -0.00000000000E+00 -0.72454913517E+02  0.72454913692E+02  0.50400000000E-02 0.  1.
         23    2    1    2    0    0  0.00000000000E+00  0.00000000000E+00 -0.44982758791E+02  0.99927068881E+02  0.89229874519E+02 0.  0.
    9000005    2    3    3    0    0  0.17122542383E+02 -0.28815078318E+02  0.83586795472E+01  0.36928662234E+02  0.13052523683E+02 0.  0.
         22    1    3    3    0    0 -0.17122542383E+02  0.28815078318E+02 -0.53341438338E+02  0.62998406647E+02  0.00000000000E+00 0.  1.
         22    1    4    4    0    0  0.74295384723E+00 -0.94043847259E+01 -0.17466180887E+01  0.95940141359E+01  0.00000000000E+00 0.  1.
         22    1    4    4    0    0  0.16379588536E+02 -0.19410693592E+02  0.10105297636E+02  0.27334648098E+02  0.00000000000E+00 0.  1.
<mgrwt>
<rscale>  0 0.89229875E+02</rscale>
<asrwt>0</asrwt>
<pdfrwt beam="1">  1        1 0.42264854E-02 0.89229875E+02</pdfrwt>
<pdfrwt beam="2">  1       -1 0.11146910E-01 0.89229875E+02</pdfrwt>
<totfact> 0.90924038E+04</totfact>
</mgrwt>
</event>
<event>
 7    1  0.3301067E-009  0.9936472E+02  0.7818608E-02  0.1281638E+00
         -1   -1    0    0    0  501 -0.00000000000E+00  0.00000000000E+00  0.19184334981E+02  0.19184335643E+02  0.50400000000E-02 0.  1.
          1   -1    0    0  501    0  0.00000000000E+00 -0.00000000000E+00 -0.12866419355E+03  0.12866419364E+03  0.50400000000E-02 0. -1.
         23    2    1    2    0    0  0.71054273576E-14  0.22204460493E-15 -0.10947985856E+03  0.14784852929E+03  0.99364723022E+02 0.  0.
    9000005    2    3    3    0    0  0.47638102869E+02  0.15827351635E+01 -0.75294867344E+02  0.89192689678E+02  0.37583171772E+01 0.  0.
         22    1    3    3    0    0 -0.47638102869E+02 -0.15827351635E+01 -0.34184991221E+02  0.58655839610E+02  0.00000000000E+00 0.  1.
         22    1    4    4    0    0  0.14653767594E+02 -0.11198322068E+01 -0.21947973842E+02  0.26414020607E+02  0.00000000000E+00 0. -1.
         22    1    4    4    0    0  0.32984335276E+02  0.27025673703E+01 -0.53346893502E+02  0.62778669071E+02  0.00000000000E+00 0. -1.
<mgrwt>
<rscale>  0 0.99364723E+02</rscale>
<asrwt>0</asrwt>
<pdfrwt beam="2">  1        1 0.19794491E-01 0.99364723E+02</pdfrwt>
<pdfrwt beam="1">  1       -1 0.29514363E-02 0.99364723E+02</pdfrwt>
<totfact> 0.86293210E+04</totfact>
</mgrwt>
</event>
<event>
 7    1  0.3301067E-009  0.8991503E+02  0.7818608E-02  0.1303058E+00
          1   -1    0    0  501    0  0.00000000000E+00  0.00000000000E+00  0.16908952690E+03  0.16908952697E+03  0.50400000000E-02 0. -1.
         -1   -1    0    0    0  501 -0.00000000000E+00 -0.00000000000E+00 -0.11953301504E+02  0.11953302566E+02  0.50400000000E-02 0.  1.
         23    2    1    2    0    0 -0.17763568394E-14  0.00000000000E+00  0.15713622539E+03  0.18104282954E+03  0.89915030982E+02 0.  0.
    9000005    2    3    3    0    0 -0.11503388176E+02  0.19684981312E+02  0.15607468091E+03  0.15821842800E+03  0.12407195860E+02 0.  0.
         22    1    3    3    0    0  0.11503388176E+02 -0.19684981312E+02  0.10615444811E+01  0.22824401536E+02  0.00000000000E+00 0.  1.
         22    1    4    4    0    0 -0.18176133657E+01  0.31590001762E+01  0.67582940905E+01  0.76783813056E+01  0.00000000000E+00 0. -1.
         22    1    4    4    0    0 -0.96857748101E+01  0.16525981136E+02  0.14931638682E+03  0.15054004670E+03  0.00000000000E+00 0. -1.
<mgrwt>
<rscale>  0 0.89915031E+02</rscale>
<asrwt>0</asrwt>
<pdfrwt beam="1">  1        1 0.26013777E-01 0.89915031E+02</pdfrwt>
<pdfrwt beam="2">  1       -1 0.18389693E-02 0.89915031E+02</pdfrwt>
<totfact> 0.11903388E+05</totfact>
</mgrwt>
</event>
<event>
 7    1  0.3301067E-009  0.9153853E+02  0.7818608E-02  0.1299168E+00
         -1   -1    0    0    0  501 -0.00000000000E+00  0.00000000000E+00  0.48597432077E+02  0.48597432338E+02  0.50400000000E-02 0.  1.
          1   -1    0    0  501    0  0.00000000000E+00 -0.00000000000E+00 -0.43105688850E+02  0.43105689145E+02  0.50400000000E-02 0. -1.
         23    2    1    2    0    0  0.00000000000E+00  0.00000000000E+00  0.54917432265E+01  0.91703121483E+02  0.91538534214E+02 0.  0.
    9000005    2    3    3    0    0  0.11673626237E+02  0.43194370638E+02 -0.68056327846E+01  0.45299967915E+02  0.19347483569E+01 0.  0.
         22    1    3    3    0    0 -0.11673626237E+02 -0.43194370638E+02  0.12297376011E+02  0.46403153568E+02  0.00000000000E+00 0. -1.
         22    1    4    4    0    0  0.37098707036E+00  0.51193090669E+00 -0.92953173536E-01  0.63901874156E+00  0.00000000000E+00 0.  1.
         22    1    4    4    0    0  0.11302639167E+02  0.42682439731E+02 -0.67126796111E+01  0.44660949174E+02  0.00000000000E+00 0.  1.
<mgrwt>
<rscale>  0 0.91538534E+02</rscale>
<asrwt>0</asrwt>
<pdfrwt beam="2">  1        1 0.66316445E-02 0.91538534E+02</pdfrwt>
<pdfrwt beam="1">  1       -1 0.74765281E-02 0.91538534E+02</pdfrwt>
<totfact> 0.90678373E+04</totfact>
</mgrwt>
</event>
<event>
 7    1  0.3301067E-009  0.8795014E+02  0.7818608E-02  0.1307893E+00
          1   -1    0    0  501    0  0.00000000000E+00  0.00000000000E+00  0.29781130382E+03  0.29781130386E+03  0.50400000000E-02 0. -1.
         -1   -1    0    0    0  501 -0.00000000000E+00 -0.00000000000E+00 -0.64933945070E+01  0.64933964630E+01  0.50400000000E-02 0.  1.
         23    2    1    2    0    0  0.00000000000E+00  0.00000000000E+00  0.29131790932E+03  0.30430470033E+03  0.87950135610E+02 0.  0.
    9000005    2    3    3    0    0  0.25102698237E+02 -0.35639387673E+02  0.15388864740E+03  0.16012733233E+03  0.76638989873E+01 0.  0.
         22    1    3    3    0    0 -0.25102698237E+02  0.35639387673E+02  0.13742926191E+03  0.14417736800E+03  0.00000000000E+00 0. -1.
         22    1    4    4    0    0  0.28024804081E+01 -0.64492740043E+01  0.34746352723E+02  0.35450755410E+02  0.00000000000E+00 0. -1.
         22    1    4    4    0    0  0.22300217829E+02 -0.29190113669E+02  0.11914229468E+03  0.12467657692E+03  0.00000000000E+00 0. -1.
<mgrwt>
<rscale>  0 0.87950136E+02</rscale>
<asrwt>0</asrwt>
<pdfrwt beam="1">  1        1 0.45817127E-01 0.87950136E+02</pdfrwt>
<pdfrwt beam="2">  1       -1 0.99898386E-03 0.87950136E+02</pdfrwt>
<totfact> 0.14080422E+05</totfact>
</mgrwt>
</event>
<event>
 7    1  0.3301067E-009  0.1022094E+03  0.7818608E-02  0.1275717E+00
         -1   -1    0    0    0  501 -0.00000000000E+00  0.00000000000E+00  0.90945738237E+02  0.90945738377E+02  0.50400000000E-02 0.  1.
          1   -1    0    0  501    0  0.00000000000E+00 -0.00000000000E+00 -0.28717030891E+02  0.28717031333E+02  0.50400000000E-02 0. -1.
         23    2    1    2    0    0  0.35527136788E-14  0.35527136788E-14  0.62228707346E+02  0.11966276971E+03  0.10220942440E+03 0.  0.
    9000005    2    3    3    0    0  0.25749462794E+02  0.18896063096E+02 -0.13788133567E+02  0.37208805966E+02  0.13201764254E+02 0.  0.
         22    1    3    3    0    0 -0.25749462794E+02 -0.18896063096E+02  0.76016840913E+02  0.82453963744E+02  0.00000000000E+00 0.  1.
         22    1    4    4    0    0  0.20846510631E+02  0.20639881026E+02 -0.12161939874E+02  0.31756802039E+02  0.00000000000E+00 0. -1.
         22    1    4    4    0    0  0.49029521636E+01 -0.17438179300E+01 -0.16261936928E+01  0.54520039269E+01  0.00000000000E+00 0. -1.
<mgrwt>
<rscale>  0 0.10220942E+03</rscale>
<asrwt>0</asrwt>
<pdfrwt beam="2">  1        1 0.44180048E-02 0.10220942E+03</pdfrwt>
<pdfrwt beam="1">  1       -1 0.13991652E-01 0.10220942E+03</pdfrwt>
<totfact> 0.61699827E+04</totfact>
</mgrwt>
</event>
<event>
 7    1  0.4156420E-009  0.9128600E+02  0.7818608E-02  0.1299767E+00
         -1   -1    0    0    0  501 -0.00000000000E+00  0.00000000000E+00  0.18038706323E+02  0.18038707027E+02  0.50400000000E-02 0.  1.
          1   -1    0    0  501    0  0.00000000000E+00 -0.00000000000E+00 -0.11548962869E+03  0.11548962880E+03  0.50400000000E-02 0. -1.
         23    2    1    2    0    0  0.00000000000E+00  0.00000000000E+00 -0.97450922363E+02  0.13352833582E+03  0.91286002202E+02 0.  0.
    9000005    2    3    3    0    0 -0.21258702976E+02  0.32181218456E+02 -0.16134744278E+02  0.43528979758E+02  0.12119357752E+02 0.  0.
         22    1    3    3    0    0  0.21258702976E+02 -0.32181218456E+02 -0.81316178085E+02  0.89999356064E+02  0.00000000000E+00 0. -1.
         22    1    4    4    0    0 -0.33616708802E+01  0.11406453800E+02 -0.97430502212E+01  0.15373192479E+02  0.00000000000E+00 0.  1.
         22    1    4    4    0    0 -0.17897032096E+02  0.20774764656E+02 -0.63916940563E+01  0.28155787279E+02  0.00000000000E+00 0.  1.
<mgrwt>
<rscale>  0 0.91286002E+02</rscale>
<asrwt>0</asrwt>
<pdfrwt beam="2">  1        1 0.17767635E-01 0.91286002E+02</pdfrwt>
<pdfrwt beam="1">  1       -1 0.27751857E-02 0.91286002E+02</pdfrwt>
<totfact> 0.10667999E+05</totfact>
</mgrwt>
</event>
<event>
 7    1  0.3301067E-009  0.1185564E+03  0.7818608E-02  0.1245498E+00
          1   -1    0    0  501    0  0.00000000000E+00  0.00000000000E+00  0.13718290433E+04  0.13718290434E+04  0.50400000000E-02 0. -1.
         -1   -1    0    0    0  501 -0.00000000000E+00 -0.00000000000E+00 -0.25614698275E+01  0.25614747859E+01  0.50400000000E-02 0.  1.
         23    2    1    2    0    0 -0.17763568394E-14  0.00000000000E+00  0.13692675735E+04  0.13743905181E+04  0.11855635144E+03 0.  0.
    9000005    2    3    3    0    0 -0.77290724262E+01  0.45350010496E+02  0.11105269402E+04  0.11115919692E+04  0.15819576334E+02 0.  0.
         22    1    3    3    0    0  0.77290724262E+01 -0.45350010496E+02  0.25874063332E+03  0.26279854898E+03  0.00000000000E+00 0.  1.
         22    1    4    4    0    0 -0.11346517814E+02  0.39959730543E+02  0.88903339417E+03  0.89000331431E+03  0.00000000000E+00 0.  1.
         22    1    4    4    0    0  0.36174453875E+01  0.53902799529E+01  0.22149354602E+03  0.22158865485E+03  0.00000000000E+00 0.  1.
<mgrwt>
<rscale>  0 0.11855635E+03</rscale>
<asrwt>0</asrwt>
<pdfrwt beam="1">  1        1 0.21105039E+00 0.11855635E+03</pdfrwt>
<pdfrwt beam="2">  1       -1 0.39407311E-03 0.11855635E+03</pdfrwt>
<totfact> 0.58425638E+04</totfact>
</mgrwt>
</event>
<event>
 7    1  0.3675636E-009  0.9212632E+02  0.7818608E-02  0.1297783E+00
         -1   -1    0    0    0  501 -0.00000000000E+00  0.00000000000E+00  0.17979151919E+02  0.17979152626E+02  0.50400000000E-02 0.  1.
          1   -1    0    0  501    0  0.00000000000E+00 -0.00000000000E+00 -0.11801527316E+03  0.11801527327E+03  0.50400000000E-02 0. -1.
         23    2    1    2    0    0 -0.71054273576E-14 -0.35527136788E-14 -0.10003612124E+03  0.13599442589E+03  0.92126317202E+02 0.  0.
    9000005    2    3    3    0    0  0.40971887123E+02  0.16122072659E+02 -0.37216116965E+02  0.59280869735E+02  0.13804542491E+02 0.  0.
         22    1    3    3    0    0 -0.40971887123E+02 -0.16122072659E+02 -0.62820004275E+02  0.76713556158E+02  0.00000000000E+00 0. -1.
         22    1    4    4    0    0  0.10816474716E+02  0.10978776892E+02 -0.14685628428E+02  0.21288432297E+02  0.00000000000E+00 0.  1.
         22    1    4    4    0    0  0.30155412408E+02  0.51432957665E+01 -0.22530488537E+02  0.37992437439E+02  0.00000000000E+00 0.  1.
<mgrwt>
<rscale>  0 0.92126317E+02</rscale>
<asrwt>0</asrwt>
<pdfrwt beam="2">  1        1 0.18156195E-01 0.92126317E+02</pdfrwt>
<pdfrwt beam="1">  1       -1 0.27660235E-02 0.92126317E+02</pdfrwt>
<totfact> 0.10444551E+05</totfact>
</mgrwt>
</event>
<event>
 7    1  0.3301067E-009  0.9545238E+02  0.7818608E-02  0.1290160E+00
         -1   -1    0    0    0  501 -0.00000000000E+00  0.00000000000E+00  0.39767602983E+03  0.39767602986E+03  0.50400000000E-02 0.  1.
          1   -1    0    0  501    0  0.00000000000E+00 -0.00000000000E+00 -0.57277502178E+01  0.57277524352E+01  0.50400000000E-02 0. -1.
         23    2    1    2    0    0  0.00000000000E+00  0.00000000000E+00  0.39194827961E+03  0.40340378229E+03  0.95452384363E+02 0.  0.
    9000005    2    3    3    0    0  0.40306528352E+02 -0.94254043852E+01  0.29630406664E+03  0.29918636556E+03  0.17108347924E+01 0.  0.
         22    1    3    3    0    0 -0.40306528352E+02  0.94254043852E+01  0.95644212966E+02  0.10421741673E+03  0.00000000000E+00 0. -1.
         22    1    4    4    0    0  0.35141683076E+02 -0.77598688733E+01  0.26005115414E+03  0.26252953400E+03  0.00000000000E+00 0.  1.
         22    1    4    4    0    0  0.51648452759E+01 -0.16655355119E+01  0.36252912504E+02  0.36656831563E+02  0.00000000000E+00 0.  1.
<mgrwt>
<rscale>  0 0.95452384E+02</rscale>
<asrwt>0</asrwt>
<pdfrwt beam="2">  1        1 0.88119256E-03 0.95452384E+02</pdfrwt>
<pdfrwt beam="1">  1       -1 0.61180925E-01 0.95452384E+02</pdfrwt>
<totfact> 0.47387783E+04</totfact>
</mgrwt>
</event>
<event>
 7    1  0.3301067E-009  0.9151419E+02  0.7818608E-02  0.1299226E+00
         -1   -1    0    0    0  501 -0.00000000000E+00  0.00000000000E+00  0.45155375102E+02  0.45155375384E+02  0.50400000000E-02 0. -1.
          1   -1    0    0  501    0  0.00000000000E+00 -0.00000000000E+00 -0.46366832824E+02  0.46366833098E+02  0.50400000000E-02 0.  1.
         23    2    1    2    0    0  0.00000000000E+00  0.35527136788E-14 -0.12114577213E+01  0.91522208481E+02  0.91514190241E+02 0.  0.
    9000005    2    3    3    0    0  0.33717401758E+02  0.27611246111E+02  0.12339540847E+02  0.45883697821E+02  0.73352139916E+01 0.  0.
         22    1    3    3    0    0 -0.33717401758E+02 -0.27611246111E+02 -0.13550998568E+02  0.45638510660E+02  0.00000000000E+00 0.  1.
         22    1    4    4    0    0  0.19685682432E+01  0.37253241570E+00 -0.60773723117E+00  0.20936537133E+01  0.00000000000E+00 0. -1.
         22    1    4    4    0    0  0.31748833514E+02  0.27238713696E+02  0.12947278078E+02  0.43790044108E+02  0.00000000000E+00 0. -1.
<mgrwt>
<rscale>  0 0.91514190E+02</rscale>
<asrwt>0</asrwt>
<pdfrwt beam="2">  1        1 0.71333590E-02 0.91514190E+02</pdfrwt>
<pdfrwt beam="1">  1       -1 0.69469808E-02 0.91514190E+02</pdfrwt>
<totfact> 0.91751335E+04</totfact>
</mgrwt>
</event>
<event>
 7    1  0.3301067E-009  0.9151380E+02  0.7818608E-02  0.1299227E+00
         -1   -1    0    0    0  501 -0.00000000000E+00  0.00000000000E+00  0.40569637105E+01  0.40569668411E+01  0.50400000000E-02 0.  1.
          1   -1    0    0  501    0  0.00000000000E+00 -0.00000000000E+00 -0.51607386816E+03  0.51607386818E+03  0.50400000000E-02 0. -1.
         23    2    1    2    0    0  0.35527136788E-14  0.00000000000E+00 -0.51201690445E+03  0.52013083503E+03  0.91513797334E+02 0.  0.
    9000005    2    3    3    0    0  0.27647756613E+02 -0.25764341271E+02 -0.40132872519E+03  0.40316899187E+03  0.72312249985E+01 0.  0.
         22    1    3    3    0    0 -0.27647756613E+02  0.25764341271E+02 -0.11068817926E+03  0.11696184316E+03  0.00000000000E+00 0.  1.
         22    1    4    4    0    0  0.26529076463E+02 -0.21841117219E+02 -0.35320042940E+03  0.35486810173E+03  0.00000000000E+00 0.  1.
         22    1    4    4    0    0  0.11186801501E+01 -0.39232240525E+01 -0.48128295791E+02  0.48300890136E+02  0.00000000000E+00 0.  1.
<mgrwt>
<rscale>  0 0.91513797E+02</rscale>
<asrwt>0</asrwt>
<pdfrwt beam="2">  1        1 0.79395928E-01 0.91513797E+02</pdfrwt>
<pdfrwt beam="1">  1       -1 0.62414891E-03 0.91513797E+02</pdfrwt>
<totfact> 0.13840731E+05</totfact>
</mgrwt>
</event>
<event>
 6    1  0.3301067E-009  0.1371809E+03  0.7818608E-02  0.1217173E+00
          1   -1    0    0  501    0  0.00000000000E+00  0.00000000000E+00  0.11943515078E+04  0.11943515078E+04  0.50400000000E-02 0. -1.
         -1   -1    0    0    0  501 -0.00000000000E+00 -0.00000000000E+00 -0.39390797649E+01  0.39390829892E+01  0.50400000000E-02 0.  1.
    9000005    2    1    2    0    0 -0.19738742735E+02 -0.28569976657E+02  0.11113905227E+04  0.11119753369E+04  0.97156796586E+01 0.  0.
         22    1    1    2    0    0  0.19738742735E+02  0.28569976657E+02  0.79021905383E+02  0.86315253931E+02  0.00000000000E+00 0.  1.
         22    1    3    3    0    0 -0.14925072349E+02 -0.21455211224E+02  0.68524289163E+03  0.68574113512E+03  0.00000000000E+00 0.  1.
         22    1    3    3    0    0 -0.48136703858E+01 -0.71147654328E+01  0.42614763103E+03  0.42623420175E+03  0.00000000000E+00 0.  1.
<mgrwt>
<rscale>  0 0.13718087E+03</rscale>
<asrwt>0</asrwt>
<pdfrwt beam="1">  1        1 0.18374663E+00 0.13718087E+03</pdfrwt>
<pdfrwt beam="2">  1       -1 0.60601171E-03 0.13718087E+03</pdfrwt>
<totfact> 0.42433974E+04</totfact>
</mgrwt>
</event>
<event>
 7    1  0.3301067E-009  0.9127491E+02  0.7818608E-02  0.1299793E+00
         -1   -1    0    0    0  501 -0.00000000000E+00  0.00000000000E+00  0.11201623898E+03  0.11201623909E+03  0.50400000000E-02 0.  1.
          1   -1    0    0  501    0  0.00000000000E+00 -0.00000000000E+00 -0.18593529955E+02  0.18593530639E+02  0.50400000000E-02 0. -1.
         23    2    1    2    0    0  0.00000000000E+00  0.00000000000E+00  0.93422709024E+02  0.13060976973E+03  0.91274911054E+02 0.  0.
    9000005    2    3    3    0    0 -0.15970929514E+02 -0.33239653579E+02  0.11846912072E+02  0.41085718170E+02  0.13701888640E+02 0.  0.
         22    1    3    3    0    0  0.15970929514E+02  0.33239653579E+02  0.81575796952E+02  0.89524051561E+02  0.00000000000E+00 0.  1.
         22    1    4    4    0    0 -0.50503239956E+01 -0.23080253860E+02  0.11224807106E+02  0.26157220519E+02  0.00000000000E+00 0. -1.
         22    1    4    4    0    0 -0.10920605518E+02 -0.10159399719E+02  0.62210496614E+00  0.14928497651E+02  0.00000000000E+00 0. -1.
<mgrwt>
<rscale>  0 0.91274911E+02</rscale>
<asrwt>0</asrwt>
<pdfrwt beam="2">  1        1 0.28605432E-02 0.91274911E+02</pdfrwt>
<pdfrwt beam="1">  1       -1 0.17233267E-01 0.91274911E+02</pdfrwt>
<totfact> 0.79402411E+04</totfact>
</mgrwt>
</event>
<event>
 7    1  0.3301067E-009  0.9268910E+02  0.7818608E-02  0.1296467E+00
          1   -1    0    0  501    0  0.00000000000E+00  0.00000000000E+00  0.19917347417E+03  0.19917347424E+03  0.50400000000E-02 0. -1.
         -1   -1    0    0    0  501 -0.00000000000E+00 -0.00000000000E+00 -0.10783651648E+02  0.10783652826E+02  0.50400000000E-02 0.  1.
         23    2    1    2    0    0  0.00000000000E+00  0.00000000000E+00  0.18838982253E+03  0.20995712706E+03  0.92689103856E+02 0.  0.
    9000005    2    3    3    0    0 -0.29592953137E+02  0.92532971776E+01  0.17204291385E+03  0.17490591015E+03  0.56521513205E+01 0.  0.
         22    1    3    3    0    0  0.29592953137E+02 -0.92532971776E+01  0.16346908675E+02  0.35051216916E+02  0.00000000000E+00 0.  1.
         22    1    4    4    0    0 -0.22215154528E+02  0.94020880824E+01  0.12943595460E+03  0.13166464482E+03  0.00000000000E+00 0. -1.
         22    1    4    4    0    0 -0.73777986087E+01 -0.14879090477E+00  0.42606959249E+02  0.43241265332E+02  0.00000000000E+00 0. -1.
<mgrwt>
<rscale>  0 0.92689104E+02</rscale>
<asrwt>0</asrwt>
<pdfrwt beam="1">  1        1 0.30642070E-01 0.92689104E+02</pdfrwt>
<pdfrwt beam="2">  1       -1 0.16590236E-02 0.92689104E+02</pdfrwt>
<totfact> 0.11319627E+05</totfact>
</mgrwt>
</event>
<event>
 7    1  0.4639184E-009  0.9136699E+02  0.7818608E-02  0.1299575E+00
         -1   -1    0    0    0  501 -0.00000000000E+00  0.00000000000E+00  0.29176903207E+02  0.29176903643E+02  0.50400000000E-02 0. -1.
          1   -1    0    0  501    0  0.00000000000E+00 -0.00000000000E+00 -0.71528554118E+02  0.71528554295E+02  0.50400000000E-02 0.  1.
         23    2    1    2    0    0  0.00000000000E+00  0.35527136788E-14 -0.42351650910E+02  0.10070545794E+03  0.91366990339E+02 0.  0.
    9000005    2    3    3    0    0  0.31496721484E+02  0.25745057758E+02 -0.93550037146E+00  0.42652473616E+02  0.12786980934E+02 0.  0.
         22    1    3    3    0    0 -0.31496721484E+02 -0.25745057758E+02 -0.41416150539E+02  0.58052984322E+02  0.00000000000E+00 0.  1.
         22    1    4    4    0    0  0.17274766996E+02  0.91019658322E+01 -0.55083338823E+01  0.20288053109E+02  0.00000000000E+00 0. -1.
         22    1    4    4    0    0  0.14221954488E+02  0.16643091926E+02  0.45728335108E+01  0.22364420507E+02  0.00000000000E+00 0. -1.
<mgrwt>
<rscale>  0 0.91366990E+02</rscale>
<asrwt>0</asrwt>
<pdfrwt beam="2">  1        1 0.11004393E-01 0.91366990E+02</pdfrwt>
<pdfrwt beam="1">  1       -1 0.44887544E-02 0.91366990E+02</pdfrwt>
<totfact> 0.98429662E+04</totfact>
</mgrwt>
</event>
<event>
 7    1  0.3301067E-009  0.9195207E+02  0.7818608E-02  0.1298192E+00
          1   -1    0    0  501    0  0.00000000000E+00  0.00000000000E+00  0.17016377793E+02  0.17016378540E+02  0.50400000000E-02 0. -1.
         -1   -1    0    0    0  501 -0.00000000000E+00 -0.00000000000E+00 -0.12422124948E+03  0.12422124958E+03  0.50400000000E-02 0.  1.
         23    2    1    2    0    0  0.00000000000E+00  0.00000000000E+00 -0.10720487169E+03  0.14123762812E+03  0.91952069494E+02 0.  0.
    9000005    2    3    3    0    0  0.10541572214E+02 -0.36692653646E+02 -0.91985516590E+02  0.10013891347E+03  0.10439882795E+02 0.  0.
         22    1    3    3    0    0 -0.10541572214E+02  0.36692653646E+02 -0.15219355098E+02  0.41098714651E+02  0.00000000000E+00 0. -1.
         22    1    4    4    0    0  0.32422369916E+01 -0.26064928146E+02 -0.68213650365E+02  0.73095791097E+02  0.00000000000E+00 0. -1.
         22    1    4    4    0    0  0.72993352227E+01 -0.10627725500E+02 -0.23771866225E+02  0.27043122376E+02  0.00000000000E+00 0. -1.
<mgrwt>
<rscale>  0 0.91952069E+02</rscale>
<asrwt>0</asrwt>
<pdfrwt beam="1">  1        1 0.26179044E-02 0.91952069E+02</pdfrwt>
<pdfrwt beam="2">  1       -1 0.19110961E-01 0.91952069E+02</pdfrwt>
<totfact> 0.76280415E+04</totfact>
</mgrwt>
</event>
<event>
 7    1  0.3301067E-009  0.9555157E+02  0.7818608E-02  0.1289939E+00
          1   -1    0    0  501    0  0.00000000000E+00  0.00000000000E+00  0.19739426800E+03  0.19739426806E+03  0.50400000000E-02 0. -1.
         -1   -1    0    0    0  501 -0.00000000000E+00 -0.00000000000E+00 -0.11563281025E+02  0.11563282123E+02  0.50400000000E-02 0.  1.
         23    2    1    2    0    0  0.35527136788E-14  0.71054273576E-14  0.18583098697E+03  0.20895755019E+03  0.95551567544E+02 0.  0.
    9000005    2    3    3    0    0 -0.26682317272E+02  0.38639347723E+02  0.11157033112E+03  0.12109635138E+03  0.33826445683E+01 0.  0.
         22    1    3    3    0    0  0.26682317272E+02 -0.38639347723E+02  0.74260655850E+02  0.87861198801E+02  0.00000000000E+00 0. -1.
         22    1    4    4    0    0 -0.22856241729E+02  0.32941667269E+02  0.91987987477E+02  0.10034615622E+03  0.00000000000E+00 0.  1.
         22    1    4    4    0    0 -0.38260755430E+01  0.56976804542E+01  0.19582343646E+02  0.20750195163E+02  0.00000000000E+00 0.  1.
<mgrwt>
<rscale>  0 0.95551568E+02</rscale>
<asrwt>0</asrwt>
<pdfrwt beam="1">  1        1 0.30368349E-01 0.95551568E+02</pdfrwt>
<pdfrwt beam="2">  1       -1 0.17789664E-02 0.95551568E+02</pdfrwt>
<totfact> 0.10411029E+05</totfact>
</mgrwt>
</event>
<event>
 7    1  0.3301067E-009  0.9120909E+02  0.7818608E-02  0.1299950E+00
         -1   -1    0    0    0  501 -0.00000000000E+00  0.00000000000E+00  0.11481792245E+02  0.11481793351E+02  0.50400000000E-02 0.  1.
          1   -1    0    0  501    0  0.00000000000E+00 -0.00000000000E+00 -0.18113675604E+03  0.18113675611E+03  0.50400000000E-02 0. -1.
         23    2    1    2    0    0  0.00000000000E+00  0.00000000000E+00 -0.16965496380E+03  0.19261854947E+03  0.91209094156E+02 0.  0.
    9000005    2    3    3    0    0  0.15211915419E+02 -0.14507351106E+02 -0.16986286551E+03  0.17159692179E+03  0.12257441879E+02 0.  0.
         22    1    3    3    0    0 -0.15211915419E+02  0.14507351106E+02  0.20790171593E+00  0.21021627672E+02  0.00000000000E+00 0.  1.
         22    1    4    4    0    0  0.31525359527E+01  0.38429933525E+00 -0.59361179351E+02  0.59446074579E+02  0.00000000000E+00 0.  1.
         22    1    4    4    0    0  0.12059379467E+02 -0.14891650442E+02 -0.11050168616E+03  0.11215084721E+03  0.00000000000E+00 0.  1.
<mgrwt>
<rscale>  0 0.91209094E+02</rscale>
<asrwt>0</asrwt>
<pdfrwt beam="2">  1        1 0.27867191E-01 0.91209094E+02</pdfrwt>
<pdfrwt beam="1">  1       -1 0.17664298E-02 0.91209094E+02</pdfrwt>
<totfact> 0.11605558E+05</totfact>
</mgrwt>
</event>
<event>
 7    1  0.3301067E-009  0.8682370E+02  0.7818608E-02  0.1310731E+00
          1   -1    0    0  501    0  0.00000000000E+00  0.00000000000E+00  0.64304482802E+02  0.64304483000E+02  0.50400000000E-02 0. -1.
         -1   -1    0    0    0  501 -0.00000000000E+00 -0.00000000000E+00 -0.29307270020E+02  0.29307270454E+02  0.50400000000E-02 0.  1.
         23    2    1    2    0    0  0.00000000000E+00 -0.35527136788E-14  0.34997212782E+02  0.93611753454E+02  0.86823703458E+02 0.  0.
    9000005    2    3    3    0    0  0.43906439254E+01 -0.31379214066E+02 -0.13855523655E+02  0.35383558506E+02  0.74891820173E+01 0.  0.
         22    1    3    3    0    0 -0.43906439254E+01  0.31379214066E+02  0.48852736437E+02  0.58228194948E+02  0.00000000000E+00 0.  1.
         22    1    4    4    0    0  0.15813909101E+01 -0.10613084574E+02 -0.86726222361E+01  0.13796837965E+02  0.00000000000E+00 0.  1.
         22    1    4    4    0    0  0.28092530153E+01 -0.20766129492E+02 -0.51829014192E+01  0.21586720540E+02  0.00000000000E+00 0.  1.
<mgrwt>
<rscale>  0 0.86823703E+02</rscale>
<asrwt>0</asrwt>
<pdfrwt beam="1">  1        1 0.98929974E-02 0.86823703E+02</pdfrwt>
<pdfrwt beam="2">  1       -1 0.45088108E-02 0.86823703E+02</pdfrwt>
<totfact> 0.11143901E+05</totfact>
</mgrwt>
</event>
<event>
 7    1  0.3301067E-009  0.9028691E+02  0.7818608E-02  0.1302158E+00
         -1   -1    0    0    0  501 -0.00000000000E+00  0.00000000000E+00  0.28686667042E+03  0.28686667047E+03  0.50400000000E-02 0.  1.
          1   -1    0    0  501    0  0.00000000000E+00 -0.00000000000E+00 -0.71041058836E+01  0.71041076715E+01  0.50400000000E-02 0. -1.
         23    2    1    2    0    0 -0.22204460493E-15  0.00000000000E+00  0.27976256454E+03  0.29397077814E+03  0.90286908696E+02 0.  0.
    9000005    2    3    3    0    0 -0.16716389570E+01 -0.42290123117E+02  0.95691646166E+02  0.10509687343E+03  0.98596535535E+01 0.  0.
         22    1    3    3    0    0  0.16716389570E+01  0.42290123117E+02  0.18407091837E+03  0.18887390471E+03  0.00000000000E+00 0.  1.
         22    1    4    4    0    0 -0.34028182802E+01 -0.87871890661E+01  0.28098185042E+02  0.29636158094E+02  0.00000000000E+00 0. -1.
         22    1    4    4    0    0  0.17311793232E+01 -0.33502934051E+02  0.67593461124E+02  0.75460715333E+02  0.00000000000E+00 0. -1.
<mgrwt>
<rscale>  0 0.90286909E+02</rscale>
<asrwt>0</asrwt>
<pdfrwt beam="2">  1        1 0.10929396E-02 0.90286909E+02</pdfrwt>
<pdfrwt beam="1">  1       -1 0.44133330E-01 0.90286909E+02</pdfrwt>
<totfact> 0.63243725E+04</totfact>
</mgrwt>
</event>
<event>
 7    1  0.3301067E-009  0.8903823E+02  0.7818608E-02  0.1305198E+00
          1   -1    0    0  501    0  0.00000000000E+00  0.00000000000E+00  0.26883481172E+03  0.26883481176E+03  0.50400000000E-02 0. -1.
         -1   -1    0    0    0  501 -0.00000000000E+00 -0.00000000000E+00 -0.73723755185E+01  0.73723772412E+01  0.50400000000E-02 0.  1.
         23    2    1    2    0    0  0.00000000000E+00  0.00000000000E+00  0.26146243620E+03  0.27620718901E+03  0.89038226147E+02 0.  0.
    9000005    2    3    3    0    0  0.10200727328E+02  0.31401910916E+02  0.22174121165E+03  0.22455536884E+03  0.12876873899E+02 0.  0.
         22    1    3    3    0    0 -0.10200727328E+02 -0.31401910916E+02  0.39721224545E+02  0.51651820167E+02  0.00000000000E+00 0.  1.
         22    1    4    4    0    0  0.54444107076E+01  0.31366945333E+01  0.27355898772E+02  0.28068232189E+02  0.00000000000E+00 0. -1.
         22    1    4    4    0    0  0.47563166205E+01  0.28265216383E+02  0.19438531288E+03  0.19648713665E+03  0.00000000000E+00 0. -1.
<mgrwt>
<rscale>  0 0.89038226E+02</rscale>
<asrwt>0</asrwt>
<pdfrwt beam="1">  1        1 0.41359202E-01 0.89038226E+02</pdfrwt>
<pdfrwt beam="2">  1       -1 0.11342117E-02 0.89038226E+02</pdfrwt>
<totfact> 0.13362328E+05</totfact>
</mgrwt>
</event>
<event>
 7    1  0.3301067E-009  0.9044180E+02  0.7818608E-02  0.1301785E+00
         -1   -1    0    0    0  501 -0.00000000000E+00  0.00000000000E+00  0.25017011781E+03  0.25017011786E+03  0.50400000000E-02 0.  1.
          1   -1    0    0  501    0  0.00000000000E+00 -0.00000000000E+00 -0.81741568758E+01  0.81741584296E+01  0.50400000000E-02 0. -1.
         23    2    1    2    0    0  0.00000000000E+00  0.00000000000E+00  0.24199596093E+03  0.25834427629E+03  0.90441804402E+02 0.  0.
    9000005    2    3    3    0    0 -0.36658446532E+02 -0.19460345499E+02  0.16598513912E+03  0.17174062866E+03  0.14873815123E+02 0.  0.
         22    1    3    3    0    0  0.36658446532E+02  0.19460345499E+02  0.76010821810E+02  0.86603647621E+02  0.00000000000E+00 0. -1.
         22    1    4    4    0    0 -0.21556055303E+02 -0.18343297473E+02  0.93490917917E+02  0.97681583809E+02  0.00000000000E+00 0. -1.
         22    1    4    4    0    0 -0.15102391229E+02 -0.11170480264E+01  0.72494221203E+02  0.74059044856E+02  0.00000000000E+00 0. -1.
<mgrwt>
<rscale>  0 0.90441804E+02</rscale>
<asrwt>0</asrwt>
<pdfrwt beam="2">  1        1 0.12575629E-02 0.90441804E+02</pdfrwt>
<pdfrwt beam="1">  1       -1 0.38487704E-01 0.90441804E+02</pdfrwt>
<totfact> 0.66132157E+04</totfact>
</mgrwt>
</event>
<event>
 7    1  0.3301067E-009  0.9142322E+02  0.7818608E-02  0.1299441E+00
          1   -1    0    0  501    0  0.00000000000E+00  0.00000000000E+00  0.25257301727E+02  0.25257302230E+02  0.50400000000E-02 0.  1.
         -1   -1    0    0    0  501 -0.00000000000E+00 -0.00000000000E+00 -0.82730589357E+02  0.82730589510E+02  0.50400000000E-02 0. -1.
         23    2    1    2    0    0  0.00000000000E+00  0.17763568394E-14 -0.57473287629E+02  0.10798789174E+03  0.91423224465E+02 0.  0.
    9000005    2    3    3    0    0 -0.22910020485E+02 -0.14224447256E+02  0.13002138005E+02  0.32529363020E+02  0.12723990231E+02 0.  0.
         22    1    3    3    0    0  0.22910020485E+02  0.14224447256E+02 -0.70475425635E+02  0.75458528721E+02  0.00000000000E+00 0. -1.
         22    1    4    4    0    0 -0.17704587074E+01  0.52973552852E+00  0.53170350371E+01  0.56290323636E+01  0.00000000000E+00 0. -1.
         22    1    4    4    0    0 -0.21139561777E+02 -0.14754182784E+02  0.76851029682E+01  0.26900330656E+02  0.00000000000E+00 0. -1.
<mgrwt>
<rscale>  0 0.91423224E+02</rscale>
<asrwt>0</asrwt>
<pdfrwt beam="1">  1        1 0.38857388E-02 0.91423224E+02</pdfrwt>
<pdfrwt beam="2">  1       -1 0.12727783E-01 0.91423224E+02</pdfrwt>
<totfact> 0.83587980E+04</totfact>
</mgrwt>
</event>
<event>
 7    1  0.3301067E-009  0.8895571E+02  0.7818608E-02  0.1305400E+00
         -1   -1    0    0    0  501 -0.00000000000E+00  0.00000000000E+00  0.47679121909E+01  0.47679148547E+01  0.50400000000E-02 0.  1.
          1   -1    0    0  501    0  0.00000000000E+00 -0.00000000000E+00 -0.41491517489E+03  0.41491517492E+03  0.50400000000E-02 0. -1.
         23    2    1    2    0    0 -0.88817841970E-15  0.00000000000E+00 -0.41014726270E+03  0.41968308978E+03  0.88955712261E+02 0.  0.
    9000005    2    3    3    0    0 -0.64427719240E+01 -0.28338745297E+02 -0.36269057290E+03  0.36403480857E+03  0.11502016391E+02 0.  0.
         22    1    3    3    0    0  0.64427719240E+01  0.28338745297E+02 -0.47456689802E+02  0.55648281213E+02  0.00000000000E+00 0.  1.
         22    1    4    4    0    0 -0.29897680310E+01 -0.31345766677E+00 -0.32047037641E+02  0.32187724215E+02  0.00000000000E+00 0.  1.
         22    1    4    4    0    0 -0.34530038930E+01 -0.28025287630E+02 -0.33064353526E+03  0.33184708435E+03  0.00000000000E+00 0.  1.
<mgrwt>
<rscale>  0 0.88955712E+02</rscale>
<asrwt>0</asrwt>
<pdfrwt beam="2">  1        1 0.63833076E-01 0.88955712E+02</pdfrwt>
<pdfrwt beam="1">  1       -1 0.73352549E-03 0.88955712E+02</pdfrwt>
<totfact> 0.14485259E+05</totfact>
</mgrwt>
</event>
<event>
 7    1  0.3301067E-009  0.9051665E+02  0.7818608E-02  0.1301605E+00
         -1   -1    0    0    0  501 -0.00000000000E+00  0.00000000000E+00  0.42168038643E+03  0.42168038646E+03  0.50400000000E-02 0.  1.
          1   -1    0    0  501    0  0.00000000000E+00 -0.00000000000E+00 -0.48575075003E+01  0.48575101150E+01  0.50400000000E-02 0. -1.
         23    2    1    2    0    0  0.00000000000E+00  0.00000000000E+00  0.41682287893E+03  0.42653789657E+03  0.90516654906E+02 0.  0.
    9000005    2    3    3    0    0  0.34444212461E+02 -0.25397578539E+02  0.27775285116E+03  0.28103218056E+03  0.99970885949E+00 0.  0.
         22    1    3    3    0    0 -0.34444212461E+02  0.25397578539E+02  0.13907002777E+03  0.14550571601E+03  0.00000000000E+00 0.  1.
         22    1    4    4    0    0  0.21914261324E+02 -0.15993188219E+02  0.17301737367E+03  0.17513146065E+03  0.00000000000E+00 0. -1.
         22    1    4    4    0    0  0.12529951138E+02 -0.94043903204E+01  0.10473547749E+03  0.10590071991E+03  0.00000000000E+00 0. -1.
<mgrwt>
<rscale>  0 0.90516655E+02</rscale>
<asrwt>0</asrwt>
<pdfrwt beam="2">  1        1 0.74730899E-03 0.90516655E+02</pdfrwt>
<pdfrwt beam="1">  1       -1 0.64873911E-01 0.90516655E+02</pdfrwt>
<totfact> 0.52851467E+04</totfact>
</mgrwt>
</event>
<event>
 7    1  0.3301067E-009  0.9121148E+02  0.7818608E-02  0.1299944E+00
         -1   -1    0    0    0  501 -0.00000000000E+00  0.00000000000E+00  0.48026067421E+01  0.48026093867E+01  0.50400000000E-02 0.  1.
          1   -1    0    0  501    0  0.00000000000E+00 -0.00000000000E+00 -0.43307372197E+03  0.43307372200E+03  0.50400000000E-02 0. -1.
         23    2    1    2    0    0  0.00000000000E+00  0.35527136788E-14 -0.42827111523E+03  0.43787633139E+03  0.91211476523E+02 0.  0.
    9000005    2    3    3    0    0 -0.35387845973E+01  0.29072577397E+02 -0.38146451737E+03  0.38266224481E+03  0.75814141781E+01 0.  0.
         22    1    3    3    0    0  0.35387845973E+01 -0.29072577397E+02 -0.46806597860E+02  0.55214086574E+02  0.00000000000E+00 0.  1.
         22    1    4    4    0    0 -0.68675899735E+00  0.72974384176E+00 -0.39696510943E+02  0.39709156942E+02  0.00000000000E+00 0.  1.
         22    1    4    4    0    0 -0.28520256000E+01  0.28342833556E+02 -0.34176800643E+03  0.34295308787E+03  0.00000000000E+00 0.  1.
<mgrwt>
<rscale>  0 0.91211477E+02</rscale>
<asrwt>0</asrwt>
<pdfrwt beam="2">  1        1 0.66626696E-01 0.91211477E+02</pdfrwt>
<pdfrwt beam="1">  1       -1 0.73886312E-03 0.91211477E+02</pdfrwt>
<totfact> 0.13644987E+05</totfact>
</mgrwt>
</event>
<event>
 7    1  0.3301067E-009  0.9013127E+02  0.7818608E-02  0.1302534E+00
         -1   -1    0    0    0  501 -0.00000000000E+00  0.00000000000E+00  0.15488654479E+02  0.15488655299E+02  0.50400000000E-02 0.  1.
          1   -1    0    0  501    0  0.00000000000E+00 -0.00000000000E+00 -0.13112252960E+03  0.13112252969E+03  0.50400000000E-02 0. -1.
         23    2    1    2    0    0  0.00000000000E+00  0.00000000000E+00 -0.11563387512E+03  0.14661118499E+03  0.90131273653E+02 0.  0.
    9000005    2    3    3    0    0  0.38822367902E+02 -0.18326726458E+02 -0.35899650380E+02  0.56054066296E+02  0.31981711531E+01 0.  0.
         22    1    3    3    0    0 -0.38822367902E+02  0.18326726458E+02 -0.79734224738E+02  0.90557118698E+02  0.00000000000E+00 0. -1.
         22    1    4    4    0    0  0.11298708565E+02 -0.61463307635E+01 -0.91275511383E+01  0.15771822560E+02  0.00000000000E+00 0.  1.
         22    1    4    4    0    0  0.27523659337E+02 -0.12180395694E+02 -0.26772099242E+02  0.40282243735E+02  0.00000000000E+00 0.  1.
<mgrwt>
<rscale>  0 0.90131274E+02</rscale>
<asrwt>0</asrwt>
<pdfrwt beam="2">  1        1 0.20172696E-01 0.90131274E+02</pdfrwt>
<pdfrwt beam="1">  1       -1 0.23828701E-02 0.90131274E+02</pdfrwt>
<totfact> 0.11289935E+05</totfact>
</mgrwt>
</event>
<event>
 7    1  0.3301067E-009  0.9028119E+02  0.7818608E-02  0.1302172E+00
          1   -1    0    0  501    0  0.00000000000E+00  0.00000000000E+00  0.85214030162E+02  0.85214030311E+02  0.50400000000E-02 0. -1.
         -1   -1    0    0    0  501 -0.00000000000E+00 -0.00000000000E+00 -0.23912416897E+02  0.23912417428E+02  0.50400000000E-02 0.  1.
         23    2    1    2    0    0  0.00000000000E+00  0.00000000000E+00  0.61301613264E+02  0.10912644774E+03  0.90281192988E+02 0.  0.
    9000005    2    3    3    0    0 -0.17350328259E+02  0.29424026521E+02  0.65297760964E+02  0.74734930997E+02  0.12438050361E+02 0.  0.
         22    1    3    3    0    0  0.17350328259E+02 -0.29424026521E+02 -0.39961477000E+01  0.34391516742E+02  0.00000000000E+00 0.  1.
         22    1    4    4    0    0 -0.13137716143E+02  0.11856552934E+02  0.39029426364E+02  0.42854096131E+02  0.00000000000E+00 0. -1.
         22    1    4    4    0    0 -0.42126121163E+01  0.17567473587E+02  0.26268334600E+02  0.31880834865E+02  0.00000000000E+00 0. -1.
<mgrwt>
<rscale>  0 0.90281193E+02</rscale>
<asrwt>0</asrwt>
<pdfrwt beam="1">  1        1 0.13109851E-01 0.90281193E+02</pdfrwt>
<pdfrwt beam="2">  1       -1 0.36788334E-02 0.90281193E+02</pdfrwt>
<totfact> 0.10454567E+05</totfact>
</mgrwt>
</event>
<event>
 7    1  0.3301067E-009  0.8969045E+02  0.7818608E-02  0.1303603E+00
          1   -1    0    0  501    0  0.00000000000E+00  0.00000000000E+00  0.26110953921E+03  0.26110953926E+03  0.50400000000E-02 0. -1.
         -1   -1    0    0    0  501 -0.00000000000E+00 -0.00000000000E+00 -0.77021076710E+01  0.77021093200E+01  0.50400000000E-02 0.  1.
         23    2    1    2    0    0  0.00000000000E+00  0.00000000000E+00  0.25340743154E+03  0.26881164858E+03  0.89690445714E+02 0.  0.
    9000005    2    3    3    0    0 -0.11848533294E+02 -0.20217844283E+02  0.24087232519E+03  0.24223575988E+03  0.10466009507E+02 0.  0.
         22    1    3    3    0    0  0.11848533294E+02  0.20217844283E+02  0.12535106346E+02  0.26575888692E+02  0.00000000000E+00 0.  1.
         22    1    4    4    0    0 -0.47911433308E+00 -0.12355173738E+01  0.60057115297E+02  0.60071733382E+02  0.00000000000E+00 0.  1.
         22    1    4    4    0    0 -0.11369418961E+02 -0.18982326910E+02  0.18081520989E+03  0.18216402650E+03  0.00000000000E+00 0.  1.
<mgrwt>
<rscale>  0 0.89690446E+02</rscale>
<asrwt>0</asrwt>
<pdfrwt beam="1">  1        1 0.40170695E-01 0.89690446E+02</pdfrwt>
<pdfrwt beam="2">  1       -1 0.11849399E-02 0.89690446E+02</pdfrwt>
<totfact> 0.13031053E+05</totfact>
</mgrwt>
</event>
<event>
 7    1  0.3301067E-009  0.8864674E+02  0.7818608E-02  0.1306162E+00
         -1   -1    0    0    0  501 -0.00000000000E+00  0.00000000000E+00  0.23730494105E+02  0.23730494641E+02  0.50400000000E-02 0.  1.
          1   -1    0    0  501    0  0.00000000000E+00 -0.00000000000E+00 -0.82786361337E+02  0.82786361490E+02  0.50400000000E-02 0. -1.
         23    2    1    2    0    0  0.17763568394E-14  0.00000000000E+00 -0.59055867231E+02  0.10651685613E+03  0.88646743795E+02 0.  0.
    9000005    2    3    3    0    0  0.15875576102E+02  0.37603357845E+02 -0.47436911688E+02  0.64078117156E+02  0.13773092246E+02 0.  0.
         22    1    3    3    0    0 -0.15875576102E+02 -0.37603357845E+02 -0.11618955544E+02  0.42438738974E+02  0.00000000000E+00 0.  1.
         22    1    4    4    0    0  0.74174019492E+01  0.56236236128E+01 -0.15605983575E+02  0.18171123178E+02  0.00000000000E+00 0.  1.
         22    1    4    4    0    0  0.84581741527E+01  0.31979734233E+02 -0.31830928112E+02  0.45906993978E+02  0.00000000000E+00 0.  1.
<mgrwt>
<rscale>  0 0.88646744E+02</rscale>
<asrwt>0</asrwt>
<pdfrwt beam="2">  1        1 0.12736363E-01 0.88646744E+02</pdfrwt>
<pdfrwt beam="1">  1       -1 0.36508454E-02 0.88646744E+02</pdfrwt>
<totfact> 0.10939365E+05</totfact>
</mgrwt>
</event>
<event>
 7    1  0.3301067E-009  0.8860684E+02  0.7818608E-02  0.1306261E+00
         -1   -1    0    0    0  501 -0.00000000000E+00  0.00000000000E+00  0.52963665347E+02  0.52963665587E+02  0.50400000000E-02 0.  1.
          1   -1    0    0  501    0  0.00000000000E+00 -0.00000000000E+00 -0.37059232760E+02  0.37059233103E+02  0.50400000000E-02 0. -1.
         23    2    1    2    0    0 -0.17763568394E-14  0.00000000000E+00  0.15904432587E+02  0.90022898690E+02  0.88606835586E+02 0.  0.
    9000005    2    3    3    0    0  0.13305476505E+02  0.17662246539E+02 -0.29360887573E+02  0.39644928633E+02  0.14854897824E+02 0.  0.
         22    1    3    3    0    0 -0.13305476505E+02 -0.17662246539E+02  0.45265320161E+02  0.50377970057E+02  0.00000000000E+00 0.  1.
         22    1    4    4    0    0  0.80037326362E+01  0.20798679615E+01 -0.17504706190E+02  0.19359760475E+02  0.00000000000E+00 0. -1.
         22    1    4    4    0    0  0.53017438687E+01  0.15582378578E+02 -0.11856181383E+02  0.20285168158E+02  0.00000000000E+00 0. -1.
<mgrwt>
<rscale>  0 0.88606836E+02</rscale>
<asrwt>0</asrwt>
<pdfrwt beam="2">  1        1 0.57014205E-02 0.88606836E+02</pdfrwt>
<pdfrwt beam="1">  1       -1 0.81482562E-02 0.88606836E+02</pdfrwt>
<totfact> 0.97154578E+04</totfact>
</mgrwt>
</event>
<event>
 7    1  0.3301067E-009  0.9113830E+02  0.7818608E-02  0.1300118E+00
          1   -1    0    0  501    0  0.00000000000E+00  0.00000000000E+00  0.27574950652E+03  0.27574950657E+03  0.50400000000E-02 0. -1.
         -1   -1    0    0    0  501 -0.00000000000E+00 -0.00000000000E+00 -0.75305569961E+01  0.75305586826E+01  0.50400000000E-02 0.  1.
         23    2    1    2    0    0  0.00000000000E+00  0.00000000000E+00  0.26821894953E+03  0.28328006525E+03  0.91138304152E+02 0.  0.
    9000005    2    3    3    0    0  0.18664852847E+02  0.26301896781E+02  0.23345614495E+03  0.23586045867E+03  0.93924354727E+01 0.  0.
         22    1    3    3    0    0 -0.18664852847E+02 -0.26301896781E+02  0.34762804577E+02  0.47419606579E+02  0.00000000000E+00 0.  1.
         22    1    4    4    0    0  0.11938226477E+02  0.88072331441E+01  0.10638208233E+03  0.10741152661E+03  0.00000000000E+00 0. -1.
         22    1    4    4    0    0  0.67266263699E+01  0.17494663637E+02  0.12707406262E+03  0.12844893206E+03  0.00000000000E+00 0. -1.
<mgrwt>
<rscale>  0 0.91138304E+02</rscale>
<asrwt>0</asrwt>
<pdfrwt beam="1">  1        1 0.42423001E-01 0.91138304E+02</pdfrwt>
<pdfrwt beam="2">  1       -1 0.11585474E-02 0.91138304E+02</pdfrwt>
<totfact> 0.12620065E+05</totfact>
</mgrwt>
</event>
<event>
 7    1  0.3301067E-009  0.9129584E+02  0.7818608E-02  0.1299744E+00
          1   -1    0    0  501    0  0.00000000000E+00  0.00000000000E+00  0.15729034219E+04  0.15729034219E+04  0.50400000000E-02 0. -1.
         -1   -1    0    0    0  501 -0.00000000000E+00 -0.00000000000E+00 -0.13247634024E+01  0.13247729896E+01  0.50400000000E-02 0.  1.
         23    2    1    2    0    0  0.00000000000E+00  0.00000000000E+00  0.15715786585E+04  0.15742281949E+04  0.91295836519E+02 0.  0.
    9000005    2    3    3    0    0 -0.36292758990E+01 -0.13298298929E+02  0.15353698593E+04  0.15354842465E+04  0.12698425226E+02 0.  0.
         22    1    3    3    0    0  0.36292758990E+01  0.13298298929E+02  0.36208799160E+02  0.38743948360E+02  0.00000000000E+00 0.  1.
         22    1    4    4    0    0 -0.45511799171E+01  0.75380593029E+00  0.33409456928E+03  0.33412641722E+03  0.00000000000E+00 0.  1.
         22    1    4    4    0    0  0.92190401807E+00 -0.14052104859E+02  0.12012752901E+04  0.12013578293E+04  0.00000000000E+00 0.  1.
<mgrwt>
<rscale>  0 0.91295837E+02</rscale>
<asrwt>0</asrwt>
<pdfrwt beam="1">  1        1 0.24198339E+00 0.91295837E+02</pdfrwt>
<pdfrwt beam="2">  1       -1 0.20381197E-03 0.91295837E+02</pdfrwt>
<totfact> 0.10570507E+05</totfact>
</mgrwt>
</event>
<event>
 7    1  0.3301067E-009  0.9285507E+02  0.7818608E-02  0.1296081E+00
          1   -1    0    0  501    0  0.00000000000E+00  0.00000000000E+00  0.15589968628E+02  0.15589969443E+02  0.50400000000E-02 0. -1.
         -1   -1    0    0    0  501 -0.00000000000E+00 -0.00000000000E+00 -0.13826300797E+03  0.13826300806E+03  0.50400000000E-02 0.  1.
         23    2    1    2    0    0  0.35527136788E-14  0.00000000000E+00 -0.12267303934E+03  0.15385297750E+03  0.92855070436E+02 0.  0.
    9000005    2    3    3    0    0  0.21890430026E+02 -0.27179556369E+02 -0.14891507654E+02  0.40562299229E+02  0.14339592304E+02 0.  0.
         22    1    3    3    0    0 -0.21890430026E+02  0.27179556369E+02 -0.10778153169E+03  0.11329067827E+03  0.00000000000E+00 0.  1.
         22    1    4    4    0    0 -0.11279282782E+01 -0.30795979095E+01  0.12786135802E+01  0.35200849666E+01  0.00000000000E+00 0. -1.
         22    1    4    4    0    0  0.23018358304E+02 -0.24099958460E+02 -0.16170121234E+02  0.37042214263E+02  0.00000000000E+00 0. -1.
<mgrwt>
<rscale>  0 0.92855070E+02</rscale>
<asrwt>0</asrwt>
<pdfrwt beam="1">  1        1 0.23984569E-02 0.92855070E+02</pdfrwt>
<pdfrwt beam="2">  1       -1 0.21271231E-01 0.92855070E+02</pdfrwt>
<totfact> 0.72669469E+04</totfact>
</mgrwt>
</event>
<event>
 7    1  0.3301067E-009  0.8555570E+02  0.7818608E-02  0.1313986E+00
         -1   -1    0    0    0  501 -0.00000000000E+00  0.00000000000E+00  0.83310963401E+02  0.83310963553E+02  0.50400000000E-02 0.  1.
          1   -1    0    0  501    0  0.00000000000E+00 -0.00000000000E+00 -0.21965231282E+02  0.21965231861E+02  0.50400000000E-02 0. -1.
         23    2    1    2    0    0 -0.17763568394E-14  0.00000000000E+00  0.61345732118E+02  0.10527619541E+03  0.85555703911E+02 0.  0.
    9000005    2    3    3    0    0 -0.15016607111E+02 -0.26687528995E+02  0.66402093572E+02  0.74239290218E+02  0.12826203194E+02 0.  0.
         22    1    3    3    0    0  0.15016607111E+02  0.26687528995E+02 -0.50563614533E+01  0.31036905196E+02  0.00000000000E+00 0. -1.
         22    1    4    4    0    0 -0.17267031273E+02 -0.24950053766E+02  0.60074472523E+02  0.67302286743E+02  0.00000000000E+00 0. -1.
         22    1    4    4    0    0  0.22504241616E+01 -0.17374752289E+01  0.63276210487E+01  0.69370034751E+01  0.00000000000E+00 0. -1.
<mgrwt>
<rscale>  0 0.85555704E+02</rscale>
<asrwt>0</asrwt>
<pdfrwt beam="2">  1        1 0.33792664E-02 0.85555704E+02</pdfrwt>
<pdfrwt beam="1">  1       -1 0.12817071E-01 0.85555704E+02</pdfrwt>
<totfact> 0.98932504E+04</totfact>
</mgrwt>
</event>
<event>
 7    1  0.3301067E-009  0.9361845E+02  0.7818608E-02  0.1294318E+00
          1   -1    0    0  501    0  0.00000000000E+00  0.00000000000E+00  0.37201648902E+02  0.37201649243E+02  0.50400000000E-02 0. -1.
         -1   -1    0    0    0  501 -0.00000000000E+00 -0.00000000000E+00 -0.58898016935E+02  0.58898017151E+02  0.50400000000E-02 0.  1.
         23    2    1    2    0    0  0.00000000000E+00  0.00000000000E+00 -0.21696368033E+02  0.96099666394E+02  0.93618446341E+02 0.  0.
    9000005    2    3    3    0    0 -0.34606378218E+02  0.42108059969E+01  0.20711609074E+02  0.41201862952E+02  0.73000314894E+01 0.  0.
         22    1    3    3    0    0  0.34606378218E+02 -0.42108059969E+01 -0.42407977107E+02  0.54897803443E+02  0.00000000000E+00 0.  1.
         22    1    4    4    0    0 -0.14107436593E+02  0.29145661747E+01  0.12530619801E+02  0.19092692209E+02  0.00000000000E+00 0.  1.
         22    1    4    4    0    0 -0.20498941625E+02  0.12962398221E+01  0.81809892734E+01  0.22109170742E+02  0.00000000000E+00 0.  1.
<mgrwt>
<rscale>  0 0.93618446E+02</rscale>
<asrwt>0</asrwt>
<pdfrwt beam="1">  1        1 0.57233306E-02 0.93618446E+02</pdfrwt>
<pdfrwt beam="2">  1       -1 0.90612334E-02 0.93618446E+02</pdfrwt>
<totfact> 0.83171108E+04</totfact>
</mgrwt>
</event>
<event>
 7    1  0.3301067E-009  0.9097649E+02  0.7818608E-02  0.1300504E+00
          1   -1    0    0  501    0  0.00000000000E+00  0.00000000000E+00  0.15810475822E+02  0.15810476625E+02  0.50400000000E-02 0. -1.
         -1   -1    0    0    0  501 -0.00000000000E+00 -0.00000000000E+00 -0.13087401590E+03  0.13087401600E+03  0.50400000000E-02 0.  1.
         23    2    1    2    0    0  0.00000000000E+00 -0.17763568394E-14 -0.11506354008E+03  0.14668449263E+03  0.90976492133E+02 0.  0.
    9000005    2    3    3    0    0 -0.36350881920E+02  0.11713369080E+02 -0.95155631061E+02  0.10361577459E+03  0.14934690824E+02 0.  0.
         22    1    3    3    0    0  0.36350881920E+02 -0.11713369080E+02 -0.19907909021E+02  0.43068718035E+02  0.00000000000E+00 0. -1.
         22    1    4    4    0    0 -0.20052931870E+02  0.53779379238E+01 -0.32496266105E+02  0.38562282138E+02  0.00000000000E+00 0. -1.
         22    1    4    4    0    0 -0.16297950050E+02  0.63354311557E+01 -0.62659364956E+02  0.65053492454E+02  0.00000000000E+00 0. -1.
<mgrwt>
<rscale>  0 0.90976492E+02</rscale>
<asrwt>0</asrwt>
<pdfrwt beam="1">  1        1 0.24323811E-02 0.90976492E+02</pdfrwt>
<pdfrwt beam="2">  1       -1 0.20134463E-01 0.90976492E+02</pdfrwt>
<totfact> 0.77554386E+04</totfact>
</mgrwt>
</event>
<event>
 7    1  0.3690955E-009  0.9346892E+02  0.7818608E-02  0.1294662E+00
          1   -1    0    0  501    0  0.00000000000E+00  0.00000000000E+00  0.31244957926E+02  0.31244958333E+02  0.50400000000E-02 0. -1.
         -1   -1    0    0    0  501 -0.00000000000E+00 -0.00000000000E+00 -0.69902794588E+02  0.69902794770E+02  0.50400000000E-02 0.  1.
         23    2    1    2    0    0  0.00000000000E+00 -0.35527136788E-14 -0.38657836662E+02  0.10114775310E+03  0.93468923297E+02 0.  0.
    9000005    2    3    3    0    0 -0.25835761634E+02 -0.25413118916E+02 -0.49707613719E+02  0.63260937912E+02  0.14757581494E+02 0.  0.
         22    1    3    3    0    0  0.25835761634E+02  0.25413118916E+02  0.11049777057E+02  0.37886815191E+02  0.00000000000E+00 0. -1.
         22    1    4    4    0    0 -0.12799116882E+01 -0.48180483937E+01 -0.15958553789E+02  0.16719067058E+02  0.00000000000E+00 0. -1.
         22    1    4    4    0    0 -0.24555849946E+02 -0.20595070522E+02 -0.33749059931E+02  0.46541870854E+02  0.00000000000E+00 0. -1.
<mgrwt>
<rscale>  0 0.93468923E+02</rscale>
<asrwt>0</asrwt>
<pdfrwt beam="1">  1        1 0.48069167E-02 0.93468923E+02</pdfrwt>
<pdfrwt beam="2">  1       -1 0.10754276E-01 0.93468923E+02</pdfrwt>
<totfact> 0.81244057E+04</totfact>
</mgrwt>
</event>
<event>
 7    1  0.3301067E-009  0.9075972E+02  0.7818608E-02  0.1301022E+00
          1   -1    0    0  501    0  0.00000000000E+00  0.00000000000E+00  0.41856979781E+03  0.41856979784E+03  0.50400000000E-02 0. -1.
         -1   -1    0    0    0  501 -0.00000000000E+00 -0.00000000000E+00 -0.49199233816E+01  0.49199259631E+01  0.50400000000E-02 0.  1.
         23    2    1    2    0    0  0.00000000000E+00  0.00000000000E+00  0.41364987443E+03  0.42348972380E+03  0.90759724286E+02 0.  0.
    9000005    2    3    3    0    0 -0.43042647011E+01 -0.44228681372E+02  0.20711829195E+03  0.21223159375E+03  0.13021504408E+02 0.  0.
         22    1    3    3    0    0  0.43042647011E+01  0.44228681372E+02  0.20653158248E+03  0.21125813005E+03  0.00000000000E+00 0.  1.
         22    1    4    4    0    0  0.29281133648E+01 -0.34000703494E+01  0.13604880877E+02  0.14325749890E+02  0.00000000000E+00 0.  1.
         22    1    4    4    0    0 -0.72323780658E+01 -0.40828611022E+02  0.19351341107E+03  0.19790584386E+03  0.00000000000E+00 0.  1.
<mgrwt>
<rscale>  0 0.90759724E+02</rscale>
<asrwt>0</asrwt>
<pdfrwt beam="1">  1        1 0.64395367E-01 0.90759724E+02</pdfrwt>
<pdfrwt beam="2">  1       -1 0.75691134E-03 0.90759724E+02</pdfrwt>
<totfact> 0.13753861E+05</totfact>
</mgrwt>
</event>
<event>
 7    1  0.3301067E-009  0.9209880E+02  0.7818608E-02  0.1297847E+00
         -1   -1    0    0    0  501 -0.00000000000E+00  0.00000000000E+00  0.97682596119E+02  0.97682596249E+02  0.50400000000E-02 0.  1.
          1   -1    0    0  501    0  0.00000000000E+00 -0.00000000000E+00 -0.21708547295E+02  0.21708547880E+02  0.50400000000E-02 0. -1.
         23    2    1    2    0    0  0.00000000000E+00  0.00000000000E+00  0.75974048824E+02  0.11939114413E+03  0.92098801305E+02 0.  0.
    9000005    2    3    3    0    0  0.25720863927E+02 -0.12961791172E+02  0.83957293313E+02  0.89502968138E+02  0.11505795647E+02 0.  0.
         22    1    3    3    0    0 -0.25720863927E+02  0.12961791172E+02 -0.79832444888E+01  0.29888175992E+02  0.00000000000E+00 0. -1.
         22    1    4    4    0    0  0.22457933817E+01 -0.77342381131E+00  0.12811899670E+01  0.26987441592E+01  0.00000000000E+00 0.  1.
         22    1    4    4    0    0  0.23475070546E+02 -0.12188367361E+02  0.82676103346E+02  0.86804223978E+02  0.00000000000E+00 0.  1.
<mgrwt>
<rscale>  0 0.92098801E+02</rscale>
<asrwt>0</asrwt>
<pdfrwt beam="2">  1        1 0.33397766E-02 0.92098801E+02</pdfrwt>
<pdfrwt beam="1">  1       -1 0.15028092E-01 0.92098801E+02</pdfrwt>
<totfact> 0.79632781E+04</totfact>
</mgrwt>
</event>
<event>
 7    1  0.3301067E-009  0.9428523E+02  0.7818608E-02  0.1292794E+00
         -1   -1    0    0    0  501 -0.00000000000E+00  0.00000000000E+00  0.65006343267E+02  0.65006343462E+02  0.50400000000E-02 0.  1.
          1   -1    0    0  501    0  0.00000000000E+00 -0.00000000000E+00 -0.34187832416E+02  0.34187832787E+02  0.50400000000E-02 0. -1.
         23    2    1    2    0    0  0.00000000000E+00  0.22204460493E-15  0.30818510851E+02  0.99194176250E+02  0.94285226790E+02 0.  0.
    9000005    2    3    3    0    0  0.18603694574E+02 -0.17489783872E+01  0.60476772876E+02  0.64140376405E+02  0.10362984641E+02 0.  0.
         22    1    3    3    0    0 -0.18603694574E+02  0.17489783872E+01 -0.29658262025E+02  0.35053799845E+02  0.00000000000E+00 0. -1.
         22    1    4    4    0    0  0.79128350267E+01 -0.50619342892E+01  0.19223768789E+02  0.21396014193E+02  0.00000000000E+00 0.  1.
         22    1    4    4    0    0  0.10690859547E+02  0.33129559020E+01  0.41253004087E+02  0.42744362212E+02  0.00000000000E+00 0.  1.
<mgrwt>
<rscale>  0 0.94285227E+02</rscale>
<asrwt>0</asrwt>
<pdfrwt beam="2">  1        1 0.52596666E-02 0.94285227E+02</pdfrwt>
<pdfrwt beam="1">  1       -1 0.10000976E-01 0.94285227E+02</pdfrwt>
<totfact> 0.80407716E+04</totfact>
</mgrwt>
</event>
<event>
 7    1  0.3301067E-009  0.1066619E+03  0.7818608E-02  0.1266879E+00
          1   -1    0    0  501    0  0.00000000000E+00  0.00000000000E+00  0.19077929342E+03  0.19077929349E+03  0.50400000000E-02 0. -1.
         -1   -1    0    0    0  501 -0.00000000000E+00 -0.00000000000E+00 -0.14908266716E+02  0.14908267567E+02  0.50400000000E-02 0.  1.
         23    2    1    2    0    0  0.00000000000E+00  0.00000000000E+00  0.17587102671E+03  0.20568756106E+03  0.10666187106E+03 0.  0.
    9000005    2    3    3    0    0 -0.32421646737E+02 -0.38424241836E+02  0.56103385413E+02  0.75795785186E+02  0.83561749181E+01 0.  0.
         22    1    3    3    0    0  0.32421646737E+02  0.38424241836E+02  0.11976764129E+03  0.12989177587E+03  0.00000000000E+00 0. -1.
         22    1    4    4    0    0 -0.39890766635E+01 -0.37083010892E+01  0.10434114165E+02  0.11770087850E+02  0.00000000000E+00 0. -1.
         22    1    4    4    0    0 -0.28432570073E+02 -0.34715940747E+02  0.45669271248E+02  0.64025697335E+02  0.00000000000E+00 0. -1.
<mgrwt>
<rscale>  0 0.10666187E+03</rscale>
<asrwt>0</asrwt>
<pdfrwt beam="1">  1        1 0.29350660E-01 0.10666187E+03</pdfrwt>
<pdfrwt beam="2">  1       -1 0.22935796E-02 0.10666187E+03</pdfrwt>
<totfact> 0.76709720E+04</totfact>
</mgrwt>
</event>
