<event>
 7    1  0.3337990E-009  0.9180354E+02  0.7818608E-02  0.1298542E+00
          2   -1    0    0  501    0  0.00000000000E+00  0.00000000000E+00  0.20415958761E+03  0.20415958763E+03  0.25500000000E-02 0. -1.
         -2   -1    0    0    0  501 -0.00000000000E+00 -0.00000000000E+00 -0.10320223888E+02  0.10320224203E+02  0.25500000000E-02 0.  1.
         23    2    1    2    0    0 -0.88817841970E-15  0.00000000000E+00  0.19383936372E+03  0.21447981183E+03  0.91803544345E+02 0.  0.
    9000005    2    3    3    0    0 -0.43071990436E+01  0.43056834784E+02  0.66650296315E+02  0.80131377328E+02  0.10311772317E+02 0.  0.
         22    1    3    3    0    0  0.43071990436E+01 -0.43056834784E+02  0.12718906741E+03  0.13434843450E+03  0.00000000000E+00 0.  1.
         22    1    4    4    0    0 -0.71699944510E+01  0.24229838206E+02  0.41451788831E+02  0.48546314765E+02  0.00000000000E+00 0.  1.
         22    1    4    4    0    0  0.28627954074E+01  0.18826996578E+02  0.25198507484E+02  0.31585062563E+02  0.00000000000E+00 0.  1.
<mgrwt>
<rscale>  0 0.91803544E+02</rscale>
<asrwt>0</asrwt>
<pdfrwt beam="1">  1        2 0.31409164E-01 0.91803544E+02</pdfrwt>
<pdfrwt beam="2">  1       -2 0.15877270E-02 0.91803544E+02</pdfrwt>
<totfact> 0.15298747E+05</totfact>
</mgrwt>
</event>
<event>
 7    1  0.3337990E-009  0.8900973E+02  0.7818608E-02  0.1305268E+00
          2   -1    0    0  501    0  0.00000000000E+00  0.00000000000E+00  0.41153709480E+01  0.41153717380E+01  0.25500000000E-02 0. -1.
         -2   -1    0    0    0  501 -0.00000000000E+00 -0.00000000000E+00 -0.48128896439E+03  0.48128896439E+03  0.25500000000E-02 0.  1.
         23    2    1    2    0    0  0.00000000000E+00  0.00000000000E+00 -0.47717359344E+03  0.48540433613E+03  0.89009725648E+02 0.  0.
    9000005    2    3    3    0    0 -0.44148283393E+01 -0.29821289448E+02 -0.41465479878E+03  0.41599684591E+03  0.14351781774E+02 0.  0.
         22    1    3    3    0    0  0.44148283393E+01  0.29821289448E+02 -0.62518794656E+02  0.69407490222E+02  0.00000000000E+00 0. -1.
         22    1    4    4    0    0 -0.26650353144E+01 -0.45185566448E+01 -0.26498394978E+02  0.27012676724E+02  0.00000000000E+00 0. -1.
         22    1    4    4    0    0 -0.17497930248E+01 -0.25302732803E+02 -0.38815640380E+03  0.38898416919E+03  0.00000000000E+00 0. -1.
<mgrwt>
<rscale>  0 0.89009726E+02</rscale>
<asrwt>0</asrwt>
<pdfrwt beam="1">  1        2 0.63313444E-03 0.89009726E+02</pdfrwt>
<pdfrwt beam="2">  1       -2 0.74044411E-01 0.89009726E+02</pdfrwt>
<totfact> 0.39784605E+04</totfact>
</mgrwt>
</event>
<event>
 7    1  0.3337990E-009  0.9653113E+02  0.7818608E-02  0.1287764E+00
          2   -1    0    0  501    0  0.00000000000E+00  0.00000000000E+00  0.16023618075E+03  0.16023618077E+03  0.25500000000E-02 0. -1.
         -2   -1    0    0    0  501 -0.00000000000E+00 -0.00000000000E+00 -0.14538320036E+02  0.14538320260E+02  0.25500000000E-02 0.  1.
         23    2    1    2    0    0  0.00000000000E+00  0.00000000000E+00  0.14569786071E+03  0.17477450103E+03  0.96531132768E+02 0.  0.
    9000005    2    3    3    0    0  0.44092229805E+02  0.15913820784E+02  0.65967097887E+02  0.82284669361E+02  0.14890748371E+02 0.  0.
         22    1    3    3    0    0 -0.44092229805E+02 -0.15913820784E+02  0.79730762824E+02  0.92489831666E+02  0.00000000000E+00 0. -1.
         22    1    4    4    0    0  0.40101369462E+02  0.14031195243E+02  0.49478910366E+02  0.65216231444E+02  0.00000000000E+00 0.  1.
         22    1    4    4    0    0  0.39908603426E+01  0.18826255418E+01  0.16488187521E+02  0.17068437917E+02  0.00000000000E+00 0.  1.
<mgrwt>
<rscale>  0 0.96531133E+02</rscale>
<asrwt>0</asrwt>
<pdfrwt beam="1">  1        2 0.24651722E-01 0.96531133E+02</pdfrwt>
<pdfrwt beam="2">  1       -2 0.22366645E-02 0.96531133E+02</pdfrwt>
<totfact> 0.12244432E+05</totfact>
</mgrwt>
</event>
<event>
 7    1  0.3337990E-009  0.9778927E+02  0.7818608E-02  0.1285015E+00
          2   -1    0    0  501    0  0.00000000000E+00  0.00000000000E+00  0.63310785768E+03  0.63310785769E+03  0.25500000000E-02 0. -1.
         -2   -1    0    0    0  501 -0.00000000000E+00 -0.00000000000E+00 -0.37761100128E+01  0.37761108738E+01  0.25500000000E-02 0.  1.
         23    2    1    2    0    0 -0.17763568394E-14  0.00000000000E+00  0.62933174767E+03  0.63688396856E+03  0.97789267231E+02 0.  0.
    9000005    2    3    3    0    0  0.14637799196E+02 -0.33178293695E+02  0.52652392638E+03  0.52786785757E+03  0.10097804950E+02 0.  0.
         22    1    3    3    0    0 -0.14637799196E+02  0.33178293695E+02  0.10280782129E+03  0.10901611099E+03  0.00000000000E+00 0.  1.
         22    1    4    4    0    0  0.86246850772E+01 -0.28920535911E+02  0.43739987050E+03  0.43843976702E+03  0.00000000000E+00 0. -1.
         22    1    4    4    0    0  0.60131141183E+01 -0.42577577842E+01  0.89124055888E+02  0.89428090557E+02  0.00000000000E+00 0. -1.
<mgrwt>
<rscale>  0 0.97789267E+02</rscale>
<asrwt>0</asrwt>
<pdfrwt beam="1">  1        2 0.97401289E-01 0.97789267E+02</pdfrwt>
<pdfrwt beam="2">  1       -2 0.58093959E-03 0.97789267E+02</pdfrwt>
<totfact> 0.19208755E+05</totfact>
</mgrwt>
</event>
<event>
 7    1  0.3337990E-009  0.9064858E+02  0.7818608E-02  0.1301289E+00
         -2   -1    0    0    0  501 -0.00000000000E+00  0.00000000000E+00  0.12069655834E+02  0.12069656104E+02  0.25500000000E-02 0.  1.
          2   -1    0    0  501    0  0.00000000000E+00 -0.00000000000E+00 -0.17020296066E+03  0.17020296068E+03  0.25500000000E-02 0. -1.
         23    2    1    2    0    0  0.00000000000E+00  0.71054273576E-14 -0.15813330483E+03  0.18227261679E+03  0.90648578223E+02 0.  0.
    9000005    2    3    3    0    0 -0.11249823101E+02  0.34254090202E+02 -0.13357406007E+03  0.13864856702E+03  0.90274246437E+01 0.  0.
         22    1    3    3    0    0  0.11249823101E+02 -0.34254090202E+02 -0.24559244756E+02  0.43624049771E+02  0.00000000000E+00 0.  1.
         22    1    4    4    0    0 -0.92293571593E+01  0.20833315475E+02 -0.69047777176E+02  0.72710409159E+02  0.00000000000E+00 0. -1.
         22    1    4    4    0    0 -0.20204659417E+01  0.13420774728E+02 -0.64526282897E+02  0.65938157856E+02  0.00000000000E+00 0. -1.
<mgrwt>
<rscale>  0 0.90648578E+02</rscale>
<asrwt>0</asrwt>
<pdfrwt beam="2">  1        2 0.26185069E-01 0.90648578E+02</pdfrwt>
<pdfrwt beam="1">  1       -2 0.18568703E-02 0.90648578E+02</pdfrwt>
<totfact> 0.14835023E+05</totfact>
</mgrwt>
</event>
<event>
 7    1  0.3337990E-009  0.9343595E+02  0.7818608E-02  0.1294738E+00
         -2   -1    0    0    0  501 -0.00000000000E+00  0.00000000000E+00  0.11556284011E+01  0.11556312145E+01  0.25500000000E-02 0.  1.
          2   -1    0    0  501    0  0.00000000000E+00 -0.00000000000E+00 -0.18886403854E+04  0.18886403854E+04  0.25500000000E-02 0. -1.
         23    2    1    2    0    0 -0.17763568394E-14  0.00000000000E+00 -0.18874847570E+04  0.18897960166E+04  0.93435948731E+02 0.  0.
    9000005    2    3    3    0    0  0.83188553692E+01 -0.13791580485E+02 -0.18306837378E+04  0.18307556336E+04  0.19572937681E+01 0.  0.
         22    1    3    3    0    0 -0.83188553692E+01  0.13791580485E+02 -0.56801019224E+02  0.59040383060E+02  0.00000000000E+00 0.  1.
         22    1    4    4    0    0  0.28461434590E+01 -0.45109031904E+01 -0.71395368685E+03  0.71397360998E+03  0.00000000000E+00 0. -1.
         22    1    4    4    0    0  0.54727119102E+01 -0.92806772949E+01 -0.11167300509E+04  0.11167820236E+04  0.00000000000E+00 0. -1.
<mgrwt>
<rscale>  0 0.93435949E+02</rscale>
<asrwt>0</asrwt>
<pdfrwt beam="2">  1        2 0.29055759E+00 0.93435949E+02</pdfrwt>
<pdfrwt beam="1">  1       -2 0.17779071E-03 0.93435949E+02</pdfrwt>
<totfact> 0.19384084E+05</totfact>
</mgrwt>
</event>
<event>
 7    1  0.3337990E-009  0.9256237E+02  0.7818608E-02  0.1296763E+00
         -2   -1    0    0    0  501 -0.00000000000E+00  0.00000000000E+00  0.15558233225E+03  0.15558233227E+03  0.25500000000E-02 0.  1.
          2   -1    0    0  501    0  0.00000000000E+00 -0.00000000000E+00 -0.13767296352E+02  0.13767296588E+02  0.25500000000E-02 0. -1.
         23    2    1    2    0    0  0.00000000000E+00  0.00000000000E+00  0.14181503590E+03  0.16934962886E+03  0.92562370259E+02 0.  0.
    9000005    2    3    3    0    0  0.43498202471E+02 -0.12414740335E+02  0.63748831347E+02  0.79124622964E+02  0.12270821703E+02 0.  0.
         22    1    3    3    0    0 -0.43498202471E+02  0.12414740335E+02  0.78066204554E+02  0.90225005898E+02  0.00000000000E+00 0.  1.
         22    1    4    4    0    0  0.28473965125E+02 -0.81117899227E+01  0.50935382333E+02  0.58915032030E+02  0.00000000000E+00 0. -1.
         22    1    4    4    0    0  0.15024237346E+02 -0.43029504123E+01  0.12813449014E+02  0.20209590934E+02  0.00000000000E+00 0. -1.
<mgrwt>
<rscale>  0 0.92562370E+02</rscale>
<asrwt>0</asrwt>
<pdfrwt beam="2">  1        2 0.21180456E-02 0.92562370E+02</pdfrwt>
<pdfrwt beam="1">  1       -2 0.23935744E-01 0.92562370E+02</pdfrwt>
<totfact> 0.66336216E+04</totfact>
</mgrwt>
</event>
<event>
 7    1  0.3337990E-009  0.9333539E+02  0.7818608E-02  0.1294970E+00
          2   -1    0    0  501    0  0.00000000000E+00  0.00000000000E+00  0.19725750811E+02  0.19725750976E+02  0.25500000000E-02 0. -1.
         -2   -1    0    0    0  501 -0.00000000000E+00 -0.00000000000E+00 -0.11040764026E+03  0.11040764029E+03  0.25500000000E-02 0.  1.
         23    2    1    2    0    0  0.00000000000E+00 -0.71054273576E-14 -0.90681889447E+02  0.13013339126E+03  0.93335386901E+02 0.  0.
    9000005    2    3    3    0    0 -0.44266555819E+01 -0.39321498214E+02 -0.11075505954E+02  0.41234843501E+02  0.34452844514E+01 0.  0.
         22    1    3    3    0    0  0.44266555819E+01  0.39321498214E+02 -0.79606383493E+02  0.88898547763E+02  0.00000000000E+00 0.  1.
         22    1    4    4    0    0 -0.42068952064E+01 -0.36658846274E+02 -0.93884959584E+01  0.38075094665E+02  0.00000000000E+00 0.  1.
         22    1    4    4    0    0 -0.21976037546E+00 -0.26626519399E+01 -0.16870099957E+01  0.31597488352E+01  0.00000000000E+00 0.  1.
<mgrwt>
<rscale>  0 0.93335387E+02</rscale>
<asrwt>0</asrwt>
<pdfrwt beam="1">  1        2 0.30347310E-02 0.93335387E+02</pdfrwt>
<pdfrwt beam="2">  1       -2 0.16985790E-01 0.93335387E+02</pdfrwt>
<totfact> 0.73031973E+04</totfact>
</mgrwt>
</event>
<event>
 7    1  0.3337990E-009  0.9009802E+02  0.7818608E-02  0.1302614E+00
         -2   -1    0    0    0  501 -0.00000000000E+00  0.00000000000E+00  0.29738751338E+03  0.29738751339E+03  0.25500000000E-02 0.  1.
          2   -1    0    0  501    0  0.00000000000E+00 -0.00000000000E+00 -0.68241378668E+01  0.68241383433E+01  0.25500000000E-02 0. -1.
         23    2    1    2    0    0  0.00000000000E+00  0.00000000000E+00  0.29056337551E+03  0.30421165173E+03  0.90098023625E+02 0.  0.
    9000005    2    3    3    0    0  0.12339943445E+02  0.42920779411E+02  0.12602720541E+03  0.13372230080E+03  0.20807975729E+01 0.  0.
         22    1    3    3    0    0 -0.12339943445E+02 -0.42920779411E+02  0.16453617010E+03  0.17048935093E+03  0.00000000000E+00 0.  1.
         22    1    4    4    0    0  0.13557733532E+01  0.75188449644E+01  0.21203833376E+02  0.22538271913E+02  0.00000000000E+00 0.  1.
         22    1    4    4    0    0  0.10984170092E+02  0.35401934447E+02  0.10482337204E+03  0.11118402889E+03  0.00000000000E+00 0.  1.
<mgrwt>
<rscale>  0 0.90098024E+02</rscale>
<asrwt>0</asrwt>
<pdfrwt beam="2">  1        2 0.10498674E-02 0.90098024E+02</pdfrwt>
<pdfrwt beam="1">  1       -2 0.45751925E-01 0.90098024E+02</pdfrwt>
<totfact> 0.52845697E+04</totfact>
</mgrwt>
</event>
<event>
 7    1  0.3337990E-009  0.1018246E+03  0.7818608E-02  0.1276505E+00
          2   -1    0    0  501    0  0.00000000000E+00  0.00000000000E+00  0.10556908955E+03  0.10556908958E+03  0.25500000000E-02 0. -1.
         -2   -1    0    0    0  501 -0.00000000000E+00 -0.00000000000E+00 -0.24553239027E+02  0.24553239159E+02  0.25500000000E-02 0.  1.
         23    2    1    2    0    0  0.00000000000E+00  0.17763568394E-14  0.81015850523E+02  0.13012232874E+03  0.10182461589E+03 0.  0.
    9000005    2    3    3    0    0 -0.47208419149E+02  0.13285702771E+02  0.57101749748E+02  0.75560171960E+02  0.66018956094E+01 0.  0.
         22    1    3    3    0    0  0.47208419149E+02 -0.13285702771E+02  0.23914100775E+02  0.54562156780E+02  0.00000000000E+00 0.  1.
         22    1    4    4    0    0 -0.57323009773E+01  0.19740067212E+01  0.41181567521E+01  0.73290648834E+01  0.00000000000E+00 0. -1.
         22    1    4    4    0    0 -0.41476118171E+02  0.11311696050E+02  0.52983592996E+02  0.68231107076E+02  0.00000000000E+00 0. -1.
<mgrwt>
<rscale>  0 0.10182462E+03</rscale>
<asrwt>0</asrwt>
<pdfrwt beam="1">  1        2 0.16241398E-01 0.10182462E+03</pdfrwt>
<pdfrwt beam="2">  1       -2 0.37774215E-02 0.10182462E+03</pdfrwt>
<totfact> 0.91843327E+04</totfact>
</mgrwt>
</event>
<event>
 7    1  0.3337990E-009  0.8978989E+02  0.7818608E-02  0.1303361E+00
         -2   -1    0    0    0  501 -0.00000000000E+00  0.00000000000E+00  0.28958307994E+02  0.28958308106E+02  0.25500000000E-02 0.  1.
          2   -1    0    0  501    0  0.00000000000E+00 -0.00000000000E+00 -0.69602001295E+02  0.69602001341E+02  0.25500000000E-02 0. -1.
         23    2    1    2    0    0 -0.35527136788E-14  0.00000000000E+00 -0.40643693301E+02  0.98560309447E+02  0.89789892489E+02 0.  0.
    9000005    2    3    3    0    0  0.21727355462E+02 -0.22857448582E+02  0.14417618555E+02  0.35107263859E+02  0.54873782270E+01 0.  0.
         22    1    3    3    0    0 -0.21727355462E+02  0.22857448582E+02 -0.55061311856E+02  0.63453045588E+02  0.00000000000E+00 0. -1.
         22    1    4    4    0    0  0.36002679161E+01 -0.15658267409E+01  0.80811545478E+00  0.40083404344E+01  0.00000000000E+00 0.  1.
         22    1    4    4    0    0  0.18127087546E+02 -0.21291621841E+02  0.13609503100E+02  0.31098923425E+02  0.00000000000E+00 0.  1.
<mgrwt>
<rscale>  0 0.89789892E+02</rscale>
<asrwt>0</asrwt>
<pdfrwt beam="2">  1        2 0.10708000E-01 0.89789892E+02</pdfrwt>
<pdfrwt beam="1">  1       -2 0.44551244E-02 0.89789892E+02</pdfrwt>
<totfact> 0.11527561E+05</totfact>
</mgrwt>
</event>
<event>
 7    1  0.3642227E-009  0.9136717E+02  0.7818608E-02  0.1299574E+00
          2   -1    0    0  501    0  0.00000000000E+00  0.00000000000E+00  0.72007662617E+03  0.72007662618E+03  0.25500000000E-02 0. -1.
         -2   -1    0    0    0  501 -0.00000000000E+00 -0.00000000000E+00 -0.28982881712E+01  0.28982892930E+01  0.25500000000E-02 0.  1.
         23    2    1    2    0    0  0.35527136788E-14  0.00000000000E+00  0.71717833800E+03  0.72297491547E+03  0.91367170803E+02 0.  0.
    9000005    2    3    3    0    0 -0.30651092895E+02  0.21993096966E+02  0.55325072289E+03  0.55476240463E+03  0.15867494874E+02 0.  0.
         22    1    3    3    0    0  0.30651092895E+02 -0.21993096966E+02  0.16392761511E+03  0.16821251085E+03  0.00000000000E+00 0.  1.
         22    1    4    4    0    0 -0.14599472538E+02  0.19672754141E+02  0.30484184796E+03  0.30582464603E+03  0.00000000000E+00 0.  1.
         22    1    4    4    0    0 -0.16051620357E+02  0.23203428243E+01  0.24840887493E+03  0.24893775859E+03  0.00000000000E+00 0.  1.
<mgrwt>
<rscale>  0 0.91367171E+02</rscale>
<asrwt>0</asrwt>
<pdfrwt beam="1">  1        2 0.11078121E+00 0.91367171E+02</pdfrwt>
<pdfrwt beam="2">  1       -2 0.44588982E-03 0.91367171E+02</pdfrwt>
<totfact> 0.23736420E+05</totfact>
</mgrwt>
</event>
<event>
 7    1  0.3337990E-009  0.9346295E+02  0.7818608E-02  0.1294676E+00
          2   -1    0    0  501    0  0.00000000000E+00  0.00000000000E+00  0.17374721200E+02  0.17374721387E+02  0.25500000000E-02 0.  1.
         -2   -1    0    0    0  501 -0.00000000000E+00 -0.00000000000E+00 -0.12569011424E+03  0.12569011427E+03  0.25500000000E-02 0. -1.
         23    2    1    2    0    0  0.00000000000E+00  0.00000000000E+00 -0.10831539304E+03  0.14306483566E+03  0.93462948974E+02 0.  0.
    9000005    2    3    3    0    0  0.29585298959E+02 -0.20358777434E+02 -0.98629220336E+02  0.10586817351E+03  0.13804974646E+02 0.  0.
         22    1    3    3    0    0 -0.29585298959E+02  0.20358777434E+02 -0.96861727066E+01  0.37196662146E+02  0.00000000000E+00 0.  1.
         22    1    4    4    0    0  0.21815356827E+02 -0.17648527764E+02 -0.88360463086E+02  0.92708962687E+02  0.00000000000E+00 0.  1.
         22    1    4    4    0    0  0.77699421316E+01 -0.27102496699E+01 -0.10268757251E+02  0.13159210823E+02  0.00000000000E+00 0.  1.
<mgrwt>
<rscale>  0 0.93462949E+02</rscale>
<asrwt>0</asrwt>
<pdfrwt beam="1">  1        2 0.26730341E-02 0.93462949E+02</pdfrwt>
<pdfrwt beam="2">  1       -2 0.19336940E-01 0.93462949E+02</pdfrwt>
<totfact> 0.69792523E+04</totfact>
</mgrwt>
</event>
<event>
 7    1  0.3337990E-009  0.9084977E+02  0.7818608E-02  0.1300807E+00
         -2   -1    0    0    0  501 -0.00000000000E+00  0.00000000000E+00  0.91957426083E+01  0.91957429619E+01  0.25500000000E-02 0. -1.
          2   -1    0    0  501    0  0.00000000000E+00 -0.00000000000E+00 -0.22438865927E+03  0.22438865928E+03  0.25500000000E-02 0.  1.
         23    2    1    2    0    0 -0.17763568394E-14  0.00000000000E+00 -0.21519291666E+03  0.23358440224E+03  0.90849774856E+02 0.  0.
    9000005    2    3    3    0    0  0.10595319121E+02  0.65780777266E+01 -0.21956750712E+03  0.22036816467E+03  0.14025188830E+02 0.  0.
         22    1    3    3    0    0 -0.10595319121E+02 -0.65780777266E+01  0.43745904653E+01  0.13216237573E+02  0.00000000000E+00 0. -1.
         22    1    4    4    0    0 -0.21085514839E+01  0.25852056588E+01 -0.10101981672E+03  0.10107488634E+03  0.00000000000E+00 0.  1.
         22    1    4    4    0    0  0.12703870605E+02  0.39928720678E+01 -0.11854769040E+03  0.11929327833E+03  0.00000000000E+00 0.  1.
<mgrwt>
<rscale>  0 0.90849775E+02</rscale>
<asrwt>0</asrwt>
<pdfrwt beam="2">  1        2 0.34521328E-01 0.90849775E+02</pdfrwt>
<pdfrwt beam="1">  1       -2 0.14147298E-02 0.90849775E+02</pdfrwt>
<totfact> 0.16286736E+05</totfact>
</mgrwt>
</event>
<event>
 7    1  0.3337990E-009  0.9573976E+02  0.7818608E-02  0.1289519E+00
          2   -1    0    0  501    0  0.00000000000E+00  0.00000000000E+00  0.26282115318E+02  0.26282115442E+02  0.25500000000E-02 0. -1.
         -2   -1    0    0    0  501 -0.00000000000E+00 -0.00000000000E+00 -0.87189527305E+02  0.87189527343E+02  0.25500000000E-02 0.  1.
         23    2    1    2    0    0  0.00000000000E+00  0.22204460493E-15 -0.60907411987E+02  0.11347164278E+03  0.95739756012E+02 0.  0.
    9000005    2    3    3    0    0 -0.36324795632E+02  0.10877608640E+01 -0.67340781517E+02  0.76565515313E+02  0.26121405703E+01 0.  0.
         22    1    3    3    0    0  0.36324795632E+02 -0.10877608640E+01  0.64333695299E+01  0.36906127471E+02  0.00000000000E+00 0. -1.
         22    1    4    4    0    0 -0.39165038190E+01  0.56521674235E+00 -0.59907885952E+01  0.71796949881E+01  0.00000000000E+00 0. -1.
         22    1    4    4    0    0 -0.32408291813E+02  0.52254412165E+00 -0.61349992922E+02  0.69385820325E+02  0.00000000000E+00 0. -1.
<mgrwt>
<rscale>  0 0.95739756E+02</rscale>
<asrwt>0</asrwt>
<pdfrwt beam="1">  1        2 0.40434024E-02 0.95739756E+02</pdfrwt>
<pdfrwt beam="2">  1       -2 0.13413773E-01 0.95739756E+02</pdfrwt>
<totfact> 0.73617775E+04</totfact>
</mgrwt>
</event>
<event>
 7    1  0.3337990E-009  0.9417577E+02  0.7818608E-02  0.1293043E+00
          2   -1    0    0  501    0  0.00000000000E+00  0.00000000000E+00  0.13563382045E+02  0.13563382285E+02  0.25500000000E-02 0. -1.
         -2   -1    0    0    0  501 -0.00000000000E+00 -0.00000000000E+00 -0.16347463291E+03  0.16347463293E+03  0.25500000000E-02 0.  1.
         23    2    1    2    0    0  0.00000000000E+00  0.00000000000E+00 -0.14991125087E+03  0.17703801522E+03  0.94175770214E+02 0.  0.
    9000005    2    3    3    0    0  0.15154550068E+02 -0.23156265149E+02 -0.14601657706E+03  0.14909089573E+03  0.11890391559E+02 0.  0.
         22    1    3    3    0    0 -0.15154550068E+02  0.23156265149E+02 -0.38946738105E+01  0.27947119485E+02  0.00000000000E+00 0. -1.
         22    1    4    4    0    0  0.37573850812E+01 -0.16235437093E+02 -0.87715424642E+02  0.89284394384E+02  0.00000000000E+00 0. -1.
         22    1    4    4    0    0  0.11397164987E+02 -0.69208280563E+01 -0.58301152414E+02  0.59806501348E+02  0.00000000000E+00 0. -1.
<mgrwt>
<rscale>  0 0.94175770E+02</rscale>
<asrwt>0</asrwt>
<pdfrwt beam="1">  1        2 0.20866743E-02 0.94175770E+02</pdfrwt>
<pdfrwt beam="2">  1       -2 0.25149942E-01 0.94175770E+02</pdfrwt>
<totfact> 0.62308614E+04</totfact>
</mgrwt>
</event>
<event>
 7    1  0.3337990E-009  0.9097411E+02  0.7818608E-02  0.1300510E+00
          2   -1    0    0  501    0  0.00000000000E+00  0.00000000000E+00  0.46626890364E+03  0.46626890365E+03  0.25500000000E-02 0. -1.
         -2   -1    0    0    0  501 -0.00000000000E+00 -0.00000000000E+00 -0.44375079156E+01  0.44375086483E+01  0.25500000000E-02 0.  1.
         23    2    1    2    0    0  0.83266726847E-16  0.00000000000E+00  0.46183139573E+03  0.47070641230E+03  0.90974108950E+02 0.  0.
    9000005    2    3    3    0    0  0.18484789976E+00 -0.42204025680E+02  0.30938644782E+03  0.31252715925E+03  0.13116296047E+02 0.  0.
         22    1    3    3    0    0 -0.18484789976E+00  0.42204025680E+02  0.15244494791E+03  0.15817925305E+03  0.00000000000E+00 0. -1.
         22    1    4    4    0    0  0.28098732658E+01 -0.15197150247E+01  0.15444542335E+02  0.15771455528E+02  0.00000000000E+00 0.  1.
         22    1    4    4    0    0 -0.26250253660E+01 -0.40684310656E+02  0.29394190548E+03  0.29675570372E+03  0.00000000000E+00 0.  1.
<mgrwt>
<rscale>  0 0.90974109E+02</rscale>
<asrwt>0</asrwt>
<pdfrwt beam="1">  1        2 0.71733682E-01 0.90974109E+02</pdfrwt>
<pdfrwt beam="2">  1       -2 0.68269354E-03 0.90974109E+02</pdfrwt>
<totfact> 0.21181334E+05</totfact>
</mgrwt>
</event>
<event>
 7    1  0.3337990E-009  0.9233354E+02  0.7818608E-02  0.1297297E+00
         -2   -1    0    0    0  501 -0.00000000000E+00  0.00000000000E+00  0.13636893046E+03  0.13636893049E+03  0.25500000000E-02 0.  1.
          2   -1    0    0  501    0  0.00000000000E+00 -0.00000000000E+00 -0.15629446107E+02  0.15629446315E+02  0.25500000000E-02 0. -1.
         23    2    1    2    0    0  0.00000000000E+00  0.00000000000E+00  0.12073948436E+03  0.15199837680E+03  0.92333544651E+02 0.  0.
    9000005    2    3    3    0    0  0.38057937915E+02  0.21648574428E+02  0.41507480556E+02  0.61473364572E+02  0.11791361100E+02 0.  0.
         22    1    3    3    0    0 -0.38057937915E+02 -0.21648574428E+02  0.79232003799E+02  0.90525012230E+02  0.00000000000E+00 0.  1.
         22    1    4    4    0    0  0.16604193990E+02  0.15193349834E+02  0.25042800967E+02  0.33670150244E+02  0.00000000000E+00 0.  1.
         22    1    4    4    0    0  0.21453743925E+02  0.64552245940E+01  0.16464679590E+02  0.27803214328E+02  0.00000000000E+00 0.  1.
<mgrwt>
<rscale>  0 0.92333545E+02</rscale>
<asrwt>0</asrwt>
<pdfrwt beam="2">  1        2 0.24045302E-02 0.92333545E+02</pdfrwt>
<pdfrwt beam="1">  1       -2 0.20979836E-01 0.92333545E+02</pdfrwt>
<totfact> 0.69993803E+04</totfact>
</mgrwt>
</event>
<event>
 7    1  0.3337990E-009  0.8969581E+02  0.7818608E-02  0.1303590E+00
         -2   -1    0    0    0  501 -0.00000000000E+00  0.00000000000E+00  0.76856511994E+01  0.76856516224E+01  0.25500000000E-02 0. -1.
          2   -1    0    0  501    0  0.00000000000E+00 -0.00000000000E+00 -0.26169997014E+03  0.26169997015E+03  0.25500000000E-02 0.  1.
         23    2    1    2    0    0  0.35527136788E-14  0.00000000000E+00 -0.25401431894E+03  0.26938562177E+03  0.89695813683E+02 0.  0.
    9000005    2    3    3    0    0 -0.25354785917E+02 -0.17491804636E+02 -0.22467368806E+03  0.22684504093E+03  0.56194384774E+01 0.  0.
         22    1    3    3    0    0  0.25354785917E+02  0.17491804636E+02 -0.29340630881E+02  0.42540580848E+02  0.00000000000E+00 0. -1.
         22    1    4    4    0    0 -0.55033499268E+01 -0.21520616021E+01 -0.31542250807E+02  0.32090992747E+02  0.00000000000E+00 0. -1.
         22    1    4    4    0    0 -0.19851435991E+02 -0.15339743034E+02 -0.19313143725E+03  0.19475404818E+03  0.00000000000E+00 0. -1.
<mgrwt>
<rscale>  0 0.89695814E+02</rscale>
<asrwt>0</asrwt>
<pdfrwt beam="2">  1        2 0.40261527E-01 0.89695814E+02</pdfrwt>
<pdfrwt beam="1">  1       -2 0.11824081E-02 0.89695814E+02</pdfrwt>
<totfact> 0.17837177E+05</totfact>
</mgrwt>
</event>
<event>
 7    1  0.3337990E-009  0.9206954E+02  0.7818608E-02  0.1297916E+00
          2   -1    0    0  501    0  0.00000000000E+00  0.00000000000E+00  0.22933391502E+02  0.22933391643E+02  0.25500000000E-02 0.  1.
         -2   -1    0    0    0  501 -0.00000000000E+00 -0.00000000000E+00 -0.92406752325E+02  0.92406752360E+02  0.25500000000E-02 0. -1.
         23    2    1    2    0    0  0.00000000000E+00  0.00000000000E+00 -0.69473360823E+02  0.11534014400E+03  0.92069544121E+02 0.  0.
    9000005    2    3    3    0    0 -0.27529368084E+02  0.14905730193E+02 -0.76463008592E+02  0.83263640522E+02  0.10305107967E+02 0.  0.
         22    1    3    3    0    0  0.27529368084E+02 -0.14905730193E+02  0.69896477691E+01  0.32076503482E+02  0.00000000000E+00 0.  1.
         22    1    4    4    0    0 -0.13094936671E+01  0.45864860892E+01 -0.11843988641E+02  0.12768347396E+02  0.00000000000E+00 0. -1.
         22    1    4    4    0    0 -0.26219874417E+02  0.10319244104E+02 -0.64619019952E+02  0.70495293125E+02  0.00000000000E+00 0. -1.
<mgrwt>
<rscale>  0 0.92069544E+02</rscale>
<asrwt>0</asrwt>
<pdfrwt beam="1">  1        2 0.35282141E-02 0.92069544E+02</pdfrwt>
<pdfrwt beam="2">  1       -2 0.14216423E-01 0.92069544E+02</pdfrwt>
<totfact> 0.79730334E+04</totfact>
</mgrwt>
</event>
<event>
 7    1  0.3337990E-009  0.9127222E+02  0.7818608E-02  0.1299800E+00
         -2   -1    0    0    0  501 -0.00000000000E+00  0.00000000000E+00  0.19210975941E+01  0.19210992865E+01  0.25500000000E-02 0.  1.
          2   -1    0    0  501    0  0.00000000000E+00 -0.00000000000E+00 -0.10840956166E+04  0.10840956166E+04  0.25500000000E-02 0. -1.
         23    2    1    2    0    0 -0.17763568394E-14  0.00000000000E+00 -0.10821745190E+04  0.10860167159E+04  0.91272217055E+02 0.  0.
    9000005    2    3    3    0    0  0.15245935629E+02  0.22573166952E+02 -0.97603471453E+03  0.97643731768E+03  0.66396504295E+01 0.  0.
         22    1    3    3    0    0 -0.15245935629E+02 -0.22573166952E+02 -0.10613980451E+03  0.10957939825E+03  0.00000000000E+00 0.  1.
         22    1    4    4    0    0  0.15919309066E+02  0.21299054966E+02 -0.92163026938E+03  0.92201378926E+03  0.00000000000E+00 0.  1.
         22    1    4    4    0    0 -0.67337343648E+00  0.12741119861E+01 -0.54404445154E+02  0.54423528420E+02  0.00000000000E+00 0.  1.
<mgrwt>
<rscale>  0 0.91272217E+02</rscale>
<asrwt>0</asrwt>
<pdfrwt beam="2">  1        2 0.16678345E+00 0.91272217E+02</pdfrwt>
<pdfrwt beam="1">  1       -2 0.29555447E-03 0.91272217E+02</pdfrwt>
<totfact> 0.24959181E+05</totfact>
</mgrwt>
</event>
<event>
 7    1  0.3337990E-009  0.9137103E+02  0.7818608E-02  0.1299565E+00
          2   -1    0    0  501    0  0.00000000000E+00  0.00000000000E+00  0.56443460504E+02  0.56443460561E+02  0.25500000000E-02 0. -1.
         -2   -1    0    0    0  501 -0.00000000000E+00 -0.00000000000E+00 -0.36978001572E+02  0.36978001660E+02  0.25500000000E-02 0.  1.
         23    2    1    2    0    0  0.00000000000E+00  0.00000000000E+00  0.19465458932E+02  0.93421462221E+02  0.91371032128E+02 0.  0.
    9000005    2    3    3    0    0  0.16324065441E+02 -0.40463529865E+02  0.21410250682E+02  0.49745901816E+02  0.10605826303E+02 0.  0.
         22    1    3    3    0    0 -0.16324065441E+02  0.40463529865E+02 -0.19447917502E+01  0.43675560405E+02  0.00000000000E+00 0.  1.
         22    1    4    4    0    0  0.57156880957E+00 -0.59493586874E+01 -0.39011966436E+00  0.59894701809E+01  0.00000000000E+00 0.  1.
         22    1    4    4    0    0  0.15752496631E+02 -0.34514171178E+02  0.21800370346E+02  0.43756431635E+02  0.00000000000E+00 0.  1.
<mgrwt>
<rscale>  0 0.91371032E+02</rscale>
<asrwt>0</asrwt>
<pdfrwt beam="1">  1        2 0.86836093E-02 0.91371032E+02</pdfrwt>
<pdfrwt beam="2">  1       -2 0.56889234E-02 0.91371032E+02</pdfrwt>
<totfact> 0.10372676E+05</totfact>
</mgrwt>
</event>
<event>
 7    1  0.3337990E-009  0.9232489E+02  0.7818608E-02  0.1297317E+00
          2   -1    0    0  501    0  0.00000000000E+00  0.00000000000E+00  0.24549969270E+02  0.24549969403E+02  0.25500000000E-02 0. -1.
         -2   -1    0    0    0  501 -0.00000000000E+00 -0.00000000000E+00 -0.86801385885E+02  0.86801385923E+02  0.25500000000E-02 0.  1.
         23    2    1    2    0    0  0.00000000000E+00  0.00000000000E+00 -0.62251416615E+02  0.11135135533E+03  0.92324890806E+02 0.  0.
    9000005    2    3    3    0    0 -0.29479028431E+01 -0.33371941418E+02  0.38429541821E+01  0.37251136323E+02  0.15827263039E+02 0.  0.
         22    1    3    3    0    0  0.29479028431E+01  0.33371941418E+02 -0.66094370797E+02  0.74100219003E+02  0.00000000000E+00 0. -1.
         22    1    4    4    0    0 -0.30412296990E+01 -0.13383980771E+01  0.40219710401E+01  0.52169568277E+01  0.00000000000E+00 0.  1.
         22    1    4    4    0    0  0.93326855936E-01 -0.32033543341E+02 -0.17901685801E+00  0.32034179495E+02  0.00000000000E+00 0.  1.
<mgrwt>
<rscale>  0 0.92324891E+02</rscale>
<asrwt>0</asrwt>
<pdfrwt beam="1">  1        2 0.37769184E-02 0.92324891E+02</pdfrwt>
<pdfrwt beam="2">  1       -2 0.13354059E-01 0.92324891E+02</pdfrwt>
<totfact> 0.80626683E+04</totfact>
</mgrwt>
</event>
<event>
 7    1  0.3337990E-009  0.9234748E+02  0.7818608E-02  0.1297264E+00
          2   -1    0    0  501    0  0.00000000000E+00  0.00000000000E+00  0.44174244921E+02  0.44174244995E+02  0.25500000000E-02 0. -1.
         -2   -1    0    0    0  501 -0.00000000000E+00 -0.00000000000E+00 -0.48263738046E+02  0.48263738113E+02  0.25500000000E-02 0.  1.
         23    2    1    2    0    0  0.17763568394E-14  0.00000000000E+00 -0.40894931244E+01  0.92437983108E+02  0.92347478401E+02 0.  0.
    9000005    2    3    3    0    0  0.91045227718E+01 -0.40891091416E+02  0.14655418301E+02  0.46543044428E+02  0.14017846015E+02 0.  0.
         22    1    3    3    0    0 -0.91045227718E+01  0.40891091416E+02 -0.18744911426E+02  0.45894938680E+02  0.00000000000E+00 0.  1.
         22    1    4    4    0    0  0.12750138807E+00 -0.17384521242E+02 -0.76742987100E-01  0.17385158179E+02  0.00000000000E+00 0.  1.
         22    1    4    4    0    0  0.89770213837E+01 -0.23506570174E+02  0.14732161289E+02  0.29157886249E+02  0.00000000000E+00 0.  1.
<mgrwt>
<rscale>  0 0.92347478E+02</rscale>
<asrwt>0</asrwt>
<pdfrwt beam="1">  1        2 0.67960377E-02 0.92347478E+02</pdfrwt>
<pdfrwt beam="2">  1       -2 0.74251905E-02 0.92347478E+02</pdfrwt>
<totfact> 0.94337706E+04</totfact>
</mgrwt>
</event>
<event>
 7    1  0.3337990E-009  0.8747409E+02  0.7818608E-02  0.1309086E+00
          2   -1    0    0  501    0  0.00000000000E+00  0.00000000000E+00  0.52862531860E+02  0.52862531921E+02  0.25500000000E-02 0. -1.
         -2   -1    0    0    0  501 -0.00000000000E+00 -0.00000000000E+00 -0.36186857506E+02  0.36186857596E+02  0.25500000000E-02 0.  1.
         23    2    1    2    0    0 -0.17763568394E-14  0.00000000000E+00  0.16675674354E+02  0.89049389517E+02  0.87474085638E+02 0.  0.
    9000005    2    3    3    0    0 -0.15298714722E+02  0.39105561106E+02 -0.21353071214E+01  0.43036906367E+02  0.91826026553E+01 0.  0.
         22    1    3    3    0    0  0.15298714722E+02 -0.39105561106E+02  0.18810981475E+02  0.46012483150E+02  0.00000000000E+00 0. -1.
         22    1    4    4    0    0 -0.14132511400E+02  0.34291793210E+02 -0.48222791314E+01  0.37401996418E+02  0.00000000000E+00 0.  1.
         22    1    4    4    0    0 -0.11662033223E+01  0.48137678960E+01  0.26869720100E+01  0.56349099485E+01  0.00000000000E+00 0.  1.
<mgrwt>
<rscale>  0 0.87474086E+02</rscale>
<asrwt>0</asrwt>
<pdfrwt beam="1">  1        2 0.81326973E-02 0.87474086E+02</pdfrwt>
<pdfrwt beam="2">  1       -2 0.55672088E-02 0.87474086E+02</pdfrwt>
<totfact> 0.11532297E+05</totfact>
</mgrwt>
</event>
<event>
 7    1  0.3337990E-009  0.9167497E+02  0.7818608E-02  0.1298845E+00
          2   -1    0    0  501    0  0.00000000000E+00  0.00000000000E+00  0.10210468559E+02  0.10210468877E+02  0.25500000000E-02 0. -1.
         -2   -1    0    0    0  501 -0.00000000000E+00 -0.00000000000E+00 -0.20577653831E+03  0.20577653833E+03  0.25500000000E-02 0.  1.
         23    2    1    2    0    0  0.35527136788E-14  0.35527136788E-14 -0.19556606975E+03  0.21598700720E+03  0.91674967373E+02 0.  0.
    9000005    2    3    3    0    0  0.30021006762E+02  0.23764248571E+02 -0.44348315002E+02  0.59997232832E+02  0.12918767234E+02 0.  0.
         22    1    3    3    0    0 -0.30021006762E+02 -0.23764248571E+02 -0.15121775475E+03  0.15598977437E+03  0.00000000000E+00 0.  1.
         22    1    4    4    0    0  0.64009474546E+01  0.40295772962E+01 -0.23353812206E+01  0.79160360628E+01  0.00000000000E+00 0.  1.
         22    1    4    4    0    0  0.23620059307E+02  0.19734671274E+02 -0.42012933781E+02  0.52081196769E+02  0.00000000000E+00 0.  1.
<mgrwt>
<rscale>  0 0.91674967E+02</rscale>
<asrwt>0</asrwt>
<pdfrwt beam="1">  1        2 0.15708415E-02 0.91674967E+02</pdfrwt>
<pdfrwt beam="2">  1       -2 0.31657926E-01 0.91674967E+02</pdfrwt>
<totfact> 0.60697011E+04</totfact>
</mgrwt>
</event>
<event>
 7    1  0.3337990E-009  0.9384925E+02  0.7818608E-02  0.1293789E+00
         -2   -1    0    0    0  501 -0.00000000000E+00  0.00000000000E+00  0.17674078951E+03  0.17674078953E+03  0.25500000000E-02 0.  1.
          2   -1    0    0  501    0  0.00000000000E+00 -0.00000000000E+00 -0.12458473486E+02  0.12458473747E+02  0.25500000000E-02 0. -1.
         23    2    1    2    0    0 -0.35527136788E-14  0.00000000000E+00  0.16428231602E+03  0.18919926327E+03  0.93849250746E+02 0.  0.
    9000005    2    3    3    0    0  0.20309209203E+02  0.32634374915E+02  0.13407379763E+03  0.14031142237E+03  0.15298550021E+02 0.  0.
         22    1    3    3    0    0 -0.20309209203E+02 -0.32634374915E+02  0.30208518393E+02  0.48887840902E+02  0.00000000000E+00 0. -1.
         22    1    4    4    0    0  0.12429070152E+02  0.29002300285E+02  0.89455808201E+02  0.94857560730E+02  0.00000000000E+00 0.  1.
         22    1    4    4    0    0  0.78801390513E+01  0.36320746299E+01  0.44617989426E+02  0.45453861641E+02  0.00000000000E+00 0.  1.
<mgrwt>
<rscale>  0 0.93849251E+02</rscale>
<asrwt>0</asrwt>
<pdfrwt beam="2">  1        2 0.19166884E-02 0.93849251E+02</pdfrwt>
<pdfrwt beam="1">  1       -2 0.27190888E-01 0.93849251E+02</pdfrwt>
<totfact> 0.60959955E+04</totfact>
</mgrwt>
</event>
<event>
 7    1  0.3337990E-009  0.8071259E+02  0.7818608E-02  0.1327041E+00
          2   -1    0    0  501    0  0.00000000000E+00  0.00000000000E+00  0.77636076625E+02  0.77636076666E+02  0.25500000000E-02 0. -1.
         -2   -1    0    0    0  501 -0.00000000000E+00 -0.00000000000E+00 -0.20977753463E+02  0.20977753618E+02  0.25500000000E-02 0.  1.
         23    2    1    2    0    0  0.35527136788E-14  0.00000000000E+00  0.56658323162E+02  0.98613830284E+02  0.80712588484E+02 0.  0.
    9000005    2    3    3    0    0  0.31351208793E+02 -0.22342823970E+02  0.19795777907E+02  0.45313292591E+02  0.13391101026E+02 0.  0.
         22    1    3    3    0    0 -0.31351208793E+02  0.22342823970E+02  0.36862545255E+02  0.53300537693E+02  0.00000000000E+00 0. -1.
         22    1    4    4    0    0  0.26012357365E+02 -0.12024219541E+02  0.10818735963E+02  0.30631187360E+02  0.00000000000E+00 0.  1.
         22    1    4    4    0    0  0.53388514288E+01 -0.10318604429E+02  0.89770419444E+01  0.14682105231E+02  0.00000000000E+00 0.  1.
<mgrwt>
<rscale>  0 0.80712588E+02</rscale>
<asrwt>0</asrwt>
<pdfrwt beam="1">  1        2 0.11944012E-01 0.80712588E+02</pdfrwt>
<pdfrwt beam="2">  1       -2 0.32273467E-02 0.80712588E+02</pdfrwt>
<totfact> 0.15932702E+05</totfact>
</mgrwt>
</event>
<event>
 7    1  0.3337990E-009  0.9295702E+02  0.7818608E-02  0.1295845E+00
         -2   -1    0    0    0  501 -0.00000000000E+00  0.00000000000E+00  0.24221285625E+01  0.24221299049E+01  0.25500000000E-02 0.  1.
          2   -1    0    0  501    0  0.00000000000E+00 -0.00000000000E+00 -0.89188134413E+03  0.89188134414E+03  0.25500000000E-02 0. -1.
         23    2    1    2    0    0  0.00000000000E+00  0.00000000000E+00 -0.88945921557E+03  0.89430347404E+03  0.92957019743E+02 0.  0.
    9000005    2    3    3    0    0 -0.21676699846E+02 -0.20833405859E+02 -0.78570671291E+03  0.78628268010E+03  0.12264559219E+01 0.  0.
         22    1    3    3    0    0  0.21676699846E+02  0.20833405859E+02 -0.10375250266E+03  0.10802079394E+03  0.00000000000E+00 0.  1.
         22    1    4    4    0    0 -0.19422549488E+02 -0.18149419101E+02 -0.69735922654E+03  0.69786569459E+03  0.00000000000E+00 0. -1.
         22    1    4    4    0    0 -0.22541503582E+01 -0.26839867579E+01 -0.88347486367E+02  0.88416985507E+02  0.00000000000E+00 0. -1.
<mgrwt>
<rscale>  0 0.92957020E+02</rscale>
<asrwt>0</asrwt>
<pdfrwt beam="2">  1        2 0.13721225E+00 0.92957020E+02</pdfrwt>
<pdfrwt beam="1">  1       -2 0.37263598E-03 0.92957020E+02</pdfrwt>
<totfact> 0.23537162E+05</totfact>
</mgrwt>
</event>
<event>
 7    1  0.3337990E-009  0.8582665E+02  0.7818608E-02  0.1313285E+00
         -2   -1    0    0    0  501 -0.00000000000E+00  0.00000000000E+00  0.70475360757E+02  0.70475360803E+02  0.25500000000E-02 0.  1.
          2   -1    0    0  501    0  0.00000000000E+00 -0.00000000000E+00 -0.26130455829E+02  0.26130455953E+02  0.25500000000E-02 0. -1.
         23    2    1    2    0    0  0.00000000000E+00 -0.35527136788E-14  0.44344904928E+02  0.96605816756E+02  0.85826646434E+02 0.  0.
    9000005    2    3    3    0    0  0.89307944399E+01  0.25705171710E+02 -0.13600824567E+02  0.32588455762E+02  0.11683752739E+02 0.  0.
         22    1    3    3    0    0 -0.89307944399E+01 -0.25705171710E+02  0.57945729495E+02  0.64017360994E+02  0.00000000000E+00 0.  1.
         22    1    4    4    0    0  0.11622334700E+02  0.20604449557E+02 -0.94094427299E+01  0.25458979122E+02  0.00000000000E+00 0.  1.
         22    1    4    4    0    0 -0.26915402606E+01  0.51007221522E+01 -0.41913818373E+01  0.71294766396E+01  0.00000000000E+00 0.  1.
<mgrwt>
<rscale>  0 0.85826646E+02</rscale>
<asrwt>0</asrwt>
<pdfrwt beam="2">  1        2 0.40200702E-02 0.85826646E+02</pdfrwt>
<pdfrwt beam="1">  1       -2 0.10842363E-01 0.85826646E+02</pdfrwt>
<totfact> 0.10205092E+05</totfact>
</mgrwt>
</event>
<event>
 6    1  0.3337990E-009  0.1895550E+03  0.7818608E-02  0.1158863E+00
         -2   -1    0    0    0  501 -0.00000000000E+00  0.00000000000E+00  0.62078770527E+01  0.62078775764E+01  0.25500000000E-02 0.  1.
          2   -1    0    0  501    0  0.00000000000E+00 -0.00000000000E+00 -0.14469958013E+04  0.14469958013E+04  0.25500000000E-02 0. -1.
    9000005    2    1    2    0    0  0.75974960674E+02  0.47457976831E+02 -0.95463333406E+03  0.95886498954E+03  0.85329630300E+01 0.  0.
         22    1    1    2    0    0 -0.75974960674E+02 -0.47457976831E+02 -0.48615459019E+03  0.49433868934E+03  0.00000000000E+00 0.  1.
         22    1    3    3    0    0  0.48100730009E+02  0.28084077665E+02 -0.55187827330E+03  0.55468191262E+03  0.00000000000E+00 0.  1.
         22    1    3    3    0    0  0.27874230664E+02  0.19373899167E+02 -0.40275506076E+03  0.40418307693E+03  0.00000000000E+00 0.  1.
<mgrwt>
<rscale>  0 0.18955498E+03</rscale>
<asrwt>0</asrwt>
<pdfrwt beam="2">  1        2 0.22261447E+00 0.18955498E+03</pdfrwt>
<pdfrwt beam="1">  1       -2 0.95505920E-03 0.18955498E+03</pdfrwt>
<totfact> 0.32498508E+04</totfact>
</mgrwt>
</event>
<event>
 7    1  0.3337990E-009  0.9181381E+02  0.7818608E-02  0.1298518E+00
         -2   -1    0    0    0  501 -0.00000000000E+00  0.00000000000E+00  0.77183400531E+02  0.77183400573E+02  0.25500000000E-02 0.  1.
          2   -1    0    0  501    0  0.00000000000E+00 -0.00000000000E+00 -0.27304367151E+02  0.27304367270E+02  0.25500000000E-02 0. -1.
         23    2    1    2    0    0  0.00000000000E+00  0.00000000000E+00  0.49879033380E+02  0.10448776784E+03  0.91813809735E+02 0.  0.
    9000005    2    3    3    0    0  0.30836024799E+02 -0.24101384011E+01  0.62532336820E+02  0.71069579974E+02  0.13561816141E+02 0.  0.
         22    1    3    3    0    0 -0.30836024799E+02  0.24101384011E+01 -0.12653303440E+02  0.33418187869E+02  0.00000000000E+00 0.  1.
         22    1    4    4    0    0  0.23048055731E+02 -0.76277166563E+00  0.31540110805E+02  0.39071387014E+02  0.00000000000E+00 0. -1.
         22    1    4    4    0    0  0.77879690674E+01 -0.16473667355E+01  0.30992226015E+02  0.31998192961E+02  0.00000000000E+00 0. -1.
<mgrwt>
<rscale>  0 0.91813810E+02</rscale>
<asrwt>0</asrwt>
<pdfrwt beam="2">  1        2 0.42006720E-02 0.91813810E+02</pdfrwt>
<pdfrwt beam="1">  1       -2 0.11874369E-01 0.91813810E+02</pdfrwt>
<totfact> 0.84465878E+04</totfact>
</mgrwt>
</event>
<event>
 7    1  0.3337990E-009  0.9329583E+02  0.7818608E-02  0.1295061E+00
         -2   -1    0    0    0  501 -0.00000000000E+00  0.00000000000E+00  0.12987130791E+02  0.12987131041E+02  0.25500000000E-02 0.  1.
          2   -1    0    0  501    0  0.00000000000E+00 -0.00000000000E+00 -0.16755262578E+03  0.16755262580E+03  0.25500000000E-02 0. -1.
         23    2    1    2    0    0  0.00000000000E+00  0.35527136788E-14 -0.15456549499E+03  0.18053975684E+03  0.93295828196E+02 0.  0.
    9000005    2    3    3    0    0 -0.27054553630E+02  0.31034413474E+02 -0.11765589618E+03  0.12524597621E+03  0.12188558567E+02 0.  0.
         22    1    3    3    0    0  0.27054553630E+02 -0.31034413474E+02 -0.36909598810E+02  0.55293780628E+02  0.00000000000E+00 0.  1.
         22    1    4    4    0    0 -0.24394202230E+02  0.25029267591E+02 -0.84448055953E+02  0.91394832966E+02  0.00000000000E+00 0. -1.
         22    1    4    4    0    0 -0.26603513996E+01  0.60051458832E+01 -0.33207840223E+02  0.33851143244E+02  0.00000000000E+00 0. -1.
<mgrwt>
<rscale>  0 0.93295828E+02</rscale>
<asrwt>0</asrwt>
<pdfrwt beam="2">  1        2 0.25777326E-01 0.93295828E+02</pdfrwt>
<pdfrwt beam="1">  1       -2 0.19980203E-02 0.93295828E+02</pdfrwt>
<totfact> 0.13647086E+05</totfact>
</mgrwt>
</event>
<event>
 7    1  0.3337990E-009  0.9159559E+02  0.7818608E-02  0.1299033E+00
          2   -1    0    0  501    0  0.00000000000E+00  0.00000000000E+00  0.13896316200E+03  0.13896316203E+03  0.25500000000E-02 0. -1.
         -2   -1    0    0    0  501 -0.00000000000E+00 -0.00000000000E+00 -0.15093483195E+02  0.15093483410E+02  0.25500000000E-02 0.  1.
         23    2    1    2    0    0 -0.71054273576E-14  0.00000000000E+00  0.12386967881E+03  0.15405664544E+03  0.91595593100E+02 0.  0.
    9000005    2    3    3    0    0 -0.36317093649E+02  0.12462739439E+02  0.24242574209E+02  0.47286747356E+02  0.13194048120E+02 0.  0.
         22    1    3    3    0    0  0.36317093649E+02 -0.12462739439E+02  0.99627104601E+02  0.10676989808E+03  0.00000000000E+00 0. -1.
         22    1    4    4    0    0  0.57851704587E+00  0.51318236358E+00 -0.80717440747E+00  0.11178410597E+01  0.00000000000E+00 0. -1.
         22    1    4    4    0    0 -0.36895610695E+02  0.11949557075E+02  0.25049748617E+02  0.46168906297E+02  0.00000000000E+00 0. -1.
<mgrwt>
<rscale>  0 0.91595593E+02</rscale>
<asrwt>0</asrwt>
<pdfrwt beam="1">  1        2 0.21378947E-01 0.91595593E+02</pdfrwt>
<pdfrwt beam="2">  1       -2 0.23220744E-02 0.91595593E+02</pdfrwt>
<totfact> 0.13456449E+05</totfact>
</mgrwt>
</event>
<event>
 7    1  0.3337990E-009  0.9118203E+02  0.7818608E-02  0.1300014E+00
          2   -1    0    0  501    0  0.00000000000E+00  0.00000000000E+00  0.87929700687E+01  0.87929704385E+01  0.25500000000E-02 0. -1.
         -2   -1    0    0    0  501 -0.00000000000E+00 -0.00000000000E+00 -0.23638662650E+03  0.23638662651E+03  0.25500000000E-02 0.  1.
         23    2    1    2    0    0  0.00000000000E+00 -0.35527136788E-14 -0.22759365643E+03  0.24517959695E+03  0.91182028459E+02 0.  0.
    9000005    2    3    3    0    0  0.34396395606E+02 -0.24876719956E+02 -0.72615530862E+02  0.84492999404E+02  0.80055230629E+01 0.  0.
         22    1    3    3    0    0 -0.34396395606E+02  0.24876719956E+02 -0.15497812557E+03  0.16068659755E+03  0.00000000000E+00 0.  1.
         22    1    4    4    0    0  0.13540253119E+02 -0.14265277352E+02 -0.29927370561E+02  0.35811787182E+02  0.00000000000E+00 0. -1.
         22    1    4    4    0    0  0.20856142487E+02 -0.10611442604E+02 -0.42688160300E+02  0.48681212222E+02  0.00000000000E+00 0. -1.
<mgrwt>
<rscale>  0 0.91182028E+02</rscale>
<asrwt>0</asrwt>
<pdfrwt beam="1">  1        2 0.13527648E-02 0.91182028E+02</pdfrwt>
<pdfrwt beam="2">  1       -2 0.36367168E-01 0.91182028E+02</pdfrwt>
<totfact> 0.57731698E+04</totfact>
</mgrwt>
</event>
<event>
 7    1  0.3337990E-009  0.9075338E+02  0.7818608E-02  0.1301037E+00
         -2   -1    0    0    0  501 -0.00000000000E+00  0.00000000000E+00  0.18484317783E+02  0.18484317958E+02  0.25500000000E-02 0. -1.
          2   -1    0    0  501    0  0.00000000000E+00 -0.00000000000E+00 -0.11139411295E+03  0.11139411298E+03  0.25500000000E-02 0.  1.
         23    2    1    2    0    0  0.00000000000E+00  0.00000000000E+00 -0.92909795164E+02  0.12987843093E+03  0.90753384425E+02 0.  0.
    9000005    2    3    3    0    0 -0.23502154351E+01  0.13770764940E+02 -0.10768470699E+03  0.10954482577E+03  0.14453900955E+02 0.  0.
         22    1    3    3    0    0  0.23502154351E+01 -0.13770764940E+02  0.14774911827E+02  0.20333605168E+02  0.00000000000E+00 0. -1.
         22    1    4    4    0    0 -0.22316675503E+01 -0.14832164732E+01 -0.43094140605E+02  0.43177369370E+02  0.00000000000E+00 0. -1.
         22    1    4    4    0    0 -0.11854788481E+00  0.15253981413E+02 -0.64590566386E+02  0.66367456397E+02  0.00000000000E+00 0. -1.
<mgrwt>
<rscale>  0 0.90753384E+02</rscale>
<asrwt>0</asrwt>
<pdfrwt beam="2">  1        2 0.17137555E-01 0.90753384E+02</pdfrwt>
<pdfrwt beam="1">  1       -2 0.28437413E-02 0.90753384E+02</pdfrwt>
<totfact> 0.12846507E+05</totfact>
</mgrwt>
</event>
<event>
 7    1  0.3337990E-009  0.1030938E+03  0.7818608E-02  0.1273921E+00
         -2   -1    0    0    0  501 -0.00000000000E+00  0.00000000000E+00  0.81891536500E+02  0.81891536540E+02  0.25500000000E-02 0.  1.
          2   -1    0    0  501    0  0.00000000000E+00 -0.00000000000E+00 -0.32446395060E+02  0.32446395160E+02  0.25500000000E-02 0. -1.
         23    2    1    2    0    0  0.00000000000E+00  0.00000000000E+00  0.49445141440E+02  0.11433793170E+03  0.10309384372E+03 0.  0.
    9000005    2    3    3    0    0  0.79019184113E+01 -0.26692766121E+02 -0.22023710315E+02  0.37638904007E+02  0.12517955147E+02 0.  0.
         22    1    3    3    0    0 -0.79019184113E+01  0.26692766121E+02  0.71468851755E+02  0.76699027693E+02  0.00000000000E+00 0.  1.
         22    1    4    4    0    0  0.46640707245E+01 -0.15786793339E+02 -0.20295307035E+02  0.26131894063E+02  0.00000000000E+00 0. -1.
         22    1    4    4    0    0  0.32378476868E+01 -0.10905972782E+02 -0.17284032796E+01  0.11507009945E+02  0.00000000000E+00 0. -1.
<mgrwt>
<rscale>  0 0.10309384E+03</rscale>
<asrwt>0</asrwt>
<pdfrwt beam="2">  1        2 0.49917531E-02 0.10309384E+03</pdfrwt>
<pdfrwt beam="1">  1       -2 0.12598698E-01 0.10309384E+03</pdfrwt>
<totfact> 0.62526857E+04</totfact>
</mgrwt>
</event>
<event>
 7    1  0.3337990E-009  0.9059514E+02  0.7818608E-02  0.1301417E+00
          2   -1    0    0  501    0  0.00000000000E+00  0.00000000000E+00  0.32435621777E+03  0.32435621778E+03  0.25500000000E-02 0. -1.
         -2   -1    0    0    0  501 -0.00000000000E+00 -0.00000000000E+00 -0.63259765329E+01  0.63259770468E+01  0.25500000000E-02 0.  1.
         23    2    1    2    0    0  0.00000000000E+00  0.00000000000E+00  0.31803024124E+03  0.33068219483E+03  0.90595141339E+02 0.  0.
    9000005    2    3    3    0    0  0.92338669523E+01 -0.22022651618E+02  0.29909393973E+03  0.30020523635E+03  0.97845626090E+01 0.  0.
         22    1    3    3    0    0 -0.92338669523E+01  0.22022651618E+02  0.18936301504E+02  0.30476958474E+02  0.00000000000E+00 0.  1.
         22    1    4    4    0    0  0.80173113825E+01 -0.13445289153E+02  0.13934100606E+03  0.14021757755E+03  0.00000000000E+00 0.  1.
         22    1    4    4    0    0  0.12165555698E+01 -0.85773624646E+01  0.15975293367E+03  0.15998765881E+03  0.00000000000E+00 0.  1.
<mgrwt>
<rscale>  0 0.90595141E+02</rscale>
<asrwt>0</asrwt>
<pdfrwt beam="1">  1        2 0.49900959E-01 0.90595141E+02</pdfrwt>
<pdfrwt beam="2">  1       -2 0.97322715E-03 0.90595141E+02</pdfrwt>
<totfact> 0.18812222E+05</totfact>
</mgrwt>
</event>
<event>
 7    1  0.3337990E-009  0.1024309E+03  0.7818608E-02  0.1275266E+00
          2   -1    0    0  501    0  0.00000000000E+00  0.00000000000E+00  0.21775347514E+03  0.21775347515E+03  0.25500000000E-02 0. -1.
         -2   -1    0    0    0  501 -0.00000000000E+00 -0.00000000000E+00 -0.12045827312E+02  0.12045827582E+02  0.25500000000E-02 0.  1.
         23    2    1    2    0    0  0.00000000000E+00  0.00000000000E+00  0.20570764783E+03  0.22979930274E+03  0.10243087017E+03 0.  0.
    9000005    2    3    3    0    0 -0.19033489224E+02  0.21887681446E+02  0.19698918629E+03  0.19951141931E+03  0.12598516043E+02 0.  0.
         22    1    3    3    0    0  0.19033489224E+02 -0.21887681446E+02  0.87184615352E+01  0.30287883430E+02  0.00000000000E+00 0.  1.
         22    1    4    4    0    0 -0.41644567207E+01  0.14015259060E+02  0.81112600052E+02  0.82419803891E+02  0.00000000000E+00 0.  1.
         22    1    4    4    0    0 -0.14869032504E+02  0.78724223856E+01  0.11587658624E+03  0.11709161542E+03  0.00000000000E+00 0.  1.
<mgrwt>
<rscale>  0 0.10243087E+03</rscale>
<asrwt>0</asrwt>
<pdfrwt beam="1">  1        2 0.33500533E-01 0.10243087E+03</pdfrwt>
<pdfrwt beam="2">  1       -2 0.18532043E-02 0.10243087E+03</pdfrwt>
<totfact> 0.11642778E+05</totfact>
</mgrwt>
</event>
<event>
 7    1  0.3337990E-009  0.9005443E+02  0.7818608E-02  0.1302720E+00
         -2   -1    0    0    0  501 -0.00000000000E+00  0.00000000000E+00  0.24852890881E+01  0.24852903963E+01  0.25500000000E-02 0. -1.
          2   -1    0    0  501    0  0.00000000000E+00 -0.00000000000E+00 -0.81578022706E+03  0.81578022706E+03  0.25500000000E-02 0.  1.
         23    2    1    2    0    0 -0.35527136788E-14  0.00000000000E+00 -0.81329493797E+03  0.81826551746E+03  0.90054433172E+02 0.  0.
    9000005    2    3    3    0    0  0.19763031808E+02 -0.27288600773E+02 -0.67798820552E+03  0.67882679613E+03  0.16022379669E+01 0.  0.
         22    1    3    3    0    0 -0.19763031808E+02  0.27288600773E+02 -0.13530673245E+03  0.13943872133E+03  0.00000000000E+00 0. -1.
         22    1    4    4    0    0  0.16821530310E+02 -0.22392747821E+02 -0.55595920728E+03  0.55666420686E+03  0.00000000000E+00 0. -1.
         22    1    4    4    0    0  0.29415014978E+01 -0.48958529523E+01 -0.12202899824E+03  0.12216258928E+03  0.00000000000E+00 0. -1.
<mgrwt>
<rscale>  0 0.90054433E+02</rscale>
<asrwt>0</asrwt>
<pdfrwt beam="2">  1        2 0.12550444E+00 0.90054433E+02</pdfrwt>
<pdfrwt beam="1">  1       -2 0.38235292E-03 0.90054433E+02</pdfrwt>
<totfact> 0.25266193E+05</totfact>
</mgrwt>
</event>
<event>
 7    1  0.3337990E-009  0.9167772E+02  0.7818608E-02  0.1298839E+00
          2   -1    0    0  501    0  0.00000000000E+00  0.00000000000E+00  0.15209621639E+02  0.15209621853E+02  0.25500000000E-02 0. -1.
         -2   -1    0    0    0  501 -0.00000000000E+00 -0.00000000000E+00 -0.13814947780E+03  0.13814947782E+03  0.25500000000E-02 0.  1.
         23    2    1    2    0    0 -0.28622937354E-16  0.00000000000E+00 -0.12293985616E+03  0.15335909968E+03  0.91677724780E+02 0.  0.
    9000005    2    3    3    0    0 -0.46023281855E-02  0.44133105221E+02 -0.79596975739E+02  0.91501713045E+02  0.94421367217E+01 0.  0.
         22    1    3    3    0    0  0.46023281855E-02 -0.44133105221E+02 -0.43342880422E+02  0.61857386631E+02  0.00000000000E+00 0. -1.
         22    1    4    4    0    0 -0.21860188806E+01  0.41945489692E+02 -0.75058977273E+02  0.86011934366E+02  0.00000000000E+00 0. -1.
         22    1    4    4    0    0  0.21814165524E+01  0.21876155286E+01 -0.45379984652E+01  0.54897786791E+01  0.00000000000E+00 0. -1.
<mgrwt>
<rscale>  0 0.91677725E+02</rscale>
<asrwt>0</asrwt>
<pdfrwt beam="1">  1        2 0.23399419E-02 0.91677725E+02</pdfrwt>
<pdfrwt beam="2">  1       -2 0.21253765E-01 0.91677725E+02</pdfrwt>
<totfact> 0.70944584E+04</totfact>
</mgrwt>
</event>
<event>
 7    1  0.3337990E-009  0.8940598E+02  0.7818608E-02  0.1304297E+00
          2   -1    0    0  501    0  0.00000000000E+00  0.00000000000E+00  0.24776953884E+02  0.24776954015E+02  0.25500000000E-02 0. -1.
         -2   -1    0    0    0  501 -0.00000000000E+00 -0.00000000000E+00 -0.80653867357E+02  0.80653867397E+02  0.25500000000E-02 0.  1.
         23    2    1    2    0    0  0.00000000000E+00  0.00000000000E+00 -0.55876913473E+02  0.10543082141E+03  0.89405976558E+02 0.  0.
    9000005    2    3    3    0    0  0.30329479840E+02  0.14126996998E+01 -0.65411869638E+02  0.73606483919E+02  0.14742073040E+02 0.  0.
         22    1    3    3    0    0 -0.30329479840E+02 -0.14126996998E+01  0.95349561656E+01  0.31824337493E+02  0.00000000000E+00 0. -1.
         22    1    4    4    0    0  0.39153803202E+01 -0.48110876249E+01 -0.17162838823E+02  0.18249378171E+02  0.00000000000E+00 0.  1.
         22    1    4    4    0    0  0.26414099520E+02  0.62237873247E+01 -0.48249030816E+02  0.55357105748E+02  0.00000000000E+00 0.  1.
<mgrwt>
<rscale>  0 0.89405977E+02</rscale>
<asrwt>0</asrwt>
<pdfrwt beam="1">  1        2 0.38118391E-02 0.89405977E+02</pdfrwt>
<pdfrwt beam="2">  1       -2 0.12408287E-01 0.89405977E+02</pdfrwt>
<totfact> 0.89078032E+04</totfact>
</mgrwt>
</event>
<event>
 7    1  0.3337990E-009  0.9123664E+02  0.7818608E-02  0.1299884E+00
          2   -1    0    0  501    0  0.00000000000E+00  0.00000000000E+00  0.59609340487E+03  0.59609340488E+03  0.25500000000E-02 0. -1.
         -2   -1    0    0    0  501 -0.00000000000E+00 -0.00000000000E+00 -0.34911152776E+01  0.34911162089E+01  0.25500000000E-02 0.  1.
         23    2    1    2    0    0  0.11102230246E-15  0.00000000000E+00  0.59260228959E+03  0.59958452109E+03  0.91236638987E+02 0.  0.
    9000005    2    3    3    0    0  0.38500103373E+00 -0.28555223658E+02  0.52810821981E+03  0.52905059973E+03  0.13442329569E+02 0.  0.
         22    1    3    3    0    0 -0.38500103373E+00  0.28555223658E+02  0.64494069784E+02  0.70533921351E+02  0.00000000000E+00 0.  1.
         22    1    4    4    0    0  0.18572988172E+01 -0.11518207207E+02  0.32984516178E+03  0.33005143448E+03  0.00000000000E+00 0.  1.
         22    1    4    4    0    0 -0.14722977835E+01 -0.17037016451E+02  0.19826305803E+03  0.19899916525E+03  0.00000000000E+00 0.  1.
<mgrwt>
<rscale>  0 0.91236639E+02</rscale>
<asrwt>0</asrwt>
<pdfrwt beam="1">  1        2 0.91706738E-01 0.91236639E+02</pdfrwt>
<pdfrwt beam="2">  1       -2 0.53709438E-03 0.91236639E+02</pdfrwt>
<totfact> 0.22703337E+05</totfact>
</mgrwt>
</event>
<event>
 6    1  0.3337990E-009  0.3346101E+03  0.7818608E-02  0.1069115E+00
          2   -1    0    0  501    0  0.00000000000E+00  0.00000000000E+00  0.91317795823E+03  0.91317795824E+03  0.25500000000E-02 0. -1.
         -2   -1    0    0    0  501 -0.00000000000E+00 -0.00000000000E+00 -0.30652265206E+02  0.30652265312E+02  0.25500000000E-02 0.  1.
    9000005    2    1    2    0    0 -0.15415589921E+03 -0.61203631059E+02  0.50203801416E+03  0.52876300070E+03  0.61820328822E+01 0.  0.
         22    1    1    2    0    0  0.15415589921E+03  0.61203631059E+02  0.38048767887E+03  0.41506722285E+03  0.00000000000E+00 0.  1.
         22    1    3    3    0    0 -0.32887416074E+01 -0.42247304796E+00  0.92510988979E+01  0.98273666695E+01  0.00000000000E+00 0.  1.
         22    1    3    3    0    0 -0.15086715760E+03 -0.60781158012E+02  0.49278691526E+03  0.51893563403E+03  0.00000000000E+00 0.  1.
<mgrwt>
<rscale>  0 0.33461006E+03</rscale>
<asrwt>0</asrwt>
<pdfrwt beam="1">  1        2 0.14048890E+00 0.33461006E+03</pdfrwt>
<pdfrwt beam="2">  1       -2 0.47157335E-02 0.33461006E+03</pdfrwt>
<totfact> 0.63997145E+03</totfact>
</mgrwt>
</event>
<event>
 7    1  0.3337990E-009  0.9241535E+02  0.7818608E-02  0.1297106E+00
          2   -1    0    0  501    0  0.00000000000E+00  0.00000000000E+00  0.12285325288E+03  0.12285325290E+03  0.25500000000E-02 0.  1.
         -2   -1    0    0    0  501 -0.00000000000E+00 -0.00000000000E+00 -0.17379671970E+02  0.17379672157E+02  0.25500000000E-02 0. -1.
         23    2    1    2    0    0  0.00000000000E+00  0.00000000000E+00  0.10547358091E+03  0.14023292506E+03  0.92415350466E+02 0.  0.
    9000005    2    3    3    0    0  0.26642387958E+02 -0.27543401351E+02  0.89851831861E+02  0.98850624045E+02  0.15153824308E+02 0.  0.
         22    1    3    3    0    0 -0.26642387958E+02  0.27543401351E+02  0.15621749044E+02  0.41382301015E+02  0.00000000000E+00 0.  1.
         22    1    4    4    0    0  0.59887969101E+01 -0.14790432426E+01  0.58332707931E+01  0.84900121019E+01  0.00000000000E+00 0. -1.
         22    1    4    4    0    0  0.20653591048E+02 -0.26064358108E+02  0.84018561068E+02  0.90360611943E+02  0.00000000000E+00 0. -1.
<mgrwt>
<rscale>  0 0.92415350E+02</rscale>
<asrwt>0</asrwt>
<pdfrwt beam="1">  1        2 0.18900501E-01 0.92415350E+02</pdfrwt>
<pdfrwt beam="2">  1       -2 0.26737956E-02 0.92415350E+02</pdfrwt>
<totfact> 0.12610586E+05</totfact>
</mgrwt>
</event>
<event>
 7    1  0.3337990E-009  0.9069949E+02  0.7818608E-02  0.1301167E+00
          2   -1    0    0  501    0  0.00000000000E+00  0.00000000000E+00  0.20627412888E+03  0.20627412890E+03  0.25500000000E-02 0.  1.
         -2   -1    0    0    0  501 -0.00000000000E+00 -0.00000000000E+00 -0.99702250838E+01  0.99702254099E+01  0.25500000000E-02 0. -1.
         23    2    1    2    0    0 -0.44408920985E-15 -0.71054273576E-14  0.19630390380E+03  0.21624435431E+03  0.90699493514E+02 0.  0.
    9000005    2    3    3    0    0 -0.33767999026E+01 -0.43463387861E+02  0.12231995494E+03  0.13037181183E+03  0.11583137872E+02 0.  0.
         22    1    3    3    0    0  0.33767999026E+01  0.43463387861E+02  0.73983948863E+02  0.85872542476E+02  0.00000000000E+00 0. -1.
         22    1    4    4    0    0 -0.60019038331E+01 -0.20928946712E+02  0.48934302588E+02  0.53559402815E+02  0.00000000000E+00 0. -1.
         22    1    4    4    0    0  0.26251039305E+01 -0.22534441149E+02  0.73385652349E+02  0.76812409019E+02  0.00000000000E+00 0. -1.
<mgrwt>
<rscale>  0 0.90699494E+02</rscale>
<asrwt>0</asrwt>
<pdfrwt beam="1">  1        2 0.31734479E-01 0.90699494E+02</pdfrwt>
<pdfrwt beam="2">  1       -2 0.15338809E-02 0.90699494E+02</pdfrwt>
<totfact> 0.15864423E+05</totfact>
</mgrwt>
</event>
<event>
 7    1  0.3337990E-009  0.9066533E+02  0.7818608E-02  0.1301248E+00
         -2   -1    0    0    0  501 -0.00000000000E+00  0.00000000000E+00  0.25179180204E+01  0.25179193117E+01  0.25500000000E-02 0. -1.
          2   -1    0    0  501    0  0.00000000000E+00 -0.00000000000E+00 -0.81617035899E+03  0.81617035900E+03  0.25500000000E-02 0.  1.
         23    2    1    2    0    0  0.00000000000E+00  0.00000000000E+00 -0.81365244097E+03  0.81868827831E+03  0.90665331518E+02 0.  0.
    9000005    2    3    3    0    0 -0.43346789494E+01  0.16401859695E+02 -0.78556756153E+03  0.78587713849E+03  0.14095127717E+02 0.  0.
         22    1    3    3    0    0  0.43346789494E+01 -0.16401859695E+02 -0.28084879438E+02  0.32811139817E+02  0.00000000000E+00 0. -1.
         22    1    4    4    0    0  0.39810710114E+01  0.61641745790E+00 -0.18856620670E+03  0.18860923415E+03  0.00000000000E+00 0. -1.
         22    1    4    4    0    0 -0.83157499609E+01  0.15785442237E+02 -0.59700135483E+03  0.59726790434E+03  0.00000000000E+00 0. -1.
<mgrwt>
<rscale>  0 0.90665332E+02</rscale>
<asrwt>0</asrwt>
<pdfrwt beam="2">  1        2 0.12556446E+00 0.90665332E+02</pdfrwt>
<pdfrwt beam="1">  1       -2 0.38737275E-03 0.90665332E+02</pdfrwt>
<totfact> 0.24822507E+05</totfact>
</mgrwt>
</event>
<event>
 7    1  0.3337990E-009  0.9282151E+02  0.7818608E-02  0.1296159E+00
          2   -1    0    0  501    0  0.00000000000E+00  0.00000000000E+00  0.15109663015E+03  0.15109663018E+03  0.25500000000E-02 0. -1.
         -2   -1    0    0    0  501 -0.00000000000E+00 -0.00000000000E+00 -0.14255501165E+02  0.14255501393E+02  0.25500000000E-02 0.  1.
         23    2    1    2    0    0 -0.17763568394E-14  0.00000000000E+00  0.13684112899E+03  0.16535213157E+03  0.92821510605E+02 0.  0.
    9000005    2    3    3    0    0  0.13875802047E+02  0.37146074083E+02  0.27495436358E+02  0.49038550249E+02  0.87413779098E+01 0.  0.
         22    1    3    3    0    0 -0.13875802047E+02 -0.37146074083E+02  0.10934569263E+03  0.11631358132E+03  0.00000000000E+00 0. -1.
         22    1    4    4    0    0  0.82117211611E+01  0.10414558930E+02  0.83111214297E+01  0.15651522020E+02  0.00000000000E+00 0. -1.
         22    1    4    4    0    0  0.56640808855E+01  0.26731515153E+02  0.19184314928E+02  0.33387028229E+02  0.00000000000E+00 0. -1.
<mgrwt>
<rscale>  0 0.92821511E+02</rscale>
<asrwt>0</asrwt>
<pdfrwt beam="1">  1        2 0.23245635E-01 0.92821511E+02</pdfrwt>
<pdfrwt beam="2">  1       -2 0.21931541E-02 0.92821511E+02</pdfrwt>
<totfact> 0.13350697E+05</totfact>
</mgrwt>
</event>
<event>
 7    1  0.6338370E-009  0.9199542E+02  0.7818608E-02  0.1298090E+00
          2   -1    0    0  501    0  0.00000000000E+00  0.00000000000E+00  0.52205438422E+03  0.52205438423E+03  0.25500000000E-02 0. -1.
         -2   -1    0    0    0  501 -0.00000000000E+00 -0.00000000000E+00 -0.40528138267E+01  0.40528146290E+01  0.25500000000E-02 0.  1.
         23    2    1    2    0    0  0.88817841970E-15  0.00000000000E+00  0.51800157040E+03  0.52610719886E+03  0.91995422481E+02 0.  0.
    9000005    2    3    3    0    0 -0.75613684974E+01  0.18820223505E+02  0.49421202887E+03  0.49484512292E+03  0.14655752613E+02 0.  0.
         22    1    3    3    0    0  0.75613684974E+01 -0.18820223505E+02  0.23789541524E+02  0.31262075943E+02  0.00000000000E+00 0.  1.
         22    1    4    4    0    0  0.19673751481E+01  0.13511898817E+02  0.22672412468E+03  0.22713491736E+03  0.00000000000E+00 0.  1.
         22    1    4    4    0    0 -0.95287436455E+01  0.53083246879E+01  0.26748790420E+03  0.26771020555E+03  0.00000000000E+00 0.  1.
<mgrwt>
<rscale>  0 0.91995422E+02</rscale>
<asrwt>0</asrwt>
<pdfrwt beam="1">  1        2 0.80316004E-01 0.91995422E+02</pdfrwt>
<pdfrwt beam="2">  1       -2 0.62351031E-03 0.91995422E+02</pdfrwt>
<totfact> 0.21339119E+05</totfact>
</mgrwt>
</event>
<event>
 7    1  0.3337990E-009  0.8902316E+02  0.7818608E-02  0.1305235E+00
         -2   -1    0    0    0  501 -0.00000000000E+00  0.00000000000E+00  0.21808687431E+01  0.21808702339E+01  0.25500000000E-02 0. -1.
          2   -1    0    0  501    0  0.00000000000E+00 -0.00000000000E+00 -0.90848196043E+03  0.90848196044E+03  0.25500000000E-02 0.  1.
         23    2    1    2    0    0  0.00000000000E+00  0.00000000000E+00 -0.90630109169E+03  0.91066283067E+03  0.89023156349E+02 0.  0.
    9000005    2    3    3    0    0 -0.32609389721E+02 -0.19296973136E+02 -0.68587265081E+03  0.68700138335E+03  0.10670619529E+02 0.  0.
         22    1    3    3    0    0  0.32609389721E+02  0.19296973136E+02 -0.22042844088E+03  0.22366144733E+03  0.00000000000E+00 0. -1.
         22    1    4    4    0    0 -0.18751068942E+02 -0.52689040643E+01 -0.30906632117E+03  0.30967943880E+03  0.00000000000E+00 0.  1.
         22    1    4    4    0    0 -0.13858320779E+02 -0.14028069072E+02 -0.37680632964E+03  0.37732194455E+03  0.00000000000E+00 0.  1.
<mgrwt>
<rscale>  0 0.89023156E+02</rscale>
<asrwt>0</asrwt>
<pdfrwt beam="2">  1        2 0.13976615E+00 0.89023156E+02</pdfrwt>
<pdfrwt beam="1">  1       -2 0.33551911E-03 0.89023156E+02</pdfrwt>
<totfact> 0.26430402E+05</totfact>
</mgrwt>
</event>
<event>
 7    1  0.3337990E-009  0.9054510E+02  0.7818608E-02  0.1301537E+00
          2   -1    0    0  501    0  0.00000000000E+00  0.00000000000E+00  0.12377618198E+03  0.12377618201E+03  0.25500000000E-02 0. -1.
         -2   -1    0    0    0  501 -0.00000000000E+00 -0.00000000000E+00 -0.16558952678E+02  0.16558952874E+02  0.25500000000E-02 0.  1.
         23    2    1    2    0    0  0.00000000000E+00  0.00000000000E+00  0.10721722930E+03  0.14033513488E+03  0.90545103803E+02 0.  0.
    9000005    2    3    3    0    0  0.35894738307E+02  0.24484805309E+01  0.94748176768E+02  0.10225752248E+03  0.13599875300E+02 0.  0.
         22    1    3    3    0    0 -0.35894738307E+02 -0.24484805309E+01  0.12469052537E+02  0.38077612401E+02  0.00000000000E+00 0. -1.
         22    1    4    4    0    0  0.19528922452E+02 -0.44397288560E+01  0.40572392511E+02  0.45246094180E+02  0.00000000000E+00 0.  1.
         22    1    4    4    0    0  0.16365815854E+02  0.68882093870E+01  0.54175784257E+02  0.57011428301E+02  0.00000000000E+00 0.  1.
<mgrwt>
<rscale>  0 0.90545104E+02</rscale>
<asrwt>0</asrwt>
<pdfrwt beam="1">  1        2 0.19042489E-01 0.90545104E+02</pdfrwt>
<pdfrwt beam="2">  1       -2 0.25475312E-02 0.90545104E+02</pdfrwt>
<totfact> 0.13367824E+05</totfact>
</mgrwt>
</event>
<event>
 7    1  0.3337990E-009  0.8992404E+02  0.7818608E-02  0.1303036E+00
          2   -1    0    0  501    0  0.00000000000E+00  0.00000000000E+00  0.10279606563E+03  0.10279606567E+03  0.25500000000E-02 0.  1.
         -2   -1    0    0    0  501 -0.00000000000E+00 -0.00000000000E+00 -0.19665959890E+02  0.19665960055E+02  0.25500000000E-02 0. -1.
         23    2    1    2    0    0 -0.35527136788E-14  0.00000000000E+00  0.83130105744E+02  0.12246202572E+03  0.89924041627E+02 0.  0.
    9000005    2    3    3    0    0 -0.31365634732E+02  0.16507690100E+02  0.73934168308E+01  0.38841735587E+02  0.14060972100E+02 0.  0.
         22    1    3    3    0    0  0.31365634732E+02 -0.16507690100E+02  0.75736688914E+02  0.83620290134E+02  0.00000000000E+00 0.  1.
         22    1    4    4    0    0 -0.12893616864E+02  0.42072727368E+01  0.94856261706E+01  0.16550637558E+02  0.00000000000E+00 0.  1.
         22    1    4    4    0    0 -0.18472017867E+02  0.12300417363E+02 -0.20922093398E+01  0.22291098029E+02  0.00000000000E+00 0.  1.
<mgrwt>
<rscale>  0 0.89924042E+02</rscale>
<asrwt>0</asrwt>
<pdfrwt beam="1">  1        2 0.15814779E-01 0.89924042E+02</pdfrwt>
<pdfrwt beam="2">  1       -2 0.30255323E-02 0.89924042E+02</pdfrwt>
<totfact> 0.12850407E+05</totfact>
</mgrwt>
</event>
<event>
 7    1  0.3337990E-009  0.9055190E+02  0.7818608E-02  0.1301521E+00
          2   -1    0    0  501    0  0.00000000000E+00  0.00000000000E+00  0.37909504836E+03  0.37909504837E+03  0.25500000000E-02 0. -1.
         -2   -1    0    0    0  501 -0.00000000000E+00 -0.00000000000E+00 -0.54073820108E+01  0.54073826120E+01  0.25500000000E-02 0.  1.
         23    2    1    2    0    0  0.00000000000E+00  0.71054273576E-14  0.37368766635E+03  0.38450243098E+03  0.90551904721E+02 0.  0.
    9000005    2    3    3    0    0  0.18801240467E+02 -0.36595968869E+02  0.26649642244E+03  0.26968642883E+03  0.42041809804E+01 0.  0.
         22    1    3    3    0    0 -0.18801240467E+02  0.36595968869E+02  0.10719124391E+03  0.11481600216E+03  0.00000000000E+00 0.  1.
         22    1    4    4    0    0  0.92515280231E+01 -0.22533571795E+02  0.15690545645E+03  0.15878499580E+03  0.00000000000E+00 0.  1.
         22    1    4    4    0    0  0.95497124441E+01 -0.14062397074E+02  0.10959096599E+03  0.11090143302E+03  0.00000000000E+00 0.  1.
<mgrwt>
<rscale>  0 0.90551905E+02</rscale>
<asrwt>0</asrwt>
<pdfrwt beam="1">  1        2 0.58322330E-01 0.90551905E+02</pdfrwt>
<pdfrwt beam="2">  1       -2 0.83190476E-03 0.90551905E+02</pdfrwt>
<totfact> 0.19941215E+05</totfact>
</mgrwt>
</event>
<event>
 7    1  0.3337990E-009  0.5848266E+02  0.7818608E-02  0.1404312E+00
         -2   -1    0    0    0  501 -0.00000000000E+00  0.00000000000E+00  0.86682089762E+01  0.86682093513E+01  0.25500000000E-02 0.  1.
          2   -1    0    0  501    0  0.00000000000E+00 -0.00000000000E+00 -0.98642677487E+02  0.98642677520E+02  0.25500000000E-02 0. -1.
         23    2    1    2    0    0  0.00000000000E+00 -0.44408920985E-15 -0.89974468510E+02  0.10731088687E+03  0.58482659458E+02 0.  0.
    9000005    2    3    3    0    0  0.20781665093E+02 -0.27703227481E+01 -0.79896059918E+02  0.84048758595E+02  0.15532583136E+02 0.  0.
         22    1    3    3    0    0 -0.20781665093E+02  0.27703227481E+01 -0.10078408593E+02  0.23262128276E+02  0.00000000000E+00 0.  1.
         22    1    4    4    0    0  0.21064896308E+01  0.27080675921E+01 -0.34321760896E+02  0.34492813739E+02  0.00000000000E+00 0. -1.
         22    1    4    4    0    0  0.18675175462E+02 -0.54783903402E+01 -0.45574299021E+02  0.49555944856E+02  0.00000000000E+00 0. -1.
<mgrwt>
<rscale>  0 0.58482659E+02</rscale>
<asrwt>0</asrwt>
<pdfrwt beam="2">  1        2 0.15175796E-01 0.58482659E+02</pdfrwt>
<pdfrwt beam="1">  1       -2 0.13335707E-02 0.58482659E+02</pdfrwt>
<totfact> 0.39944006E+05</totfact>
</mgrwt>
</event>
<event>
 7    1  0.3337990E-009  0.9018000E+02  0.7818608E-02  0.1302416E+00
         -2   -1    0    0    0  501 -0.00000000000E+00  0.00000000000E+00  0.23210139120E+02  0.23210139260E+02  0.25500000000E-02 0.  1.
          2   -1    0    0  501    0  0.00000000000E+00 -0.00000000000E+00 -0.87595689555E+02  0.87595689593E+02  0.25500000000E-02 0. -1.
         23    2    1    2    0    0  0.00000000000E+00  0.00000000000E+00 -0.64385550436E+02  0.11080582885E+03  0.90180001124E+02 0.  0.
    9000005    2    3    3    0    0  0.20928390306E+02 -0.31468048972E+02 -0.61099084347E+02  0.72871194463E+02  0.12201526442E+02 0.  0.
         22    1    3    3    0    0 -0.20928390306E+02  0.31468048972E+02 -0.32864660887E+01  0.37934634389E+02  0.00000000000E+00 0.  1.
         22    1    4    4    0    0  0.14561748689E+02 -0.29378771759E+02 -0.53410741381E+02  0.62672673868E+02  0.00000000000E+00 0.  1.
         22    1    4    4    0    0  0.63666416171E+01 -0.20892772123E+01 -0.76883429664E+01  0.10198520595E+02  0.00000000000E+00 0.  1.
<mgrwt>
<rscale>  0 0.90180001E+02</rscale>
<asrwt>0</asrwt>
<pdfrwt beam="2">  1        2 0.13476260E-01 0.90180001E+02</pdfrwt>
<pdfrwt beam="1">  1       -2 0.35707907E-02 0.90180001E+02</pdfrwt>
<totfact> 0.12155158E+05</totfact>
</mgrwt>
</event>
<event>
 7    1  0.3789310E-009  0.8977753E+02  0.7818608E-02  0.1303391E+00
          2   -1    0    0  501    0  0.00000000000E+00  0.00000000000E+00  0.10489865244E+04  0.10489865244E+04  0.25500000000E-02 0. -1.
         -2   -1    0    0    0  501 -0.00000000000E+00 -0.00000000000E+00 -0.19209021193E+01  0.19209038119E+01  0.25500000000E-02 0.  1.
         23    2    1    2    0    0 -0.22204460493E-15  0.00000000000E+00  0.10470656222E+04  0.10509074282E+04  0.89777532351E+02 0.  0.
    9000005    2    3    3    0    0 -0.10584758176E+01  0.22367332300E+02  0.97713709165E+03  0.97748115688E+03  0.13080453270E+02 0.  0.
         22    1    3    3    0    0  0.10584758176E+01 -0.22367332300E+02  0.69928530591E+02  0.73426271292E+02  0.00000000000E+00 0.  1.
         22    1    4    4    0    0  0.49618818197E+01  0.15679108527E+02  0.53576357492E+03  0.53601591667E+03  0.00000000000E+00 0. -1.
         22    1    4    4    0    0 -0.60203576373E+01  0.66882237732E+01  0.44137351673E+03  0.44146524021E+03  0.00000000000E+00 0. -1.
<mgrwt>
<rscale>  0 0.89777532E+02</rscale>
<asrwt>0</asrwt>
<pdfrwt beam="1">  1        2 0.16138293E+00 0.89777532E+02</pdfrwt>
<pdfrwt beam="2">  1       -2 0.29552283E-03 0.89777532E+02</pdfrwt>
<totfact> 0.26071867E+05</totfact>
</mgrwt>
</event>
<event>
 7    1  0.3337990E-009  0.9240002E+02  0.7818608E-02  0.1297142E+00
          2   -1    0    0  501    0  0.00000000000E+00  0.00000000000E+00  0.10947366285E+04  0.10947366285E+04  0.25500000000E-02 0. -1.
         -2   -1    0    0    0  501 -0.00000000000E+00 -0.00000000000E+00 -0.19497293878E+01  0.19497310553E+01  0.25500000000E-02 0.  1.
         23    2    1    2    0    0 -0.17763568394E-14  0.00000000000E+00  0.10927868991E+04  0.10966863596E+04  0.92400023646E+02 0.  0.
    9000005    2    3    3    0    0  0.12478958412E+02  0.34056484687E+02  0.87735443605E+03  0.87822191236E+03  0.14399733522E+02 0.  0.
         22    1    3    3    0    0 -0.12478958412E+02 -0.34056484687E+02  0.21543246306E+03  0.21846444720E+03  0.00000000000E+00 0.  1.
         22    1    4    4    0    0  0.24274605665E+01  0.22329605514E+02  0.41261681877E+03  0.41322771323E+03  0.00000000000E+00 0.  1.
         22    1    4    4    0    0  0.10051497845E+02  0.11726879173E+02  0.46473761728E+03  0.46499419913E+03  0.00000000000E+00 0.  1.
<mgrwt>
<rscale>  0 0.92400024E+02</rscale>
<asrwt>0</asrwt>
<pdfrwt beam="1">  1        2 0.16842131E+00 0.92400024E+02</pdfrwt>
<pdfrwt beam="2">  1       -2 0.29995798E-03 0.92400024E+02</pdfrwt>
<totfact> 0.24159274E+05</totfact>
</mgrwt>
</event>
<event>
 7    1  0.3337990E-009  0.9083057E+02  0.7818608E-02  0.1300853E+00
         -2   -1    0    0    0  501 -0.00000000000E+00  0.00000000000E+00  0.51223571434E+01  0.51223577781E+01  0.25500000000E-02 0.  1.
          2   -1    0    0  501    0  0.00000000000E+00 -0.00000000000E+00 -0.40265601191E+03  0.40265601192E+03  0.25500000000E-02 0. -1.
         23    2    1    2    0    0  0.00000000000E+00  0.00000000000E+00 -0.39753365476E+03  0.40777836969E+03  0.90830568202E+02 0.  0.
    9000005    2    3    3    0    0 -0.15949618200E+02  0.54515463129E+01 -0.38790875574E+03  0.38836836302E+03  0.85248422394E+01 0.  0.
         22    1    3    3    0    0  0.15949618200E+02 -0.54515463129E+01 -0.96248990226E+01  0.19410006675E+02  0.00000000000E+00 0.  1.
         22    1    4    4    0    0 -0.12093935194E+02  0.72267222590E+00 -0.20486012510E+03  0.20521807031E+03  0.00000000000E+00 0. -1.
         22    1    4    4    0    0 -0.38556830053E+01  0.47288740870E+01 -0.18304863064E+03  0.18315029271E+03  0.00000000000E+00 0. -1.
<mgrwt>
<rscale>  0 0.90830568E+02</rscale>
<asrwt>0</asrwt>
<pdfrwt beam="2">  1        2 0.61947054E-01 0.90830568E+02</pdfrwt>
<pdfrwt beam="1">  1       -2 0.78805531E-03 0.90830568E+02</pdfrwt>
<totfact> 0.20212809E+05</totfact>
</mgrwt>
</event>
<event>
 7    1  0.3337990E-009  0.8993514E+02  0.7818608E-02  0.1303009E+00
         -2   -1    0    0    0  501 -0.00000000000E+00  0.00000000000E+00  0.20502012946E+01  0.20502028804E+01  0.25500000000E-02 0. -1.
          2   -1    0    0  501    0  0.00000000000E+00 -0.00000000000E+00 -0.98628447649E+03  0.98628447650E+03  0.25500000000E-02 0.  1.
         23    2    1    2    0    0  0.44408920985E-15  0.00000000000E+00 -0.98423427520E+03  0.98833467938E+03  0.89935143206E+02 0.  0.
    9000005    2    3    3    0    0  0.30757445803E+01 -0.32922590709E+02 -0.82158463592E+03  0.82235798721E+03  0.13341213297E+02 0.  0.
         22    1    3    3    0    0 -0.30757445803E+01  0.32922590709E+02 -0.16264963928E+03  0.16597669217E+03  0.00000000000E+00 0. -1.
         22    1    4    4    0    0  0.45358848030E-01 -0.20581563595E+02 -0.35181794288E+03  0.35241944860E+03  0.00000000000E+00 0. -1.
         22    1    4    4    0    0  0.30303857322E+01 -0.12341027114E+02 -0.46976669303E+03  0.46993853861E+03  0.00000000000E+00 0. -1.
<mgrwt>
<rscale>  0 0.89935143E+02</rscale>
<asrwt>0</asrwt>
<pdfrwt beam="2">  1        2 0.15173569E+00 0.89935143E+02</pdfrwt>
<pdfrwt beam="1">  1       -2 0.31541649E-03 0.89935143E+02</pdfrwt>
<totfact> 0.25902607E+05</totfact>
</mgrwt>
</event>
<event>
 7    1  0.3337990E-009  0.8915757E+02  0.7818608E-02  0.1304905E+00
         -2   -1    0    0    0  501 -0.00000000000E+00  0.00000000000E+00  0.81674915609E+01  0.81674919590E+01  0.25500000000E-02 0.  1.
          2   -1    0    0  501    0  0.00000000000E+00 -0.00000000000E+00 -0.24331438093E+03  0.24331438094E+03  0.25500000000E-02 0. -1.
         23    2    1    2    0    0  0.00000000000E+00  0.00000000000E+00 -0.23514688937E+03  0.25148187290E+03  0.89157572973E+02 0.  0.
    9000005    2    3    3    0    0 -0.36473422381E+02 -0.20046196949E+02 -0.15972196321E+03  0.16533618213E+03  0.96326028463E+01 0.  0.
         22    1    3    3    0    0  0.36473422381E+02  0.20046196949E+02 -0.75424926153E+02  0.86145690766E+02  0.00000000000E+00 0.  1.
         22    1    4    4    0    0 -0.20045143712E+02 -0.57268315910E+01 -0.73063012223E+02  0.75978998030E+02  0.00000000000E+00 0. -1.
         22    1    4    4    0    0 -0.16428278669E+02 -0.14319365358E+02 -0.86658950989E+02  0.89357184103E+02  0.00000000000E+00 0. -1.
<mgrwt>
<rscale>  0 0.89157573E+02</rscale>
<asrwt>0</asrwt>
<pdfrwt beam="2">  1        2 0.37432976E-01 0.89157573E+02</pdfrwt>
<pdfrwt beam="1">  1       -2 0.12565374E-02 0.89157573E+02</pdfrwt>
<totfact> 0.17644490E+05</totfact>
</mgrwt>
</event>
<event>
 7    1  0.3337990E-009  0.9321029E+02  0.7818608E-02  0.1295259E+00
          2   -1    0    0  501    0  0.00000000000E+00  0.00000000000E+00  0.80013399860E+02  0.80013399901E+02  0.25500000000E-02 0. -1.
         -2   -1    0    0    0  501 -0.00000000000E+00 -0.00000000000E+00 -0.27145944457E+02  0.27145944577E+02  0.25500000000E-02 0.  1.
         23    2    1    2    0    0  0.35527136788E-14  0.00000000000E+00  0.52867455403E+02  0.10715934448E+03  0.93210285206E+02 0.  0.
    9000005    2    3    3    0    0 -0.19869221101E+02 -0.27317662839E+02 -0.82025389767E+01  0.37369768869E+02  0.13717774218E+02 0.  0.
         22    1    3    3    0    0  0.19869221101E+02  0.27317662839E+02  0.61069994380E+02  0.69789575609E+02  0.00000000000E+00 0. -1.
         22    1    4    4    0    0 -0.37711634220E+01  0.91259878305E+00 -0.16595222729E+01  0.42200147238E+01  0.00000000000E+00 0. -1.
         22    1    4    4    0    0 -0.16098057679E+02 -0.28230261622E+02 -0.65430167038E+01  0.33149754145E+02  0.00000000000E+00 0. -1.
<mgrwt>
<rscale>  0 0.93210285E+02</rscale>
<asrwt>0</asrwt>
<pdfrwt beam="1">  1        2 0.12309753E-01 0.93210285E+02</pdfrwt>
<pdfrwt beam="2">  1       -2 0.41762993E-02 0.93210285E+02</pdfrwt>
<totfact> 0.10801377E+05</totfact>
</mgrwt>
</event>
<event>
 7    1  0.3337990E-009  0.6139140E+02  0.7818608E-02  0.1392084E+00
         -2   -1    0    0    0  501 -0.00000000000E+00  0.00000000000E+00  0.31322752058E+02  0.31322752162E+02  0.25500000000E-02 0.  1.
          2   -1    0    0  501    0  0.00000000000E+00 -0.00000000000E+00 -0.30081201267E+02  0.30081201375E+02  0.25500000000E-02 0. -1.
         23    2    1    2    0    0 -0.35527136788E-14  0.00000000000E+00  0.12415507918E+01  0.61403953537E+02  0.61391400551E+02 0.  0.
    9000005    2    3    3    0    0  0.22946040474E+02 -0.13278898332E+02 -0.14014325674E+02  0.30816510344E+02  0.70997233325E+01 0.  0.
         22    1    3    3    0    0 -0.22946040474E+02  0.13278898332E+02  0.15255876465E+02  0.30587443192E+02  0.00000000000E+00 0. -1.
         22    1    4    4    0    0 -0.51359537884E+00 -0.62765572653E-01 -0.21598566228E+00  0.56068666524E+00  0.00000000000E+00 0.  1.
         22    1    4    4    0    0  0.23459635852E+02 -0.13216132759E+02 -0.13798340011E+02  0.30255823679E+02  0.00000000000E+00 0.  1.
<mgrwt>
<rscale>  0 0.61391401E+02</rscale>
<asrwt>0</asrwt>
<pdfrwt beam="2">  1        2 0.46278771E-02 0.61391401E+02</pdfrwt>
<pdfrwt beam="1">  1       -2 0.48188849E-02 0.61391401E+02</pdfrwt>
<totfact> 0.27168579E+05</totfact>
</mgrwt>
</event>
<event>
 7    1  0.3337990E-009  0.8965297E+02  0.7818608E-02  0.1303694E+00
         -2   -1    0    0    0  501 -0.00000000000E+00  0.00000000000E+00  0.45692980880E+02  0.45692980951E+02  0.25500000000E-02 0. -1.
          2   -1    0    0  501    0  0.00000000000E+00 -0.00000000000E+00 -0.43976415996E+02  0.43976416070E+02  0.25500000000E-02 0.  1.
         23    2    1    2    0    0  0.00000000000E+00  0.00000000000E+00  0.17165648833E+01  0.89669397021E+02  0.89652965189E+02 0.  0.
    9000005    2    3    3    0    0  0.37574080513E+02  0.21301496873E+02  0.11246201614E+02  0.45438420640E+02  0.85210166142E+01 0.  0.
         22    1    3    3    0    0 -0.37574080513E+02 -0.21301496873E+02 -0.95296367308E+01  0.44230976381E+02  0.00000000000E+00 0.  1.
         22    1    4    4    0    0  0.83941659101E+01  0.86894177991E+01  0.48131245114E+01  0.13005159383E+02  0.00000000000E+00 0.  1.
         22    1    4    4    0    0  0.29179914603E+02  0.12612079074E+02  0.64330771028E+01  0.32433261257E+02  0.00000000000E+00 0.  1.
<mgrwt>
<rscale>  0 0.89652965E+02</rscale>
<asrwt>0</asrwt>
<pdfrwt beam="2">  1        2 0.67656025E-02 0.89652965E+02</pdfrwt>
<pdfrwt beam="1">  1       -2 0.70296894E-02 0.89652965E+02</pdfrwt>
<totfact> 0.10260209E+05</totfact>
</mgrwt>
</event>
<event>
 7    1  0.3337990E-009  0.8853463E+02  0.7818608E-02  0.1306440E+00
         -2   -1    0    0    0  501 -0.00000000000E+00  0.00000000000E+00  0.66269988147E+01  0.66269993053E+01  0.25500000000E-02 0.  1.
          2   -1    0    0  501    0  0.00000000000E+00 -0.00000000000E+00 -0.29569875504E+03  0.29569875505E+03  0.25500000000E-02 0. -1.
         23    2    1    2    0    0  0.00000000000E+00  0.71054273576E-14 -0.28907175622E+03  0.30232575436E+03  0.88534634466E+02 0.  0.
    9000005    2    3    3    0    0 -0.41309756288E+01 -0.33626151494E+02 -0.24156788572E+03  0.24397851160E+03  0.47631595786E+01 0.  0.
         22    1    3    3    0    0  0.41309756288E+01  0.33626151494E+02 -0.47503870508E+02  0.58347242755E+02  0.00000000000E+00 0.  1.
         22    1    4    4    0    0 -0.22846906348E+01 -0.25236248250E+02 -0.19305745333E+03  0.19471329775E+03  0.00000000000E+00 0. -1.
         22    1    4    4    0    0 -0.18462849940E+01 -0.83899032439E+01 -0.48510432391E+02  0.49265213848E+02  0.00000000000E+00 0. -1.
<mgrwt>
<rscale>  0 0.88534634E+02</rscale>
<asrwt>0</asrwt>
<pdfrwt beam="2">  1        2 0.45492106E-01 0.88534634E+02</pdfrwt>
<pdfrwt beam="1">  1       -2 0.10195385E-02 0.88534634E+02</pdfrwt>
<totfact> 0.19325320E+05</totfact>
</mgrwt>
</event>
<event>
 7    1  0.3337990E-009  0.9362539E+02  0.7818608E-02  0.1294302E+00
          2   -1    0    0  501    0  0.00000000000E+00  0.00000000000E+00  0.15551925410E+04  0.15551925410E+04  0.25500000000E-02 0. -1.
         -2   -1    0    0    0  501 -0.00000000000E+00 -0.00000000000E+00 -0.14091032153E+01  0.14091055226E+01  0.25500000000E-02 0.  1.
         23    2    1    2    0    0  0.00000000000E+00  0.00000000000E+00  0.15537834378E+04  0.15566016465E+04  0.93625394146E+02 0.  0.
    9000005    2    3    3    0    0 -0.13413075873E+02  0.58391119895E+01  0.15152658595E+04  0.15153995875E+04  0.13830361632E+02 0.  0.
         22    1    3    3    0    0  0.13413075873E+02 -0.58391119895E+01  0.38517578232E+02  0.41202059002E+02  0.00000000000E+00 0.  1.
         22    1    4    4    0    0 -0.64909522117E+01  0.56838123475E+01  0.32773950888E+03  0.32785305225E+03  0.00000000000E+00 0. -1.
         22    1    4    4    0    0 -0.69221236609E+01  0.15529964199E+00  0.11875263507E+04  0.11875465353E+04  0.00000000000E+00 0. -1.
<mgrwt>
<rscale>  0 0.93625394E+02</rscale>
<asrwt>0</asrwt>
<pdfrwt beam="1">  1        2 0.23926178E+00 0.93625394E+02</pdfrwt>
<pdfrwt beam="2">  1       -2 0.21678403E-03 0.93625394E+02</pdfrwt>
<totfact> 0.21683255E+05</totfact>
</mgrwt>
</event>
<event>
 7    1  0.3337990E-009  0.9011710E+02  0.7818608E-02  0.1302568E+00
          2   -1    0    0  501    0  0.00000000000E+00  0.00000000000E+00  0.13027964578E+02  0.13027964828E+02  0.25500000000E-02 0. -1.
         -2   -1    0    0    0  501 -0.00000000000E+00 -0.00000000000E+00 -0.15583962254E+03  0.15583962257E+03  0.25500000000E-02 0.  1.
         23    2    1    2    0    0 -0.17763568394E-14 -0.71054273576E-14 -0.14281165797E+03  0.16886758739E+03  0.90117103931E+02 0.  0.
    9000005    2    3    3    0    0 -0.10002162844E+02 -0.34828274238E+02 -0.27159774540E+02  0.47671836280E+02  0.14896263734E+02 0.  0.
         22    1    3    3    0    0  0.10002162844E+02  0.34828274238E+02 -0.11565188343E+03  0.12119575111E+03  0.00000000000E+00 0.  1.
         22    1    4    4    0    0 -0.33397278347E+01 -0.38322943375E+01  0.11002604869E+01  0.52010417263E+01  0.00000000000E+00 0. -1.
         22    1    4    4    0    0 -0.66624350091E+01 -0.30995979901E+02 -0.28260035027E+02  0.42470794553E+02  0.00000000000E+00 0. -1.
<mgrwt>
<rscale>  0 0.90117104E+02</rscale>
<asrwt>0</asrwt>
<pdfrwt beam="1">  1        2 0.20043024E-02 0.90117104E+02</pdfrwt>
<pdfrwt beam="2">  1       -2 0.23975325E-01 0.90117104E+02</pdfrwt>
<totfact> 0.70951967E+04</totfact>
</mgrwt>
</event>
<event>
 7    1  0.3337990E-009  0.1145401E+03  0.7818608E-02  0.1252386E+00
          2   -1    0    0  501    0  0.00000000000E+00  0.00000000000E+00  0.14893667215E+04  0.14893667215E+04  0.25500000000E-02 0. -1.
         -2   -1    0    0    0  501 -0.00000000000E+00 -0.00000000000E+00 -0.22021829532E+01  0.22021844295E+01  0.25500000000E-02 0.  1.
         23    2    1    2    0    0  0.00000000000E+00  0.35527136788E-14  0.14871645385E+04  0.14915689059E+04  0.11454010839E+03 0.  0.
    9000005    2    3    3    0    0  0.26851346790E+01 -0.24560090652E+02  0.14156838401E+04  0.14159388970E+04  0.10574350904E+02 0.  0.
         22    1    3    3    0    0 -0.26851346790E+01  0.24560090652E+02  0.71480698384E+02  0.75630008876E+02  0.00000000000E+00 0.  1.
         22    1    4    4    0    0  0.54035096691E+01 -0.13930931513E+02  0.62314005377E+03  0.62331917617E+03  0.00000000000E+00 0.  1.
         22    1    4    4    0    0 -0.27183749902E+01 -0.10629159139E+02  0.79254378637E+03  0.79261972087E+03  0.00000000000E+00 0.  1.
<mgrwt>
<rscale>  0 0.11454011E+03</rscale>
<asrwt>0</asrwt>
<pdfrwt beam="1">  1        2 0.22913336E+00 0.11454011E+03</pdfrwt>
<pdfrwt beam="2">  1       -2 0.33879746E-03 0.11454011E+03</pdfrwt>
<totfact> 0.12885027E+05</totfact>
</mgrwt>
</event>
<event>
 7    1  0.3337990E-009  0.9272749E+02  0.7818608E-02  0.1296378E+00
          2   -1    0    0  501    0  0.00000000000E+00  0.00000000000E+00  0.15154634206E+02  0.15154634420E+02  0.25500000000E-02 0. -1.
         -2   -1    0    0    0  501 -0.00000000000E+00 -0.00000000000E+00 -0.14184420544E+03  0.14184420546E+03  0.25500000000E-02 0.  1.
         23    2    1    2    0    0  0.35527136788E-14  0.71054273576E-14 -0.12668957124E+03  0.15699883988E+03  0.92727494656E+02 0.  0.
    9000005    2    3    3    0    0  0.29021523104E+02  0.33656446481E+02 -0.84277892348E+02  0.95567938059E+02  0.74473118183E+01 0.  0.
         22    1    3    3    0    0 -0.29021523104E+02 -0.33656446481E+02 -0.42411678888E+02  0.61430901825E+02  0.00000000000E+00 0.  1.
         22    1    4    4    0    0  0.26468366122E+02  0.26469312266E+02 -0.69776852211E+02  0.79183382104E+02  0.00000000000E+00 0. -1.
         22    1    4    4    0    0  0.25531569825E+01  0.71871342141E+01 -0.14501040137E+02  0.16384555955E+02  0.00000000000E+00 0. -1.
<mgrwt>
<rscale>  0 0.92727495E+02</rscale>
<asrwt>0</asrwt>
<pdfrwt beam="1">  1        2 0.23314823E-02 0.92727495E+02</pdfrwt>
<pdfrwt beam="2">  1       -2 0.21822185E-01 0.92727495E+02</pdfrwt>
<totfact> 0.68295028E+04</totfact>
</mgrwt>
</event>
<event>
 7    1  0.3337990E-009  0.9152891E+02  0.7818608E-02  0.1299191E+00
         -2   -1    0    0    0  501 -0.00000000000E+00  0.00000000000E+00  0.17894376843E+01  0.17894395012E+01  0.25500000000E-02 0.  1.
          2   -1    0    0  501    0  0.00000000000E+00 -0.00000000000E+00 -0.11704147153E+04  0.11704147153E+04  0.25500000000E-02 0. -1.
         23    2    1    2    0    0  0.00000000000E+00  0.00000000000E+00 -0.11686252776E+04  0.11722041548E+04  0.91528908315E+02 0.  0.
    9000005    2    3    3    0    0 -0.11710054441E+02  0.15581881053E+02 -0.11142547304E+04  0.11144453737E+04  0.67056922543E+01 0.  0.
         22    1    3    3    0    0  0.11710054441E+02 -0.15581881053E+02 -0.54370547201E+02  0.57758781108E+02  0.00000000000E+00 0.  1.
         22    1    4    4    0    0 -0.11038031645E+02  0.11546175036E+02 -0.97403844978E+03  0.97416941748E+03  0.00000000000E+00 0. -1.
         22    1    4    4    0    0 -0.67202279547E+00  0.40357060168E+01 -0.14021628065E+03  0.14027595623E+03  0.00000000000E+00 0. -1.
<mgrwt>
<rscale>  0 0.91528908E+02</rscale>
<asrwt>0</asrwt>
<pdfrwt beam="2">  1        2 0.18006319E+00 0.91528908E+02</pdfrwt>
<pdfrwt beam="1">  1       -2 0.27529918E-03 0.91528908E+02</pdfrwt>
<totfact> 0.24677624E+05</totfact>
</mgrwt>
</event>
<event>
 7    1  0.3337990E-009  0.9090115E+02  0.7818608E-02  0.1300684E+00
         -2   -1    0    0    0  501 -0.00000000000E+00  0.00000000000E+00  0.75317097311E+02  0.75317097354E+02  0.25500000000E-02 0. -1.
          2   -1    0    0  501    0  0.00000000000E+00 -0.00000000000E+00 -0.27427431651E+02  0.27427431769E+02  0.25500000000E-02 0.  1.
         23    2    1    2    0    0  0.35527136788E-14  0.00000000000E+00  0.47889665660E+02  0.10274452912E+03  0.90901145139E+02 0.  0.
    9000005    2    3    3    0    0 -0.27139975892E+02  0.33614808050E+02  0.35529445904E+02  0.57807810907E+02  0.14589991910E+02 0.  0.
         22    1    3    3    0    0  0.27139975892E+02 -0.33614808050E+02  0.12360219756E+02  0.44936718216E+02  0.00000000000E+00 0. -1.
         22    1    4    4    0    0 -0.28201743860E+02  0.27571355298E+02  0.30086559399E+02  0.49605635226E+02  0.00000000000E+00 0. -1.
         22    1    4    4    0    0  0.10617679687E+01  0.60434527520E+01  0.54428865050E+01  0.82021756804E+01  0.00000000000E+00 0. -1.
<mgrwt>
<rscale>  0 0.90901145E+02</rscale>
<asrwt>0</asrwt>
<pdfrwt beam="2">  1        2 0.42196049E-02 0.90901145E+02</pdfrwt>
<pdfrwt beam="1">  1       -2 0.11587246E-01 0.90901145E+02</pdfrwt>
<totfact> 0.87140166E+04</totfact>
</mgrwt>
</event>
<event>
 7    1  0.3337990E-009  0.9115072E+02  0.7818608E-02  0.1300089E+00
         -2   -1    0    0    0  501 -0.00000000000E+00  0.00000000000E+00  0.20335652311E+01  0.20335668299E+01  0.25500000000E-02 0. -1.
          2   -1    0    0  501    0  0.00000000000E+00 -0.00000000000E+00 -0.10214142292E+04  0.10214142292E+04  0.25500000000E-02 0.  1.
         23    2    1    2    0    0  0.00000000000E+00  0.00000000000E+00 -0.10193806639E+04  0.10234477960E+04  0.91150716568E+02 0.  0.
    9000005    2    3    3    0    0 -0.21241271124E+02 -0.17531277325E+02 -0.91469581916E+03  0.91520060661E+03  0.12851905648E+02 0.  0.
         22    1    3    3    0    0  0.21241271124E+02  0.17531277325E+02 -0.10468484476E+03  0.10824718937E+03  0.00000000000E+00 0. -1.
         22    1    4    4    0    0 -0.83200588315E+01 -0.95911687723E+01 -0.24111518020E+03  0.24144925765E+03  0.00000000000E+00 0. -1.
         22    1    4    4    0    0 -0.12921212292E+02 -0.79401085527E+01 -0.67358063896E+03  0.67375134896E+03  0.00000000000E+00 0. -1.
<mgrwt>
<rscale>  0 0.91150717E+02</rscale>
<asrwt>0</asrwt>
<pdfrwt beam="2">  1        2 0.15714024E+00 0.91150717E+02</pdfrwt>
<pdfrwt beam="1">  1       -2 0.31285713E-03 0.91150717E+02</pdfrwt>
<totfact> 0.25039260E+05</totfact>
</mgrwt>
</event>
<event>
 7    1  0.4518426E-009  0.9224338E+02  0.7818608E-02  0.1297508E+00
          2   -1    0    0  501    0  0.00000000000E+00  0.00000000000E+00  0.28663355318E+03  0.28663355319E+03  0.25500000000E-02 0. -1.
         -2   -1    0    0    0  501 -0.00000000000E+00 -0.00000000000E+00 -0.74213578447E+01  0.74213582828E+01  0.25500000000E-02 0.  1.
         23    2    1    2    0    0 -0.35527136788E-14  0.00000000000E+00  0.27921219533E+03  0.29405491147E+03  0.92243378830E+02 0.  0.
    9000005    2    3    3    0    0  0.25110899909E+02  0.22739091741E+02  0.23711203686E+03  0.24001745288E+03  0.15447850230E+02 0.  0.
         22    1    3    3    0    0 -0.25110899909E+02 -0.22739091741E+02  0.42100158478E+02  0.54037458595E+02  0.00000000000E+00 0.  1.
         22    1    4    4    0    0 -0.45237852608E+00 -0.59890130043E+00  0.31737316893E+02  0.31746190522E+02  0.00000000000E+00 0. -1.
         22    1    4    4    0    0  0.25563278435E+02  0.23337993042E+02  0.20537471996E+03  0.20827126236E+03  0.00000000000E+00 0. -1.
<mgrwt>
<rscale>  0 0.92243379E+02</rscale>
<asrwt>0</asrwt>
<pdfrwt beam="1">  1        2 0.44097478E-01 0.92243379E+02</pdfrwt>
<pdfrwt beam="2">  1       -2 0.11417472E-02 0.92243379E+02</pdfrwt>
<totfact> 0.17122523E+05</totfact>
</mgrwt>
</event>
<event>
 7    1  0.3337990E-009  0.9350664E+02  0.7818608E-02  0.1294575E+00
          2   -1    0    0  501    0  0.00000000000E+00  0.00000000000E+00  0.93075991961E+03  0.93075991961E+03  0.25500000000E-02 0. -1.
         -2   -1    0    0    0  501 -0.00000000000E+00 -0.00000000000E+00 -0.23484812294E+01  0.23484826138E+01  0.25500000000E-02 0.  1.
         23    2    1    2    0    0  0.00000000000E+00  0.00000000000E+00  0.92841143838E+03  0.93310840223E+03  0.93506638221E+02 0.  0.
    9000005    2    3    3    0    0  0.32009934663E+02  0.18737064652E+02  0.74079032076E+03  0.74185621979E+03  0.14305174034E+02 0.  0.
         22    1    3    3    0    0 -0.32009934663E+02 -0.18737064652E+02  0.18762111762E+03  0.19125218243E+03  0.00000000000E+00 0.  1.
         22    1    4    4    0    0  0.29161194353E+02  0.20597673949E+02  0.70534001390E+03  0.70624299971E+03  0.00000000000E+00 0.  1.
         22    1    4    4    0    0  0.28487403105E+01 -0.18606092969E+01  0.35450306858E+02  0.35613220083E+02  0.00000000000E+00 0.  1.
<mgrwt>
<rscale>  0 0.93506638E+02</rscale>
<asrwt>0</asrwt>
<pdfrwt beam="1">  1        2 0.14319392E+00 0.93506638E+02</pdfrwt>
<pdfrwt beam="2">  1       -2 0.36130469E-03 0.93506638E+02</pdfrwt>
<totfact> 0.23277951E+05</totfact>
</mgrwt>
</event>
<event>
 7    1  0.3337990E-009  0.9040130E+02  0.7818608E-02  0.1301883E+00
          2   -1    0    0  501    0  0.00000000000E+00  0.00000000000E+00  0.19323219771E+03  0.19323219773E+03  0.25500000000E-02 0.  1.
         -2   -1    0    0    0  501 -0.00000000000E+00 -0.00000000000E+00 -0.10573283092E+02  0.10573283400E+02  0.25500000000E-02 0. -1.
         23    2    1    2    0    0  0.00000000000E+00  0.88817841970E-15  0.18265891462E+03  0.20380548113E+03  0.90401300036E+02 0.  0.
    9000005    2    3    3    0    0  0.35255749270E+02  0.43807007630E+01  0.15380853563E+03  0.15803974325E+03  0.75720815234E+01 0.  0.
         22    1    3    3    0    0 -0.35255749270E+02 -0.43807007630E+01  0.28850378995E+02  0.45765737883E+02  0.00000000000E+00 0. -1.
         22    1    4    4    0    0  0.54548972827E+01  0.32274916425E+01  0.33120821220E+02  0.33721823867E+02  0.00000000000E+00 0.  1.
         22    1    4    4    0    0  0.29800851987E+02  0.11532091205E+01  0.12068771441E+03  0.12431791938E+03  0.00000000000E+00 0.  1.
<mgrwt>
<rscale>  0 0.90401300E+02</rscale>
<asrwt>0</asrwt>
<pdfrwt beam="1">  1        2 0.29728033E-01 0.90401300E+02</pdfrwt>
<pdfrwt beam="2">  1       -2 0.16266588E-02 0.90401300E+02</pdfrwt>
<totfact> 0.15632489E+05</totfact>
</mgrwt>
</event>
<event>
 7    1  0.3337990E-009  0.9260552E+02  0.7818608E-02  0.1296662E+00
          2   -1    0    0  501    0  0.00000000000E+00  0.00000000000E+00  0.73073008677E+02  0.73073008722E+02  0.25500000000E-02 0.  1.
         -2   -1    0    0    0  501 -0.00000000000E+00 -0.00000000000E+00 -0.29339771548E+02  0.29339771659E+02  0.25500000000E-02 0. -1.
         23    2    1    2    0    0  0.00000000000E+00  0.00000000000E+00  0.43733237129E+02  0.10241278038E+03  0.92605515793E+02 0.  0.
    9000005    2    3    3    0    0  0.23021803563E+02 -0.10018357179E+02 -0.20995321830E+02  0.32985427955E+02  0.41065799344E+01 0.  0.
         22    1    3    3    0    0 -0.23021803563E+02  0.10018357179E+02  0.64728558959E+02  0.69427352425E+02  0.00000000000E+00 0.  1.
         22    1    4    4    0    0  0.15031304198E+02 -0.52820558697E+01 -0.15303160469E+02  0.22091331794E+02  0.00000000000E+00 0. -1.
         22    1    4    4    0    0  0.79904993646E+01 -0.47363013095E+01 -0.56921613607E+01  0.10894096160E+02  0.00000000000E+00 0. -1.
<mgrwt>
<rscale>  0 0.92605516E+02</rscale>
<asrwt>0</asrwt>
<pdfrwt beam="1">  1        2 0.11242001E-01 0.92605516E+02</pdfrwt>
<pdfrwt beam="2">  1       -2 0.45138111E-02 0.92605516E+02</pdfrwt>
<totfact> 0.10718512E+05</totfact>
</mgrwt>
</event>
<event>
 7    1  0.3337990E-009  0.8966281E+02  0.7818608E-02  0.1303670E+00
          2   -1    0    0  501    0  0.00000000000E+00  0.00000000000E+00  0.68034449369E+03  0.68034449369E+03  0.25500000000E-02 0. -1.
         -2   -1    0    0    0  501 -0.00000000000E+00 -0.00000000000E+00 -0.29541719780E+01  0.29541730786E+01  0.25500000000E-02 0.  1.
         23    2    1    2    0    0  0.00000000000E+00  0.00000000000E+00  0.67739032171E+03  0.68329866677E+03  0.89662813168E+02 0.  0.
    9000005    2    3    3    0    0  0.12374946872E+01 -0.36759791892E+02  0.53240457869E+03  0.53372032820E+03  0.70667971827E+01 0.  0.
         22    1    3    3    0    0 -0.12374946872E+01  0.36759791892E+02  0.14498574302E+03  0.14957833858E+03  0.00000000000E+00 0.  1.
         22    1    4    4    0    0 -0.13209406028E+01 -0.19951492840E+02  0.24582281450E+03  0.24663467533E+03  0.00000000000E+00 0. -1.
         22    1    4    4    0    0  0.25584352900E+01 -0.16808299052E+02  0.28658176420E+03  0.28708565286E+03  0.00000000000E+00 0. -1.
<mgrwt>
<rscale>  0 0.89662813E+02</rscale>
<asrwt>0</asrwt>
<pdfrwt beam="1">  1        2 0.10466835E+00 0.89662813E+02</pdfrwt>
<pdfrwt beam="2">  1       -2 0.45448824E-03 0.89662813E+02</pdfrwt>
<totfact> 0.24616741E+05</totfact>
</mgrwt>
</event>
<event>
 7    1  0.3337990E-009  0.9077597E+02  0.7818608E-02  0.1300983E+00
          2   -1    0    0  501    0  0.00000000000E+00  0.00000000000E+00  0.51608185959E+02  0.51608186022E+02  0.25500000000E-02 0. -1.
         -2   -1    0    0    0  501 -0.00000000000E+00 -0.00000000000E+00 -0.39917488926E+02  0.39917489008E+02  0.25500000000E-02 0.  1.
         23    2    1    2    0    0  0.00000000000E+00  0.00000000000E+00  0.11690697033E+02  0.91525675030E+02  0.90775970348E+02 0.  0.
    9000005    2    3    3    0    0 -0.24727086526E+02  0.16519293083E+02  0.39876169263E+02  0.50553285585E+02  0.90116566884E+01 0.  0.
         22    1    3    3    0    0  0.24727086526E+02 -0.16519293083E+02 -0.28185472231E+02  0.40972389445E+02  0.00000000000E+00 0.  1.
         22    1    4    4    0    0 -0.14633999244E+02  0.14348159409E+02  0.29461049754E+02  0.35888397358E+02  0.00000000000E+00 0.  1.
         22    1    4    4    0    0 -0.10093087282E+02  0.21711336736E+01  0.10415119509E+02  0.14664888227E+02  0.00000000000E+00 0.  1.
<mgrwt>
<rscale>  0 0.90775970E+02</rscale>
<asrwt>0</asrwt>
<pdfrwt beam="1">  1        2 0.79397209E-02 0.90775970E+02</pdfrwt>
<pdfrwt beam="2">  1       -2 0.61411522E-02 0.90775970E+02</pdfrwt>
<totfact> 0.10320424E+05</totfact>
</mgrwt>
</event>
<event>
 7    1  0.3337990E-009  0.9050094E+02  0.7818608E-02  0.1301643E+00
          2   -1    0    0  501    0  0.00000000000E+00  0.00000000000E+00  0.12574316535E+03  0.12574316537E+03  0.25500000000E-02 0.  1.
         -2   -1    0    0    0  501 -0.00000000000E+00 -0.00000000000E+00 -0.16284025199E+02  0.16284025399E+02  0.25500000000E-02 0. -1.
         23    2    1    2    0    0  0.35527136788E-14  0.00000000000E+00  0.10945914015E+03  0.14202719077E+03  0.90500936771E+02 0.  0.
    9000005    2    3    3    0    0  0.27574442749E+02  0.34462548297E+02  0.67219049527E+02  0.80935109584E+02  0.91691993207E+01 0.  0.
         22    1    3    3    0    0 -0.27574442749E+02 -0.34462548297E+02  0.42240090621E+02  0.61092081186E+02  0.00000000000E+00 0. -1.
         22    1    4    4    0    0  0.26890715221E+02  0.29868764813E+02  0.62554610509E+02  0.74352760355E+02  0.00000000000E+00 0. -1.
         22    1    4    4    0    0  0.68372752841E+00  0.45937834832E+01  0.46644390179E+01  0.65823492292E+01  0.00000000000E+00 0. -1.
<mgrwt>
<rscale>  0 0.90500937E+02</rscale>
<asrwt>0</asrwt>
<pdfrwt beam="1">  1        2 0.19345103E-01 0.90500937E+02</pdfrwt>
<pdfrwt beam="2">  1       -2 0.25052346E-02 0.90500937E+02</pdfrwt>
<totfact> 0.13454125E+05</totfact>
</mgrwt>
</event>
<event>
 7    1  0.3337990E-009  0.9125640E+02  0.7818608E-02  0.1299837E+00
         -2   -1    0    0    0  501 -0.00000000000E+00  0.00000000000E+00  0.34419709294E+02  0.34419709389E+02  0.25500000000E-02 0.  1.
          2   -1    0    0  501    0  0.00000000000E+00 -0.00000000000E+00 -0.60486639848E+02  0.60486639902E+02  0.25500000000E-02 0. -1.
         23    2    1    2    0    0 -0.35527136788E-14  0.00000000000E+00 -0.26066930554E+02  0.94906349291E+02  0.91256398500E+02 0.  0.
    9000005    2    3    3    0    0 -0.30961908849E+02  0.28113146904E+02 -0.31482777735E+02  0.52736214965E+02  0.63995504944E+01 0.  0.
         22    1    3    3    0    0  0.30961908849E+02 -0.28113146904E+02  0.54158471809E+01  0.42170134326E+02  0.00000000000E+00 0.  1.
         22    1    4    4    0    0 -0.11221468981E+02  0.13959081058E+02 -0.11520138532E+02  0.21295325822E+02  0.00000000000E+00 0.  1.
         22    1    4    4    0    0 -0.19740439868E+02  0.14154065846E+02 -0.19962639203E+02  0.31440889143E+02  0.00000000000E+00 0.  1.
<mgrwt>
<rscale>  0 0.91256399E+02</rscale>
<asrwt>0</asrwt>
<pdfrwt beam="2">  1        2 0.93056369E-02 0.91256399E+02</pdfrwt>
<pdfrwt beam="1">  1       -2 0.52953399E-02 0.91256399E+02</pdfrwt>
<totfact> 0.10603827E+05</totfact>
</mgrwt>
</event>
<event>
 7    1  0.3337990E-009  0.8946718E+02  0.7818608E-02  0.1304147E+00
          2   -1    0    0  501    0  0.00000000000E+00  0.00000000000E+00  0.10201312416E+04  0.10201312416E+04  0.25500000000E-02 0.  1.
         -2   -1    0    0    0  501 -0.00000000000E+00 -0.00000000000E+00 -0.19616035774E+01  0.19616052348E+01  0.25500000000E-02 0. -1.
         23    2    1    2    0    0 -0.35527136788E-14  0.00000000000E+00  0.10181696381E+04  0.10220928469E+04  0.89467177036E+02 0.  0.
    9000005    2    3    3    0    0 -0.28988689319E+02 -0.66775052067E+01  0.88973864378E+03  0.89026169170E+03  0.67891296608E+01 0.  0.
         22    1    3    3    0    0  0.28988689319E+02  0.66775052067E+01  0.12843099428E+03  0.13183115518E+03  0.00000000000E+00 0. -1.
         22    1    4    4    0    0 -0.30661863580E+01  0.83076904996E+00  0.14358492685E+03  0.14362006439E+03  0.00000000000E+00 0. -1.
         22    1    4    4    0    0 -0.25922502961E+02 -0.75082742567E+01  0.74615371693E+03  0.74664162731E+03  0.00000000000E+00 0. -1.
<mgrwt>
<rscale>  0 0.89467177E+02</rscale>
<asrwt>0</asrwt>
<pdfrwt beam="1">  1        2 0.15694314E+00 0.89467177E+02</pdfrwt>
<pdfrwt beam="2">  1       -2 0.30178553E-03 0.89467177E+02</pdfrwt>
<totfact> 0.26296745E+05</totfact>
</mgrwt>
</event>
<event>
 7    1  0.3337990E-009  0.9153643E+02  0.7818608E-02  0.1299173E+00
         -2   -1    0    0    0  501 -0.00000000000E+00  0.00000000000E+00  0.33072786316E+01  0.33072796147E+01  0.25500000000E-02 0.  1.
          2   -1    0    0  501    0  0.00000000000E+00 -0.00000000000E+00 -0.63336944242E+03  0.63336944242E+03  0.25500000000E-02 0. -1.
         23    2    1    2    0    0  0.00000000000E+00  0.00000000000E+00 -0.63006216379E+03  0.63667672204E+03  0.91536430723E+02 0.  0.
    9000005    2    3    3    0    0  0.19867300706E+02  0.48982353564E+01 -0.59930636310E+03  0.59973593668E+03  0.98170538675E+01 0.  0.
         22    1    3    3    0    0 -0.19867300706E+02 -0.48982353564E+01 -0.30755800684E+02  0.36940785355E+02  0.00000000000E+00 0.  1.
         22    1    4    4    0    0 -0.11242671279E+01  0.71968045257E-01 -0.37169063531E+02  0.37186132358E+02  0.00000000000E+00 0. -1.
         22    1    4    4    0    0  0.20991567834E+02  0.48262673111E+01 -0.56213729957E+03  0.56254980432E+03  0.00000000000E+00 0. -1.
<mgrwt>
<rscale>  0 0.91536431E+02</rscale>
<asrwt>0</asrwt>
<pdfrwt beam="2">  1        2 0.97441356E-01 0.91536431E+02</pdfrwt>
<pdfrwt beam="1">  1       -2 0.50881268E-03 0.91536431E+02</pdfrwt>
<totfact> 0.22888029E+05</totfact>
</mgrwt>
</event>
<event>
 7    1  0.3337990E-009  0.9630977E+02  0.7818608E-02  0.1288253E+00
          2   -1    0    0  501    0  0.00000000000E+00  0.00000000000E+00  0.17855011769E+02  0.17855011951E+02  0.25500000000E-02 0. -1.
         -2   -1    0    0    0  501 -0.00000000000E+00 -0.00000000000E+00 -0.12987349059E+03  0.12987349061E+03  0.25500000000E-02 0.  1.
         23    2    1    2    0    0 -0.35527136788E-14 -0.17763568394E-14 -0.11201847882E+03  0.14772850257E+03  0.96309765200E+02 0.  0.
    9000005    2    3    3    0    0 -0.25451977531E+02 -0.14524001997E+02 -0.67241998710E+00  0.32590782369E+02  0.14246303117E+02 0.  0.
         22    1    3    3    0    0  0.25451977531E+02  0.14524001997E+02 -0.11134605883E+03  0.11513772020E+03  0.00000000000E+00 0.  1.
         22    1    4    4    0    0 -0.22657053035E+02 -0.17072961389E+02  0.11482732932E+01  0.28392720799E+02  0.00000000000E+00 0.  1.
         22    1    4    4    0    0 -0.27949244965E+01  0.25489593920E+01 -0.18206932803E+01  0.41980615698E+01  0.00000000000E+00 0.  1.
<mgrwt>
<rscale>  0 0.96309765E+02</rscale>
<asrwt>0</asrwt>
<pdfrwt beam="1">  1        2 0.27469250E-02 0.96309765E+02</pdfrwt>
<pdfrwt beam="2">  1       -2 0.19980536E-01 0.96309765E+02</pdfrwt>
<totfact> 0.64001202E+04</totfact>
</mgrwt>
</event>
<event>
 7    1  0.3337990E-009  0.9745943E+02  0.7818608E-02  0.1285731E+00
         -2   -1    0    0    0  501 -0.00000000000E+00  0.00000000000E+00  0.98881471887E+01  0.98881475175E+01  0.25500000000E-02 0.  1.
          2   -1    0    0  501    0  0.00000000000E+00 -0.00000000000E+00 -0.24014460870E+03  0.24014460872E+03  0.25500000000E-02 0. -1.
         23    2    1    2    0    0  0.00000000000E+00  0.00000000000E+00 -0.23025646152E+03  0.25003275623E+03  0.97459433206E+02 0.  0.
    9000005    2    3    3    0    0  0.84846647043E+01 -0.42222040072E+02 -0.17193292435E+03  0.17753223768E+03  0.10103204337E+02 0.  0.
         22    1    3    3    0    0 -0.84846647043E+01  0.42222040072E+02 -0.58323537168E+02  0.72500518556E+02  0.00000000000E+00 0.  1.
         22    1    4    4    0    0  0.15703636685E+01 -0.13922648159E+02 -0.38880784214E+02  0.41328217417E+02  0.00000000000E+00 0.  1.
         22    1    4    4    0    0  0.69143010358E+01 -0.28299391913E+02 -0.13305214013E+03  0.13620402026E+03  0.00000000000E+00 0.  1.
<mgrwt>
<rscale>  0 0.97459433E+02</rscale>
<asrwt>0</asrwt>
<pdfrwt beam="2">  1        2 0.36945320E-01 0.97459433E+02</pdfrwt>
<pdfrwt beam="1">  1       -2 0.15212536E-02 0.97459433E+02</pdfrwt>
<totfact> 0.13822042E+05</totfact>
</mgrwt>
</event>
<event>
 7    1  0.3337990E-009  0.9082214E+02  0.7818608E-02  0.1300873E+00
         -2   -1    0    0    0  501 -0.00000000000E+00  0.00000000000E+00  0.70345132774E+02  0.70345132820E+02  0.25500000000E-02 0.  1.
          2   -1    0    0  501    0  0.00000000000E+00 -0.00000000000E+00 -0.29314970084E+02  0.29314970195E+02  0.25500000000E-02 0. -1.
         23    2    1    2    0    0  0.00000000000E+00  0.00000000000E+00  0.41030162690E+02  0.99660103015E+02  0.90822144231E+02 0.  0.
    9000005    2    3    3    0    0  0.38235110385E+02 -0.26956059602E+01  0.45953599574E+02  0.61015178531E+02  0.11913384898E+02 0.  0.
         22    1    3    3    0    0 -0.38235110385E+02  0.26956059602E+01 -0.49234368846E+01  0.38644924484E+02  0.00000000000E+00 0. -1.
         22    1    4    4    0    0  0.13230201384E+02 -0.37591019287E+01  0.91917131940E+01  0.16542571366E+02  0.00000000000E+00 0. -1.
         22    1    4    4    0    0  0.25004909001E+02  0.10634959684E+01  0.36761886380E+02  0.44472607165E+02  0.00000000000E+00 0. -1.
<mgrwt>
<rscale>  0 0.90822144E+02</rscale>
<asrwt>0</asrwt>
<pdfrwt beam="2">  1        2 0.45099954E-02 0.90822144E+02</pdfrwt>
<pdfrwt beam="1">  1       -2 0.10822328E-01 0.90822144E+02</pdfrwt>
<totfact> 0.88945315E+04</totfact>
</mgrwt>
</event>
<event>
 7    1  0.3337990E-009  0.9132789E+02  0.7818608E-02  0.1299668E+00
          2   -1    0    0  501    0  0.00000000000E+00  0.00000000000E+00  0.11610432680E+03  0.11610432683E+03  0.25500000000E-02 0. -1.
         -2   -1    0    0    0  501 -0.00000000000E+00 -0.00000000000E+00 -0.17959672686E+02  0.17959672867E+02  0.25500000000E-02 0.  1.
         23    2    1    2    0    0  0.00000000000E+00 -0.12490009027E-15  0.98144654112E+02  0.13406399969E+03  0.91327886665E+02 0.  0.
    9000005    2    3    3    0    0 -0.44077285051E+02  0.92112330369E-01  0.61562787864E+02  0.76783562540E+02  0.12764132744E+02 0.  0.
         22    1    3    3    0    0  0.44077285051E+02 -0.92112330369E-01  0.36581866248E+02  0.57280437152E+02  0.00000000000E+00 0.  1.
         22    1    4    4    0    0 -0.38127856506E+02  0.45735712953E+01  0.52690560843E+02  0.65199280656E+02  0.00000000000E+00 0. -1.
         22    1    4    4    0    0 -0.59494285448E+01 -0.44814589650E+01  0.88722270203E+01  0.11584281884E+02  0.00000000000E+00 0. -1.
<mgrwt>
<rscale>  0 0.91327887E+02</rscale>
<asrwt>0</asrwt>
<pdfrwt beam="1">  1        2 0.17862204E-01 0.91327887E+02</pdfrwt>
<pdfrwt beam="2">  1       -2 0.27630266E-02 0.91327887E+02</pdfrwt>
<totfact> 0.12792365E+05</totfact>
</mgrwt>
</event>
<event>
 7    1  0.3337990E-009  0.9425234E+02  0.7818608E-02  0.1292869E+00
          2   -1    0    0  501    0  0.00000000000E+00  0.00000000000E+00  0.12236823718E+03  0.12236823721E+03  0.25500000000E-02 0. -1.
         -2   -1    0    0    0  501 -0.00000000000E+00 -0.00000000000E+00 -0.18149120686E+02  0.18149120865E+02  0.25500000000E-02 0.  1.
         23    2    1    2    0    0  0.35527136788E-14  0.00000000000E+00  0.10421911649E+03  0.14051735807E+03  0.94252340431E+02 0.  0.
    9000005    2    3    3    0    0  0.29417800365E+02  0.33732699136E+02  0.73983490031E+02  0.86503516541E+02  0.24494096269E+01 0.  0.
         22    1    3    3    0    0 -0.29417800365E+02 -0.33732699136E+02  0.30235626463E+02  0.54013841531E+02  0.00000000000E+00 0.  1.
         22    1    4    4    0    0  0.12090099572E+02  0.12111288419E+02  0.27671237587E+02  0.32535383883E+02  0.00000000000E+00 0. -1.
         22    1    4    4    0    0  0.17327700794E+02  0.21621410717E+02  0.46312252444E+02  0.53968132659E+02  0.00000000000E+00 0. -1.
<mgrwt>
<rscale>  0 0.94252340E+02</rscale>
<asrwt>0</asrwt>
<pdfrwt beam="1">  1        2 0.18825882E-01 0.94252340E+02</pdfrwt>
<pdfrwt beam="2">  1       -2 0.27921725E-02 0.94252340E+02</pdfrwt>
<totfact> 0.11932480E+05</totfact>
</mgrwt>
</event>
<event>
 7    1  0.3337990E-009  0.8884769E+02  0.7818608E-02  0.1305666E+00
          2   -1    0    0  501    0  0.00000000000E+00  0.00000000000E+00  0.68396354145E+02  0.68396354192E+02  0.25500000000E-02 0. -1.
         -2   -1    0    0    0  501 -0.00000000000E+00 -0.00000000000E+00 -0.28853554304E+02  0.28853554417E+02  0.25500000000E-02 0.  1.
         23    2    1    2    0    0  0.17763568394E-14  0.00000000000E+00  0.39542799840E+02  0.97249908609E+02  0.88847688238E+02 0.  0.
    9000005    2    3    3    0    0 -0.10881107917E+02  0.16952525716E+02  0.62007594878E+02  0.67076184051E+02  0.15763438920E+02 0.  0.
         22    1    3    3    0    0  0.10881107917E+02 -0.16952525716E+02 -0.22464795038E+02  0.30173724558E+02  0.00000000000E+00 0.  1.
         22    1    4    4    0    0 -0.95048367788E+01  0.45238867340E+01  0.43392430512E+02  0.44650985421E+02  0.00000000000E+00 0. -1.
         22    1    4    4    0    0 -0.13762711383E+01  0.12428638982E+02  0.18615164366E+02  0.22425198629E+02  0.00000000000E+00 0. -1.
<mgrwt>
<rscale>  0 0.88847688E+02</rscale>
<asrwt>0</asrwt>
<pdfrwt beam="1">  1        2 0.10522516E-01 0.88847688E+02</pdfrwt>
<pdfrwt beam="2">  1       -2 0.44390085E-02 0.88847688E+02</pdfrwt>
<totfact> 0.11815013E+05</totfact>
</mgrwt>
</event>
<event>
 7    1  0.3337990E-009  0.9062328E+02  0.7818608E-02  0.1301349E+00
         -2   -1    0    0    0  501 -0.00000000000E+00  0.00000000000E+00  0.94971016170E+01  0.94971019594E+01  0.25500000000E-02 0.  1.
          2   -1    0    0  501    0  0.00000000000E+00 -0.00000000000E+00 -0.21618643691E+03  0.21618643693E+03  0.25500000000E-02 0. -1.
         23    2    1    2    0    0  0.00000000000E+00 -0.35527136788E-14 -0.20668933530E+03  0.22568353889E+03  0.90623277361E+02 0.  0.
    9000005    2    3    3    0    0  0.14837517143E+02 -0.25385586433E+02 -0.18879557152E+03  0.19126309880E+03  0.85571739015E+01 0.  0.
         22    1    3    3    0    0 -0.14837517143E+02  0.25385586433E+02 -0.17893763778E+02  0.34420440085E+02  0.00000000000E+00 0.  1.
         22    1    4    4    0    0  0.14410168205E+02 -0.22416892921E+02 -0.18018726369E+03  0.18214724822E+03  0.00000000000E+00 0. -1.
         22    1    4    4    0    0  0.42734893803E+00 -0.29686935114E+01 -0.86083078235E+01  0.91158505837E+01  0.00000000000E+00 0. -1.
<mgrwt>
<rscale>  0 0.90623277E+02</rscale>
<asrwt>0</asrwt>
<pdfrwt beam="2">  1        2 0.33259448E-01 0.90623277E+02</pdfrwt>
<pdfrwt beam="1">  1       -2 0.14610927E-02 0.90623277E+02</pdfrwt>
<totfact> 0.16174253E+05</totfact>
</mgrwt>
</event>
<event>
 7    1  0.3337990E-009  0.9043039E+02  0.7818608E-02  0.1301813E+00
         -2   -1    0    0    0  501 -0.00000000000E+00  0.00000000000E+00  0.16318117762E+02  0.16318117961E+02  0.25500000000E-02 0. -1.
          2   -1    0    0  501    0  0.00000000000E+00 -0.00000000000E+00 -0.12528491680E+03  0.12528491683E+03  0.25500000000E-02 0.  1.
         23    2    1    2    0    0  0.88817841970E-15  0.00000000000E+00 -0.10896679904E+03  0.14160303479E+03  0.90430394052E+02 0.  0.
    9000005    2    3    3    0    0 -0.75306056468E+01 -0.20593245468E+02  0.55073659249E+01  0.25047785123E+02  0.10782795547E+02 0.  0.
         22    1    3    3    0    0  0.75306056468E+01  0.20593245468E+02 -0.11447416497E+03  0.11655524967E+03  0.00000000000E+00 0.  1.
         22    1    4    4    0    0  0.19369163661E+01 -0.10055483539E+02  0.29074669294E+01  0.10645081407E+02  0.00000000000E+00 0.  1.
         22    1    4    4    0    0 -0.94675220129E+01 -0.10537761929E+02  0.25998989955E+01  0.14402703716E+02  0.00000000000E+00 0.  1.
<mgrwt>
<rscale>  0 0.90430394E+02</rscale>
<asrwt>0</asrwt>
<pdfrwt beam="2">  1        2 0.19274602E-01 0.90430394E+02</pdfrwt>
<pdfrwt beam="1">  1       -2 0.25104798E-02 0.90430394E+02</pdfrwt>
<totfact> 0.13466782E+05</totfact>
</mgrwt>
</event>
<event>
 7    1  0.3337990E-009  0.9155914E+02  0.7818608E-02  0.1299119E+00
          2   -1    0    0  501    0  0.00000000000E+00  0.00000000000E+00  0.87998569338E+01  0.87998573032E+01  0.25500000000E-02 0. -1.
         -2   -1    0    0    0  501 -0.00000000000E+00 -0.00000000000E+00 -0.23815941369E+03  0.23815941371E+03  0.25500000000E-02 0.  1.
         23    2    1    2    0    0 -0.17763568394E-14  0.00000000000E+00 -0.22935955676E+03  0.24695927101E+03  0.91559135322E+02 0.  0.
    9000005    2    3    3    0    0  0.13233188573E+02  0.10451358513E+02 -0.22942578436E+03  0.23009651440E+03  0.48854103742E+01 0.  0.
         22    1    3    3    0    0 -0.13233188573E+02 -0.10451358513E+02  0.66227596734E-01  0.16862756615E+02  0.00000000000E+00 0. -1.
         22    1    4    4    0    0  0.80081058692E+01  0.39732495232E+01 -0.97731068151E+02  0.98139075568E+02  0.00000000000E+00 0.  1.
         22    1    4    4    0    0  0.52250827042E+01  0.64781089895E+01 -0.13169471621E+03  0.13195743883E+03  0.00000000000E+00 0.  1.
<mgrwt>
<rscale>  0 0.91559135E+02</rscale>
<asrwt>0</asrwt>
<pdfrwt beam="1">  1        2 0.13538244E-02 0.91559135E+02</pdfrwt>
<pdfrwt beam="2">  1       -2 0.36639905E-01 0.91559135E+02</pdfrwt>
<totfact> 0.56917869E+04</totfact>
</mgrwt>
</event>
<event>
 7    1  0.3337990E-009  0.9068853E+02  0.7818608E-02  0.1301193E+00
         -2   -1    0    0    0  501 -0.00000000000E+00  0.00000000000E+00  0.17106621345E+02  0.17106621535E+02  0.25500000000E-02 0.  1.
          2   -1    0    0  501    0  0.00000000000E+00 -0.00000000000E+00 -0.12019336833E+03  0.12019336836E+03  0.25500000000E-02 0. -1.
         23    2    1    2    0    0  0.00000000000E+00  0.00000000000E+00 -0.10308674699E+03  0.13729998990E+03  0.90688531914E+02 0.  0.
    9000005    2    3    3    0    0 -0.17880522197E+02  0.16494166035E+02 -0.10869843327E+03  0.11233478190E+03  0.14559644273E+02 0.  0.
         22    1    3    3    0    0  0.17880522197E+02 -0.16494166035E+02  0.56116862856E+01  0.24965207994E+02  0.00000000000E+00 0.  1.
         22    1    4    4    0    0 -0.18307258094E+02  0.17625511122E+02 -0.87863622883E+02  0.91464914407E+02  0.00000000000E+00 0.  1.
         22    1    4    4    0    0  0.42673589663E+00 -0.11313450868E+01 -0.20834810391E+02  0.20869867495E+02  0.00000000000E+00 0.  1.
<mgrwt>
<rscale>  0 0.90688532E+02</rscale>
<asrwt>0</asrwt>
<pdfrwt beam="2">  1        2 0.18491287E-01 0.90688532E+02</pdfrwt>
<pdfrwt beam="1">  1       -2 0.26317880E-02 0.90688532E+02</pdfrwt>
<totfact> 0.13185120E+05</totfact>
</mgrwt>
</event>
<event>
 7    1  0.3337990E-009  0.8945753E+02  0.7818608E-02  0.1304171E+00
          2   -1    0    0  501    0  0.00000000000E+00  0.00000000000E+00  0.21774680552E+03  0.21774680554E+03  0.25500000000E-02 0. -1.
         -2   -1    0    0    0  501 -0.00000000000E+00 -0.00000000000E+00 -0.91880218982E+01  0.91880222520E+01  0.25500000000E-02 0.  1.
         23    2    1    2    0    0  0.00000000000E+00  0.00000000000E+00  0.20855878362E+03  0.22693482779E+03  0.89457530912E+02 0.  0.
    9000005    2    3    3    0    0  0.33299990449E+02  0.16177696659E+02  0.16776650552E+03  0.17184746820E+03  0.39172338083E+01 0.  0.
         22    1    3    3    0    0 -0.33299990449E+02 -0.16177696659E+02  0.40792278103E+02  0.55087359584E+02  0.00000000000E+00 0.  1.
         22    1    4    4    0    0  0.31578040084E+02  0.15064512585E+02  0.15366910119E+03  0.15760172847E+03  0.00000000000E+00 0. -1.
         22    1    4    4    0    0  0.17219503652E+01  0.11131840745E+01  0.14097404330E+02  0.14245739738E+02  0.00000000000E+00 0. -1.
<mgrwt>
<rscale>  0 0.89457531E+02</rscale>
<asrwt>0</asrwt>
<pdfrwt beam="1">  1        2 0.33499509E-01 0.89457531E+02</pdfrwt>
<pdfrwt beam="2">  1       -2 0.14135418E-02 0.89457531E+02</pdfrwt>
<totfact> 0.16789540E+05</totfact>
</mgrwt>
</event>
<event>
 7    1  0.3337990E-009  0.9029298E+02  0.7818608E-02  0.1302144E+00
          2   -1    0    0  501    0  0.00000000000E+00  0.00000000000E+00  0.68970001223E+01  0.68970005937E+01  0.25500000000E-02 0. -1.
         -2   -1    0    0    0  501 -0.00000000000E+00 -0.00000000000E+00 -0.29552055295E+03  0.29552055296E+03  0.25500000000E-02 0.  1.
         23    2    1    2    0    0  0.00000000000E+00  0.00000000000E+00 -0.28862355283E+03  0.30241755356E+03  0.90292975646E+02 0.  0.
    9000005    2    3    3    0    0  0.23325153635E+02 -0.76369155532E+01 -0.27093455734E+03  0.27216386233E+03  0.80776436651E+01 0.  0.
         22    1    3    3    0    0 -0.23325153635E+02  0.76369155532E+01 -0.17688995488E+02  0.30253691223E+02  0.00000000000E+00 0. -1.
         22    1    4    4    0    0  0.18393705984E+02 -0.53297187050E+01 -0.23922635512E+03  0.23999163174E+03  0.00000000000E+00 0.  1.
         22    1    4    4    0    0  0.49314476503E+01 -0.23071968482E+01 -0.31708202217E+02  0.32172230589E+02  0.00000000000E+00 0.  1.
<mgrwt>
<rscale>  0 0.90292976E+02</rscale>
<asrwt>0</asrwt>
<pdfrwt beam="1">  1        2 0.10610772E-02 0.90292976E+02</pdfrwt>
<pdfrwt beam="2">  1       -2 0.45464691E-01 0.90292976E+02</pdfrwt>
<totfact> 0.52737643E+04</totfact>
</mgrwt>
</event>
<event>
 7    1  0.3337990E-009  0.8266232E+02  0.7818608E-02  0.1321662E+00
          2   -1    0    0  501    0  0.00000000000E+00  0.00000000000E+00  0.36338841391E+03  0.36338841392E+03  0.25500000000E-02 0. -1.
         -2   -1    0    0    0  501 -0.00000000000E+00 -0.00000000000E+00 -0.47009332315E+01  0.47009339231E+01  0.25500000000E-02 0.  1.
         23    2    1    2    0    0  0.37470027081E-15  0.00000000000E+00  0.35868748068E+03  0.36808934784E+03  0.82662320312E+02 0.  0.
    9000005    2    3    3    0    0  0.91915671504E-01 -0.38788098380E+02  0.13249372674E+03  0.13859394626E+03  0.12213488090E+02 0.  0.
         22    1    3    3    0    0 -0.91915671504E-01  0.38788098380E+02  0.22619375395E+03  0.22949540158E+03  0.00000000000E+00 0. -1.
         22    1    4    4    0    0 -0.28075314332E+01 -0.88396859718E+01  0.18480327977E+02  0.20677156550E+02  0.00000000000E+00 0.  1.
         22    1    4    4    0    0  0.28994471047E+01 -0.29948412408E+02  0.11401339876E+03  0.11791678971E+03  0.00000000000E+00 0.  1.
<mgrwt>
<rscale>  0 0.82662320E+02</rscale>
<asrwt>0</asrwt>
<pdfrwt beam="1">  1        2 0.55905907E-01 0.82662320E+02</pdfrwt>
<pdfrwt beam="2">  1       -2 0.72322059E-03 0.82662320E+02</pdfrwt>
<totfact> 0.24987492E+05</totfact>
</mgrwt>
</event>
<event>
 7    1  0.3337990E-009  0.9548361E+02  0.7818608E-02  0.1290091E+00
          2   -1    0    0  501    0  0.00000000000E+00  0.00000000000E+00  0.40245634079E+03  0.40245634080E+03  0.25500000000E-02 0. -1.
         -2   -1    0    0    0  501 -0.00000000000E+00 -0.00000000000E+00 -0.56634215098E+01  0.56634220839E+01  0.25500000000E-02 0.  1.
         23    2    1    2    0    0  0.00000000000E+00  0.00000000000E+00  0.39679291928E+03  0.40811976288E+03  0.95483611494E+02 0.  0.
    9000005    2    3    3    0    0 -0.38515472783E+02  0.99651303961E+01  0.30722073404E+03  0.31010995809E+03  0.14172551365E+02 0.  0.
         22    1    3    3    0    0  0.38515472783E+02 -0.99651303961E+01  0.89572185239E+02  0.98009804795E+02  0.00000000000E+00 0.  1.
         22    1    4    4    0    0 -0.27661984626E+02  0.65853931472E+01  0.25953383611E+03  0.26108689144E+03  0.00000000000E+00 0. -1.
         22    1    4    4    0    0 -0.10853488157E+02  0.33797372490E+01  0.47686897930E+02  0.49023066645E+02  0.00000000000E+00 0. -1.
<mgrwt>
<rscale>  0 0.95483611E+02</rscale>
<asrwt>0</asrwt>
<pdfrwt beam="1">  1        2 0.61916374E-01 0.95483611E+02</pdfrwt>
<pdfrwt beam="2">  1       -2 0.87129547E-03 0.95483611E+02</pdfrwt>
<totfact> 0.17692940E+05</totfact>
</mgrwt>
</event>
<event>
 7    1  0.3337990E-009  0.7825526E+02  0.7818608E-02  0.1334077E+00
         -2   -1    0    0    0  501 -0.00000000000E+00  0.00000000000E+00  0.46754118414E+01  0.46754125368E+01  0.25500000000E-02 0.  1.
          2   -1    0    0  501    0  0.00000000000E+00 -0.00000000000E+00 -0.32745164549E+03  0.32745164550E+03  0.25500000000E-02 0. -1.
         23    2    1    2    0    0 -0.17763568394E-14  0.00000000000E+00 -0.32277623365E+03  0.33212705803E+03  0.78255259707E+02 0.  0.
    9000005    2    3    3    0    0  0.13811608503E+02 -0.35357257472E+02 -0.18613978351E+03  0.19031586069E+03  0.11454764990E+02 0.  0.
         22    1    3    3    0    0 -0.13811608503E+02  0.35357257472E+02 -0.13663645014E+03  0.14181119734E+03  0.00000000000E+00 0. -1.
         22    1    4    4    0    0  0.13662829891E+02 -0.22238779546E+02 -0.11000422299E+03  0.11305823859E+03  0.00000000000E+00 0.  1.
         22    1    4    4    0    0  0.14877861238E+00 -0.13118477927E+02 -0.76135560516E+02  0.77257622104E+02  0.00000000000E+00 0.  1.
<mgrwt>
<rscale>  0 0.78255260E+02</rscale>
<asrwt>0</asrwt>
<pdfrwt beam="2">  1        2 0.50377158E-01 0.78255260E+02</pdfrwt>
<pdfrwt beam="1">  1       -2 0.71929444E-03 0.78255260E+02</pdfrwt>
<totfact> 0.27787147E+05</totfact>
</mgrwt>
</event>
<event>
 7    1  0.3337990E-009  0.8947097E+02  0.7818608E-02  0.1304138E+00
         -2   -1    0    0    0  501 -0.00000000000E+00  0.00000000000E+00  0.71398328590E+01  0.71398333144E+01  0.25500000000E-02 0.  1.
          2   -1    0    0  501    0  0.00000000000E+00 -0.00000000000E+00 -0.28029559097E+03  0.28029559098E+03  0.25500000000E-02 0. -1.
         23    2    1    2    0    0  0.35527136788E-14 -0.35527136788E-14 -0.27315575811E+03  0.28743542430E+03  0.89470972673E+02 0.  0.
    9000005    2    3    3    0    0  0.31971447089E+02 -0.22508295348E+02 -0.20129687291E+03  0.20562774635E+03  0.15282088787E+02 0.  0.
         22    1    3    3    0    0 -0.31971447089E+02  0.22508295348E+02 -0.71858885201E+02  0.81807677945E+02  0.00000000000E+00 0.  1.
         22    1    4    4    0    0  0.19856323664E+02 -0.77885758522E+01 -0.77914515568E+02  0.80781230737E+02  0.00000000000E+00 0.  1.
         22    1    4    4    0    0  0.12115123425E+02 -0.14719719496E+02 -0.12338235734E+03  0.12484651561E+03  0.00000000000E+00 0.  1.
<mgrwt>
<rscale>  0 0.89470973E+02</rscale>
<asrwt>0</asrwt>
<pdfrwt beam="2">  1        2 0.43122390E-01 0.89470973E+02</pdfrwt>
<pdfrwt beam="1">  1       -2 0.10984361E-02 0.89470973E+02</pdfrwt>
<totfact> 0.18421664E+05</totfact>
</mgrwt>
</event>
<event>
 7    1  0.3337990E-009  0.8645249E+02  0.7818608E-02  0.1311677E+00
          2   -1    0    0  501    0  0.00000000000E+00  0.00000000000E+00  0.20705495983E+04  0.20705495983E+04  0.25500000000E-02 0. -1.
         -2   -1    0    0    0  501 -0.00000000000E+00 -0.00000000000E+00 -0.90241965058E+00  0.90242325338E+00  0.25500000000E-02 0.  1.
         23    2    1    2    0    0 -0.17763568394E-14 -0.17763568394E-14  0.20696471786E+04  0.20714520215E+04  0.86452492806E+02 0.  0.
    9000005    2    3    3    0    0  0.14675892839E+02  0.13169287107E+02  0.19555435216E+04  0.19556571317E+04  0.74525249893E+01 0.  0.
         22    1    3    3    0    0 -0.14675892839E+02 -0.13169287107E+02  0.11410365706E+03  0.11579488981E+03  0.00000000000E+00 0.  1.
         22    1    4    4    0    0  0.10538309436E+01 -0.24437809528E+00  0.31383378963E+02  0.31402018334E+02  0.00000000000E+00 0.  1.
         22    1    4    4    0    0  0.13622061895E+02  0.13413665203E+02  0.19241601426E+04  0.19242551134E+04  0.00000000000E+00 0.  1.
<mgrwt>
<rscale>  0 0.86452493E+02</rscale>
<asrwt>0</asrwt>
<pdfrwt beam="1">  1        2 0.31854615E+00 0.86452493E+02</pdfrwt>
<pdfrwt beam="2">  1       -2 0.13883404E-03 0.86452493E+02</pdfrwt>
<totfact> 0.21893519E+05</totfact>
</mgrwt>
</event>
<event>
 7    1  0.3337990E-009  0.8990318E+02  0.7818608E-02  0.1303086E+00
         -2   -1    0    0    0  501 -0.00000000000E+00  0.00000000000E+00  0.16532126757E+01  0.16532146423E+01  0.25500000000E-02 0.  1.
          2   -1    0    0  501    0  0.00000000000E+00 -0.00000000000E+00 -0.12222531846E+04  0.12222531846E+04  0.25500000000E-02 0. -1.
         23    2    1    2    0    0  0.35527136788E-14 -0.88817841970E-15 -0.12205999719E+04  0.12239063992E+04  0.89903184877E+02 0.  0.
    9000005    2    3    3    0    0  0.27927360050E+02 -0.75849740416E+01 -0.10750960252E+04  0.10755525392E+04  0.12013823744E+02 0.  0.
         22    1    3    3    0    0 -0.27927360050E+02  0.75849740416E+01 -0.14550394672E+03  0.14835386001E+03  0.00000000000E+00 0.  1.
         22    1    4    4    0    0  0.28208527430E+02 -0.91794989602E+01 -0.10043642630E+04  0.10048022477E+04  0.00000000000E+00 0.  1.
         22    1    4    4    0    0 -0.28116738067E+00  0.15945249187E+01 -0.70731762174E+02  0.70750291484E+02  0.00000000000E+00 0.  1.
<mgrwt>
<rscale>  0 0.89903185E+02</rscale>
<asrwt>0</asrwt>
<pdfrwt beam="2">  1        2 0.18803823E+00 0.89903185E+02</pdfrwt>
<pdfrwt beam="1">  1       -2 0.25434154E-03 0.89903185E+02</pdfrwt>
<totfact> 0.25749844E+05</totfact>
</mgrwt>
</event>
<event>
 7    1  0.3337990E-009  0.9151849E+02  0.7818608E-02  0.1299216E+00
          2   -1    0    0  501    0  0.00000000000E+00  0.00000000000E+00  0.27216390518E+02  0.27216390638E+02  0.25500000000E-02 0. -1.
         -2   -1    0    0    0  501 -0.00000000000E+00 -0.00000000000E+00 -0.76935576827E+02  0.76935576870E+02  0.25500000000E-02 0.  1.
         23    2    1    2    0    0  0.00000000000E+00  0.00000000000E+00 -0.49719186309E+02  0.10415196751E+03  0.91518494571E+02 0.  0.
    9000005    2    3    3    0    0  0.14915261916E+02  0.42285845419E+02 -0.19246586278E+02  0.49938158257E+02  0.10622184608E+02 0.  0.
         22    1    3    3    0    0 -0.14915261916E+02 -0.42285845419E+02 -0.30472600031E+02  0.54213809251E+02  0.00000000000E+00 0.  1.
         22    1    4    4    0    0  0.62296935670E+01  0.72450133469E+01 -0.13683477423E+01  0.96525476367E+01  0.00000000000E+00 0. -1.
         22    1    4    4    0    0  0.86855683492E+01  0.35040832072E+02 -0.17878238536E+02  0.40285610620E+02  0.00000000000E+00 0. -1.
<mgrwt>
<rscale>  0 0.91518495E+02</rscale>
<asrwt>0</asrwt>
<pdfrwt beam="1">  1        2 0.41871370E-02 0.91518495E+02</pdfrwt>
<pdfrwt beam="2">  1       -2 0.11836243E-01 0.91518495E+02</pdfrwt>
<totfact> 0.85211191E+04</totfact>
</mgrwt>
</event>
<event>
 7    1  0.3337990E-009  0.9279335E+02  0.7818608E-02  0.1296225E+00
         -2   -1    0    0    0  501 -0.00000000000E+00  0.00000000000E+00  0.15162097143E+03  0.15162097145E+03  0.25500000000E-02 0.  1.
          2   -1    0    0  501    0  0.00000000000E+00 -0.00000000000E+00 -0.14197582580E+02  0.14197582809E+02  0.25500000000E-02 0. -1.
         23    2    1    2    0    0  0.00000000000E+00  0.00000000000E+00  0.13742338885E+03  0.16581855426E+03  0.92793346390E+02 0.  0.
    9000005    2    3    3    0    0  0.44605861807E+02 -0.17124684981E+01  0.89839446975E+02  0.10057403740E+03  0.71690522766E+01 0.  0.
         22    1    3    3    0    0 -0.44605861807E+02  0.17124684981E+01  0.47583941877E+02  0.65244516861E+02  0.00000000000E+00 0.  1.
         22    1    4    4    0    0  0.12750578123E+01 -0.12848518242E+01  0.26378963247E+01  0.31992364175E+01  0.00000000000E+00 0.  1.
         22    1    4    4    0    0  0.43330803995E+02 -0.42761667384E+00  0.87201550650E+02  0.97374800984E+02  0.00000000000E+00 0.  1.
<mgrwt>
<rscale>  0 0.92793346E+02</rscale>
<asrwt>0</asrwt>
<pdfrwt beam="2">  1        2 0.21842434E-02 0.92793346E+02</pdfrwt>
<pdfrwt beam="1">  1       -2 0.23326305E-01 0.92793346E+02</pdfrwt>
<totfact> 0.66550826E+04</totfact>
</mgrwt>
</event>
<event>
 7    1  0.3337990E-009  0.9276782E+02  0.7818608E-02  0.1296284E+00
          2   -1    0    0  501    0  0.00000000000E+00  0.00000000000E+00  0.10964514029E+03  0.10964514032E+03  0.25500000000E-02 0.  1.
         -2   -1    0    0    0  501 -0.00000000000E+00 -0.00000000000E+00 -0.19622091564E+02  0.19622091730E+02  0.25500000000E-02 0. -1.
         23    2    1    2    0    0  0.00000000000E+00  0.17763568394E-14  0.90023048730E+02  0.12926723205E+03  0.92767817589E+02 0.  0.
    9000005    2    3    3    0    0 -0.25058943826E+02  0.10582880005E+02 -0.57020959803E+01  0.29752151063E+02  0.10617371588E+02 0.  0.
         22    1    3    3    0    0  0.25058943826E+02 -0.10582880005E+02  0.95725144710E+02  0.99515080991E+02  0.00000000000E+00 0. -1.
         22    1    4    4    0    0 -0.13452178094E+02  0.53998521829E+01 -0.84057304710E+01  0.16756366069E+02  0.00000000000E+00 0. -1.
         22    1    4    4    0    0 -0.11606765732E+02  0.51830278222E+01  0.27036344908E+01  0.12995784994E+02  0.00000000000E+00 0. -1.
<mgrwt>
<rscale>  0 0.92767818E+02</rscale>
<asrwt>0</asrwt>
<pdfrwt beam="1">  1        2 0.16868483E-01 0.92767818E+02</pdfrwt>
<pdfrwt beam="2">  1       -2 0.30187834E-02 0.92767818E+02</pdfrwt>
<totfact> 0.12034894E+05</totfact>
</mgrwt>
</event>
<event>
 7    1  0.3337990E-009  0.9072178E+02  0.7818608E-02  0.1301113E+00
         -2   -1    0    0    0  501 -0.00000000000E+00  0.00000000000E+00  0.52539459433E+01  0.52539465621E+01  0.25500000000E-02 0.  1.
          2   -1    0    0  501    0  0.00000000000E+00 -0.00000000000E+00 -0.39163137208E+03  0.39163137209E+03  0.25500000000E-02 0. -1.
         23    2    1    2    0    0  0.17763568394E-14  0.00000000000E+00 -0.38637742613E+03  0.39688531865E+03  0.90721776505E+02 0.  0.
    9000005    2    3    3    0    0  0.10619209016E+02 -0.42826970272E+02 -0.17992637488E+03  0.18577171523E+03  0.13809881259E+02 0.  0.
         22    1    3    3    0    0 -0.10619209016E+02  0.42826970272E+02 -0.20645105125E+03  0.21111360342E+03  0.00000000000E+00 0.  1.
         22    1    4    4    0    0  0.78355404944E+01 -0.38952339673E+02 -0.17192044276E+03  0.17645203059E+03  0.00000000000E+00 0.  1.
         22    1    4    4    0    0  0.27836685215E+01 -0.38746305993E+01 -0.80059321185E+01  0.93196846408E+01  0.00000000000E+00 0.  1.
<mgrwt>
<rscale>  0 0.90721777E+02</rscale>
<asrwt>0</asrwt>
<pdfrwt beam="2">  1        2 0.60250957E-01 0.90721777E+02</pdfrwt>
<pdfrwt beam="1">  1       -2 0.80829974E-03 0.90721777E+02</pdfrwt>
<totfact> 0.20076607E+05</totfact>
</mgrwt>
</event>
<event>
 7    1  0.3337990E-009  0.9020233E+02  0.7818608E-02  0.1302362E+00
         -2   -1    0    0    0  501 -0.00000000000E+00  0.00000000000E+00  0.95312515950E+01  0.95312519361E+01  0.25500000000E-02 0.  1.
          2   -1    0    0  501    0  0.00000000000E+00 -0.00000000000E+00 -0.21341532531E+03  0.21341532533E+03  0.25500000000E-02 0. -1.
         23    2    1    2    0    0  0.71054273576E-14 -0.35527136788E-14 -0.20388407371E+03  0.22294657726E+03  0.90202332552E+02 0.  0.
    9000005    2    3    3    0    0  0.32225161402E+02 -0.29812273459E+02 -0.12410743523E+03  0.13188865765E+03  0.80454869876E+01 0.  0.
         22    1    3    3    0    0 -0.32225161402E+02  0.29812273459E+02 -0.79776638483E+02  0.91057919611E+02  0.00000000000E+00 0.  1.
         22    1    4    4    0    0  0.30444976465E+02 -0.28155467054E+02 -0.10967675129E+03  0.11725449540E+03  0.00000000000E+00 0.  1.
         22    1    4    4    0    0  0.17801849365E+01 -0.16568064053E+01 -0.14430683940E+02  0.14634162253E+02  0.00000000000E+00 0.  1.
<mgrwt>
<rscale>  0 0.90202333E+02</rscale>
<asrwt>0</asrwt>
<pdfrwt beam="2">  1        2 0.32833123E-01 0.90202333E+02</pdfrwt>
<pdfrwt beam="1">  1       -2 0.14663466E-02 0.90202333E+02</pdfrwt>
<totfact> 0.16300696E+05</totfact>
</mgrwt>
</event>
<event>
 7    1  0.3337990E-009  0.8885586E+02  0.7818608E-02  0.1305646E+00
          2   -1    0    0  501    0  0.00000000000E+00  0.00000000000E+00  0.56571058474E+01  0.56571064221E+01  0.25500000000E-02 0. -1.
         -2   -1    0    0    0  501 -0.00000000000E+00 -0.00000000000E+00 -0.34891351708E+03  0.34891351709E+03  0.25500000000E-02 0.  1.
         23    2    1    2    0    0  0.00000000000E+00 -0.35527136788E-14 -0.34325641124E+03  0.35457062351E+03  0.88855856335E+02 0.  0.
    9000005    2    3    3    0    0  0.40461832328E+02  0.16096670576E+02 -0.15558646830E+03  0.16191479007E+03  0.10629555310E+02 0.  0.
         22    1    3    3    0    0 -0.40461832328E+02 -0.16096670576E+02 -0.18766994293E+03  0.19265583344E+03  0.00000000000E+00 0.  1.
         22    1    4    4    0    0  0.12542208329E+01 -0.61674627367E+00 -0.13536309238E+02  0.13608273721E+02  0.00000000000E+00 0. -1.
         22    1    4    4    0    0  0.39207611495E+02  0.16713416850E+02 -0.14205015906E+03  0.14830651635E+03  0.00000000000E+00 0. -1.
<mgrwt>
<rscale>  0 0.88855856E+02</rscale>
<asrwt>0</asrwt>
<pdfrwt beam="1">  1        2 0.87032429E-03 0.88855856E+02</pdfrwt>
<pdfrwt beam="2">  1       -2 0.53678986E-01 0.88855856E+02</pdfrwt>
<totfact> 0.49851369E+04</totfact>
</mgrwt>
</event>
<event>
 7    1  0.3337990E-009  0.9117969E+02  0.7818608E-02  0.1300020E+00
          2   -1    0    0  501    0  0.00000000000E+00  0.00000000000E+00  0.16918337873E+03  0.16918337875E+03  0.25500000000E-02 0. -1.
         -2   -1    0    0    0  501 -0.00000000000E+00 -0.00000000000E+00 -0.12285095992E+02  0.12285096256E+02  0.25500000000E-02 0.  1.
         23    2    1    2    0    0  0.00000000000E+00  0.00000000000E+00  0.15689828274E+03  0.18146847500E+03  0.91179692335E+02 0.  0.
    9000005    2    3    3    0    0 -0.17510662683E+01 -0.22547683903E+02  0.15674662316E+03  0.15885239039E+03  0.12373915201E+02 0.  0.
         22    1    3    3    0    0  0.17510662683E+01  0.22547683903E+02  0.15165957130E+00  0.22616084610E+02  0.00000000000E+00 0.  1.
         22    1    4    4    0    0 -0.28991871560E+01 -0.18966364419E+02  0.14911607346E+03  0.15034537449E+03  0.00000000000E+00 0. -1.
         22    1    4    4    0    0  0.11481208877E+01 -0.35813194847E+01  0.76305497039E+01  0.85070159050E+01  0.00000000000E+00 0. -1.
<mgrwt>
<rscale>  0 0.91179692E+02</rscale>
<asrwt>0</asrwt>
<pdfrwt beam="1">  1        2 0.26028209E-01 0.91179692E+02</pdfrwt>
<pdfrwt beam="2">  1       -2 0.18900150E-02 0.91179692E+02</pdfrwt>
<totfact> 0.14572070E+05</totfact>
</mgrwt>
</event>
<event>
 7    1  0.6089957E-009  0.9187772E+02  0.7818608E-02  0.1298367E+00
         -2   -1    0    0    0  501 -0.00000000000E+00  0.00000000000E+00  0.10435291041E+02  0.10435291353E+02  0.25500000000E-02 0.  1.
          2   -1    0    0  501    0  0.00000000000E+00 -0.00000000000E+00 -0.20223477041E+03  0.20223477043E+03  0.25500000000E-02 0. -1.
         23    2    1    2    0    0  0.00000000000E+00  0.00000000000E+00 -0.19179947937E+03  0.21267006178E+03  0.91877717054E+02 0.  0.
    9000005    2    3    3    0    0 -0.33312855833E+02 -0.11097286387E+01 -0.30396868608E+02  0.47861746995E+02  0.15993728235E+02 0.  0.
         22    1    3    3    0    0  0.33312855833E+02  0.11097286387E+01 -0.16140261077E+03  0.16480831479E+03  0.00000000000E+00 0. -1.
         22    1    4    4    0    0 -0.21637062533E+02 -0.28594895232E+01 -0.28511377979E+02  0.35905958136E+02  0.00000000000E+00 0.  1.
         22    1    4    4    0    0 -0.11675793299E+02  0.17497608845E+01 -0.18854906286E+01  0.11955788859E+02  0.00000000000E+00 0.  1.
<mgrwt>
<rscale>  0 0.91877717E+02</rscale>
<asrwt>0</asrwt>
<pdfrwt beam="2">  1        2 0.31113039E-01 0.91877717E+02</pdfrwt>
<pdfrwt beam="1">  1       -2 0.16054296E-02 0.91877717E+02</pdfrwt>
<totfact> 0.15213081E+05</totfact>
</mgrwt>
</event>
<event>
 7    1  0.3337990E-009  0.8800829E+02  0.7818608E-02  0.1307748E+00
         -2   -1    0    0    0  501 -0.00000000000E+00  0.00000000000E+00  0.36473118679E+02  0.36473118768E+02  0.25500000000E-02 0.  1.
          2   -1    0    0  501    0  0.00000000000E+00 -0.00000000000E+00 -0.53090184678E+02  0.53090184740E+02  0.25500000000E-02 0. -1.
         23    2    1    2    0    0 -0.71054273576E-14  0.00000000000E+00 -0.16617065999E+02  0.89563303508E+02  0.88008286273E+02 0.  0.
    9000005    2    3    3    0    0 -0.41742211536E+02 -0.10322101278E+02 -0.63730015902E+01  0.45360375388E+02  0.12961115203E+02 0.  0.
         22    1    3    3    0    0  0.41742211536E+02  0.10322101278E+02 -0.10244064409E+02  0.44202928120E+02  0.00000000000E+00 0.  1.
         22    1    4    4    0    0 -0.81346359770E+01  0.26525239441E+01  0.91657323084E+00  0.86051317386E+01  0.00000000000E+00 0.  1.
         22    1    4    4    0    0 -0.33607575559E+02 -0.12974625222E+02 -0.72895748211E+01  0.36755243649E+02  0.00000000000E+00 0.  1.
<mgrwt>
<rscale>  0 0.88008286E+02</rscale>
<asrwt>0</asrwt>
<pdfrwt beam="2">  1        2 0.81677207E-02 0.88008286E+02</pdfrwt>
<pdfrwt beam="1">  1       -2 0.56112491E-02 0.88008286E+02</pdfrwt>
<totfact> 0.11348580E+05</totfact>
</mgrwt>
</event>
<event>
 7    1  0.3337990E-009  0.9785155E+02  0.7818608E-02  0.1284880E+00
          2   -1    0    0  501    0  0.00000000000E+00  0.00000000000E+00  0.90266167005E+02  0.90266167041E+02  0.25500000000E-02 0. -1.
         -2   -1    0    0    0  501 -0.00000000000E+00 -0.00000000000E+00 -0.26518587541E+02  0.26518587663E+02  0.25500000000E-02 0.  1.
         23    2    1    2    0    0  0.00000000000E+00  0.00000000000E+00  0.63747579465E+02  0.11678475470E+03  0.97851545945E+02 0.  0.
    9000005    2    3    3    0    0 -0.10462705077E+02  0.11488766105E+02  0.86965535625E+02  0.88846726278E+02  0.94486210437E+01 0.  0.
         22    1    3    3    0    0  0.10462705077E+02 -0.11488766105E+02 -0.23217956160E+02  0.27938028427E+02  0.00000000000E+00 0.  1.
         22    1    4    4    0    0 -0.93533930843E+01  0.34049618780E+01  0.51705030916E+02  0.52654439030E+02  0.00000000000E+00 0.  1.
         22    1    4    4    0    0 -0.11093119925E+01  0.80838042271E+01  0.35260504709E+02  0.36192287248E+02  0.00000000000E+00 0.  1.
<mgrwt>
<rscale>  0 0.97851546E+02</rscale>
<asrwt>0</asrwt>
<pdfrwt beam="1">  1        2 0.13887103E-01 0.97851546E+02</pdfrwt>
<pdfrwt beam="2">  1       -2 0.40797826E-02 0.97851546E+02</pdfrwt>
<totfact> 0.97736628E+04</totfact>
</mgrwt>
</event>
<event>
 7    1  0.3337990E-009  0.9238744E+02  0.7818608E-02  0.1297171E+00
         -2   -1    0    0    0  501 -0.00000000000E+00  0.00000000000E+00  0.28391831030E+02  0.28391831145E+02  0.25500000000E-02 0.  1.
          2   -1    0    0  501    0  0.00000000000E+00 -0.00000000000E+00 -0.75157518746E+02  0.75157518789E+02  0.25500000000E-02 0. -1.
         23    2    1    2    0    0  0.00000000000E+00  0.00000000000E+00 -0.46765687716E+02  0.10354934993E+03  0.92387435965E+02 0.  0.
    9000005    2    3    3    0    0 -0.56619914106E+01  0.21966560082E+02 -0.68336728583E+02  0.72246032015E+02  0.59154678529E+01 0.  0.
         22    1    3    3    0    0  0.56619914106E+01 -0.21966560082E+02  0.21571040868E+02  0.31303317918E+02  0.00000000000E+00 0.  1.
         22    1    4    4    0    0 -0.33950508534E+01  0.13868921047E+02 -0.33638992679E+02  0.36543880059E+02  0.00000000000E+00 0. -1.
         22    1    4    4    0    0 -0.22669405571E+01  0.80976390353E+01 -0.34697735905E+02  0.35702151957E+02  0.00000000000E+00 0. -1.
<mgrwt>
<rscale>  0 0.92387436E+02</rscale>
<asrwt>0</asrwt>
<pdfrwt beam="2">  1        2 0.11562695E-01 0.92387436E+02</pdfrwt>
<pdfrwt beam="1">  1       -2 0.43679741E-02 0.92387436E+02</pdfrwt>
<totfact> 0.10875637E+05</totfact>
</mgrwt>
</event>
<event>
 7    1  0.3337990E-009  0.9305914E+02  0.7818608E-02  0.1295608E+00
         -2   -1    0    0    0  501 -0.00000000000E+00  0.00000000000E+00  0.48669258027E+01  0.48669264707E+01  0.25500000000E-02 0.  1.
          2   -1    0    0  501    0  0.00000000000E+00 -0.00000000000E+00 -0.44483949795E+03  0.44483949796E+03  0.25500000000E-02 0. -1.
         23    2    1    2    0    0  0.00000000000E+00  0.00000000000E+00 -0.43997257215E+03  0.44970642443E+03  0.93059142109E+02 0.  0.
    9000005    2    3    3    0    0  0.33715476557E+02 -0.15793967466E+02 -0.35136175683E+03  0.35359160060E+03  0.13629126406E+02 0.  0.
         22    1    3    3    0    0 -0.33715476557E+02  0.15793967466E+02 -0.88610815323E+02  0.96114823830E+02  0.00000000000E+00 0.  1.
         22    1    4    4    0    0  0.11061444263E+01 -0.11170100830E+01 -0.28907056524E+01  0.32905084997E+01  0.00000000000E+00 0.  1.
         22    1    4    4    0    0  0.32609332131E+02 -0.14676957383E+02 -0.34847105118E+03  0.35030109210E+03  0.00000000000E+00 0.  1.
<mgrwt>
<rscale>  0 0.93059142E+02</rscale>
<asrwt>0</asrwt>
<pdfrwt beam="2">  1        2 0.68436814E-01 0.93059142E+02</pdfrwt>
<pdfrwt beam="1">  1       -2 0.74875822E-03 0.93059142E+02</pdfrwt>
<totfact> 0.19627506E+05</totfact>
</mgrwt>
</event>
<event>
 7    1  0.3337990E-009  0.9450138E+02  0.7818608E-02  0.1292303E+00
          2   -1    0    0  501    0  0.00000000000E+00  0.00000000000E+00  0.40918943045E+02  0.40918943124E+02  0.25500000000E-02 0. -1.
         -2   -1    0    0    0  501 -0.00000000000E+00 -0.00000000000E+00 -0.54562208788E+02  0.54562208847E+02  0.25500000000E-02 0.  1.
         23    2    1    2    0    0  0.35527136788E-14  0.35527136788E-14 -0.13643265743E+02  0.95481151972E+02  0.94501384549E+02 0.  0.
    9000005    2    3    3    0    0 -0.26152443796E+02 -0.24161065183E+02 -0.37538890536E+02  0.52600990224E+02  0.94862259371E+01 0.  0.
         22    1    3    3    0    0  0.26152443796E+02  0.24161065183E+02  0.23895624793E+02  0.42880161748E+02  0.00000000000E+00 0. -1.
         22    1    4    4    0    0 -0.19087197761E+02 -0.11689710688E+02 -0.20693005619E+02  0.30482305292E+02  0.00000000000E+00 0. -1.
         22    1    4    4    0    0 -0.70652460349E+01 -0.12471354495E+02 -0.16845884917E+02  0.22118684932E+02  0.00000000000E+00 0. -1.
<mgrwt>
<rscale>  0 0.94501385E+02</rscale>
<asrwt>0</asrwt>
<pdfrwt beam="1">  1        2 0.62952220E-02 0.94501385E+02</pdfrwt>
<pdfrwt beam="2">  1       -2 0.83941860E-02 0.94501385E+02</pdfrwt>
<totfact> 0.86468268E+04</totfact>
</mgrwt>
</event>
<event>
 7    1  0.3337990E-009  0.9178309E+02  0.7818608E-02  0.1298590E+00
         -2   -1    0    0    0  501 -0.00000000000E+00  0.00000000000E+00  0.48924194833E+01  0.48924201478E+01  0.25500000000E-02 0.  1.
          2   -1    0    0  501    0  0.00000000000E+00 -0.00000000000E+00 -0.43046879734E+03  0.43046879735E+03  0.25500000000E-02 0. -1.
         23    2    1    2    0    0  0.35527136788E-14 -0.35527136788E-14 -0.42557637785E+03  0.43536121749E+03  0.91783093810E+02 0.  0.
    9000005    2    3    3    0    0 -0.31288220984E+02 -0.29381789133E+02 -0.27540238577E+03  0.27917392542E+03  0.15791271147E+02 0.  0.
         22    1    3    3    0    0  0.31288220984E+02  0.29381789133E+02 -0.15017399209E+03  0.15618729207E+03  0.00000000000E+00 0.  1.
         22    1    4    4    0    0 -0.10434576826E+02 -0.27954422628E+01 -0.97022356699E+02  0.97621885816E+02  0.00000000000E+00 0. -1.
         22    1    4    4    0    0 -0.20853644158E+02 -0.26586346871E+02 -0.17838002907E+03  0.18155203960E+03  0.00000000000E+00 0. -1.
<mgrwt>
<rscale>  0 0.91783094E+02</rscale>
<asrwt>0</asrwt>
<pdfrwt beam="2">  1        2 0.66225939E-01 0.91783094E+02</pdfrwt>
<pdfrwt beam="1">  1       -2 0.75268031E-03 0.91783094E+02</pdfrwt>
<totfact> 0.20129901E+05</totfact>
</mgrwt>
</event>
<event>
 7    1  0.3337990E-009  0.8999297E+02  0.7818608E-02  0.1302869E+00
          2   -1    0    0  501    0  0.00000000000E+00  0.00000000000E+00  0.61412304755E+03  0.61412304756E+03  0.25500000000E-02 0. -1.
         -2   -1    0    0    0  501 -0.00000000000E+00 -0.00000000000E+00 -0.32968689544E+01  0.32968699406E+01  0.25500000000E-02 0.  1.
         23    2    1    2    0    0  0.00000000000E+00  0.00000000000E+00  0.61082617860E+03  0.61741991750E+03  0.89992966742E+02 0.  0.
    9000005    2    3    3    0    0 -0.24571133530E+02 -0.14070362273E+02  0.54384504366E+03  0.54469998808E+03  0.11354725909E+02 0.  0.
         22    1    3    3    0    0  0.24571133530E+02  0.14070362273E+02  0.66981134939E+02  0.72719929421E+02  0.00000000000E+00 0.  1.
         22    1    4    4    0    0 -0.21379688049E+02 -0.10224704505E+02  0.35571031530E+03  0.35649889769E+03  0.00000000000E+00 0.  1.
         22    1    4    4    0    0 -0.31914454810E+01 -0.38456577674E+01  0.18813472836E+03  0.18820109039E+03  0.00000000000E+00 0.  1.
<mgrwt>
<rscale>  0 0.89992967E+02</rscale>
<asrwt>0</asrwt>
<pdfrwt beam="1">  1        2 0.94480350E-01 0.89992967E+02</pdfrwt>
<pdfrwt beam="2">  1       -2 0.50721132E-03 0.89992967E+02</pdfrwt>
<totfact> 0.23738482E+05</totfact>
</mgrwt>
</event>
<event>
 7    1  0.3337990E-009  0.9200766E+02  0.7818608E-02  0.1298061E+00
         -2   -1    0    0    0  501 -0.00000000000E+00  0.00000000000E+00  0.42034425841E+01  0.42034433575E+01  0.25500000000E-02 0.  1.
          2   -1    0    0  501    0  0.00000000000E+00 -0.00000000000E+00 -0.50348067567E+03  0.50348067568E+03  0.25500000000E-02 0. -1.
         23    2    1    2    0    0  0.00000000000E+00  0.00000000000E+00 -0.49927723309E+03  0.50768411903E+03  0.92007658602E+02 0.  0.
    9000005    2    3    3    0    0  0.42101428577E+02 -0.12910401772E+02 -0.32044576397E+03  0.32351055115E+03  0.58634712261E+01 0.  0.
         22    1    3    3    0    0 -0.42101428577E+02  0.12910401772E+02 -0.17883146912E+03  0.18417356789E+03  0.00000000000E+00 0.  1.
         22    1    4    4    0    0  0.29900746494E+02 -0.97434552477E+01 -0.24652757624E+03  0.24852532146E+03  0.00000000000E+00 0. -1.
         22    1    4    4    0    0  0.12200682083E+02 -0.31669465241E+01 -0.73918187734E+02  0.74985229689E+02  0.00000000000E+00 0. -1.
<mgrwt>
<rscale>  0 0.92007659E+02</rscale>
<asrwt>0</asrwt>
<pdfrwt beam="2">  1        2 0.77458518E-01 0.92007659E+02</pdfrwt>
<pdfrwt beam="1">  1       -2 0.64668393E-03 0.92007659E+02</pdfrwt>
<totfact> 0.21085472E+05</totfact>
</mgrwt>
</event>
<event>
 7    1  0.3337990E-009  0.6459683E+02  0.7818608E-02  0.1379494E+00
         -2   -1    0    0    0  501 -0.00000000000E+00  0.00000000000E+00  0.11986120418E+02  0.11986120690E+02  0.25500000000E-02 0. -1.
          2   -1    0    0  501    0  0.00000000000E+00 -0.00000000000E+00 -0.87032972100E+02  0.87032972137E+02  0.25500000000E-02 0.  1.
         23    2    1    2    0    0  0.00000000000E+00 -0.22204460493E-15 -0.75046851681E+02  0.99019092827E+02  0.64596832716E+02 0.  0.
    9000005    2    3    3    0    0 -0.28050739529E+02 -0.17763710234E+01 -0.59007497695E+02  0.66657690532E+02  0.13090585958E+02 0.  0.
         22    1    3    3    0    0  0.28050739529E+02  0.17763710234E+01 -0.16039353986E+02  0.32361402294E+02  0.00000000000E+00 0. -1.
         22    1    4    4    0    0  0.99156892342E+00 -0.14905086788E+01 -0.53857721644E+01  0.56755058680E+01  0.00000000000E+00 0.  1.
         22    1    4    4    0    0 -0.29042308453E+02 -0.28586234467E+00 -0.53621725531E+02  0.60982184664E+02  0.00000000000E+00 0.  1.
<mgrwt>
<rscale>  0 0.64596833E+02</rscale>
<asrwt>0</asrwt>
<pdfrwt beam="2">  1        2 0.13389688E-01 0.64596833E+02</pdfrwt>
<pdfrwt beam="1">  1       -2 0.18440186E-02 0.64596833E+02</pdfrwt>
<totfact> 0.29819033E+05</totfact>
</mgrwt>
</event>
<event>
 7    1  0.3337990E-009  0.9116991E+02  0.7818608E-02  0.1300043E+00
         -2   -1    0    0    0  501 -0.00000000000E+00  0.00000000000E+00  0.19794738909E+01  0.19794755334E+01  0.25500000000E-02 0.  1.
          2   -1    0    0  501    0  0.00000000000E+00 -0.00000000000E+00 -0.10497674587E+04  0.10497674587E+04  0.25500000000E-02 0. -1.
         23    2    1    2    0    0  0.00000000000E+00  0.00000000000E+00 -0.10477879849E+04  0.10517469343E+04  0.91169910420E+02 0.  0.
    9000005    2    3    3    0    0  0.10687879025E+02  0.34387433028E+02 -0.83626700779E+03  0.83718260815E+03  0.15345513010E+02 0.  0.
         22    1    3    3    0    0 -0.10687879025E+02 -0.34387433028E+02 -0.21152097706E+03  0.21456432613E+03  0.00000000000E+00 0.  1.
         22    1    4    4    0    0 -0.15041882164E+01  0.15789973236E+02 -0.25707465016E+03  0.25756350982E+03  0.00000000000E+00 0. -1.
         22    1    4    4    0    0  0.12192067241E+02  0.18597459792E+02 -0.57919235763E+03  0.57961909833E+03  0.00000000000E+00 0. -1.
<mgrwt>
<rscale>  0 0.91169910E+02</rscale>
<asrwt>0</asrwt>
<pdfrwt beam="2">  1        2 0.16150224E+00 0.91169910E+02</pdfrwt>
<pdfrwt beam="1">  1       -2 0.30453541E-03 0.91169910E+02</pdfrwt>
<totfact> 0.25037499E+05</totfact>
</mgrwt>
</event>
<event>
 7    1  0.3337990E-009  0.8730944E+02  0.7818608E-02  0.1309501E+00
         -2   -1    0    0    0  501 -0.00000000000E+00  0.00000000000E+00  0.26638061283E+03  0.26638061284E+03  0.25500000000E-02 0.  1.
          2   -1    0    0  501    0  0.00000000000E+00 -0.00000000000E+00 -0.71541779192E+01  0.71541783736E+01  0.25500000000E-02 0. -1.
         23    2    1    2    0    0  0.00000000000E+00  0.00000000000E+00  0.25922643491E+03  0.27353479121E+03  0.87309435050E+02 0.  0.
    9000005    2    3    3    0    0 -0.26188582690E+02  0.32655210821E+02  0.90897424569E+02  0.10007914738E+03  0.11354687070E+01 0.  0.
         22    1    3    3    0    0  0.26188582690E+02 -0.32655210821E+02  0.16832901034E+03  0.17345564384E+03  0.00000000000E+00 0.  1.
         22    1    4    4    0    0 -0.69142318972E+01  0.81778679299E+01  0.24244021775E+02  0.26503900061E+02  0.00000000000E+00 0. -1.
         22    1    4    4    0    0 -0.19274350793E+02  0.24477342891E+02  0.66653402794E+02  0.73575247315E+02  0.00000000000E+00 0. -1.
<mgrwt>
<rscale>  0 0.87309435E+02</rscale>
<asrwt>0</asrwt>
<pdfrwt beam="2">  1        2 0.11006429E-02 0.87309435E+02</pdfrwt>
<pdfrwt beam="1">  1       -2 0.40981628E-01 0.87309435E+02</pdfrwt>
<totfact> 0.60786242E+04</totfact>
</mgrwt>
</event>
<event>
 7    1  0.3337990E-009  0.8702602E+02  0.7818608E-02  0.1310218E+00
         -2   -1    0    0    0  501 -0.00000000000E+00  0.00000000000E+00  0.38753810073E+02  0.38753810157E+02  0.25500000000E-02 0.  1.
          2   -1    0    0  501    0  0.00000000000E+00 -0.00000000000E+00 -0.48856670495E+02  0.48856670562E+02  0.25500000000E-02 0. -1.
         23    2    1    2    0    0  0.00000000000E+00  0.00000000000E+00 -0.10102860422E+02  0.87610480718E+02  0.87026022217E+02 0.  0.
    9000005    2    3    3    0    0  0.31207363529E+02  0.24820086323E+02 -0.20978466396E+02  0.46279922667E+02  0.10573503023E+02 0.  0.
         22    1    3    3    0    0 -0.31207363529E+02 -0.24820086323E+02  0.10875605974E+02  0.41330558051E+02  0.00000000000E+00 0.  1.
         22    1    4    4    0    0  0.19098347990E+02  0.11178338032E+02 -0.16195351095E+02  0.27422464043E+02  0.00000000000E+00 0.  1.
         22    1    4    4    0    0  0.12109015540E+02  0.13641748291E+02 -0.47831153014E+01  0.18857458624E+02  0.00000000000E+00 0.  1.
<mgrwt>
<rscale>  0 0.87026022E+02</rscale>
<asrwt>0</asrwt>
<pdfrwt beam="2">  1        2 0.75164108E-02 0.87026022E+02</pdfrwt>
<pdfrwt beam="1">  1       -2 0.59621247E-02 0.87026022E+02</pdfrwt>
<totfact> 0.11468811E+05</totfact>
</mgrwt>
</event>
<event>
 7    1  0.3337990E-009  0.9573154E+02  0.7818608E-02  0.1289537E+00
         -2   -1    0    0    0  501 -0.00000000000E+00  0.00000000000E+00  0.13294697818E+01  0.13294722273E+01  0.25500000000E-02 0.  1.
          2   -1    0    0  501    0  0.00000000000E+00 -0.00000000000E+00 -0.17233408593E+04  0.17233408593E+04  0.25500000000E-02 0. -1.
         23    2    1    2    0    0  0.00000000000E+00  0.00000000000E+00 -0.17220113895E+04  0.17246703315E+04  0.95731535174E+02 0.  0.
    9000005    2    3    3    0    0  0.59686365627E+01 -0.25838119718E+02 -0.15747313783E+04  0.15750219611E+04  0.14561292732E+02 0.  0.
         22    1    3    3    0    0 -0.59686365627E+01  0.25838119718E+02 -0.14728001121E+03  0.14964837037E+03  0.00000000000E+00 0.  1.
         22    1    4    4    0    0 -0.32486581741E+01 -0.16044498981E+02 -0.99464075075E+03  0.99477545345E+03  0.00000000000E+00 0. -1.
         22    1    4    4    0    0  0.92172947368E+01 -0.97936207371E+01 -0.58009062755E+03  0.58024650770E+03  0.00000000000E+00 0. -1.
<mgrwt>
<rscale>  0 0.95731535E+02</rscale>
<asrwt>0</asrwt>
<pdfrwt beam="2">  1        2 0.26512758E+00 0.95731535E+02</pdfrwt>
<pdfrwt beam="1">  1       -2 0.20453538E-03 0.95731535E+02</pdfrwt>
<totfact> 0.19383429E+05</totfact>
</mgrwt>
</event>
<event>
 7    1  0.3337990E-009  0.9078201E+02  0.7818608E-02  0.1300969E+00
          2   -1    0    0  501    0  0.00000000000E+00  0.00000000000E+00  0.62380796034E+03  0.62380796035E+03  0.25500000000E-02 0. -1.
         -2   -1    0    0    0  501 -0.00000000000E+00 -0.00000000000E+00 -0.33028481077E+01  0.33028490921E+01  0.25500000000E-02 0.  1.
         23    2    1    2    0    0  0.00000000000E+00 -0.71054273576E-14  0.62050511223E+03  0.62711080944E+03  0.90782008167E+02 0.  0.
    9000005    2    3    3    0    0 -0.10395247906E+02 -0.41675320018E+02  0.40365175998E+03  0.40604459795E+03  0.96217832512E+01 0.  0.
         22    1    3    3    0    0  0.10395247906E+02  0.41675320018E+02  0.21685335225E+03  0.22106621148E+03  0.00000000000E+00 0.  1.
         22    1    4    4    0    0 -0.63205386947E+01 -0.92819777353E+01  0.11798315182E+03  0.11851636357E+03  0.00000000000E+00 0. -1.
         22    1    4    4    0    0 -0.40747092118E+01 -0.32393342283E+02  0.28566860816E+03  0.28752823439E+03  0.00000000000E+00 0. -1.
<mgrwt>
<rscale>  0 0.90782008E+02</rscale>
<asrwt>0</asrwt>
<pdfrwt beam="1">  1        2 0.95970513E-01 0.90782008E+02</pdfrwt>
<pdfrwt beam="2">  1       -2 0.50813025E-03 0.90782008E+02</pdfrwt>
<totfact> 0.23297933E+05</totfact>
</mgrwt>
</event>
<event>
 6    1  0.6553056E-009  0.1705964E+03  0.7818608E-02  0.1177227E+00
          2   -1    0    0  501    0  0.00000000000E+00  0.00000000000E+00  0.71230870993E+03  0.71230870994E+03  0.25500000000E-02 0.  1.
         -2   -1    0    0    0  501 -0.00000000000E+00 -0.00000000000E+00 -0.10214365212E+02  0.10214365530E+02  0.25500000000E-02 0. -1.
    9000005    2    1    2    0    0  0.99826030951E+01  0.26647348121E+02  0.69143947202E+03  0.69213788436E+03  0.12512951914E+02 0.  0.
         22    1    1    2    0    0 -0.99826030951E+01 -0.26647348121E+02  0.10654872694E+02  0.30385191106E+02  0.00000000000E+00 0. -1.
         22    1    3    3    0    0  0.53891631543E+01  0.24398772363E+02  0.49329763225E+03  0.49393005290E+03  0.00000000000E+00 0.  1.
         22    1    3    3    0    0  0.45934399408E+01  0.22485757572E+01  0.19814183977E+03  0.19820783146E+03  0.00000000000E+00 0.  1.
<mgrwt>
<rscale>  0 0.17059638E+03</rscale>
<asrwt>0</asrwt>
<pdfrwt beam="1">  1        2 0.10958598E+00 0.17059638E+03</pdfrwt>
<pdfrwt beam="2">  1       -2 0.15714404E-02 0.17059638E+03</pdfrwt>
<totfact> 0.43260721E+04</totfact>
</mgrwt>
</event>
<event>
 7    1  0.3337990E-009  0.9121318E+02  0.7818608E-02  0.1299940E+00
          2   -1    0    0  501    0  0.00000000000E+00  0.00000000000E+00  0.17760094787E+02  0.17760094970E+02  0.25500000000E-02 0. -1.
         -2   -1    0    0    0  501 -0.00000000000E+00 -0.00000000000E+00 -0.11711430305E+03  0.11711430308E+03  0.25500000000E-02 0.  1.
         23    2    1    2    0    0  0.00000000000E+00  0.00000000000E+00 -0.99354208260E+02  0.13487439804E+03  0.91213181881E+02 0.  0.
    9000005    2    3    3    0    0 -0.21496982573E+02 -0.22425047649E+02 -0.97897468993E+02  0.10377576285E+03  0.14848956113E+02 0.  0.
         22    1    3    3    0    0  0.21496982573E+02  0.22425047649E+02 -0.14567392675E+01  0.31098635197E+02  0.00000000000E+00 0. -1.
         22    1    4    4    0    0 -0.82293461819E+01 -0.18964178494E+02 -0.61476748383E+02  0.64859485014E+02  0.00000000000E+00 0. -1.
         22    1    4    4    0    0 -0.13267636391E+02 -0.34608691557E+01 -0.36420720610E+02  0.38916277834E+02  0.00000000000E+00 0. -1.
<mgrwt>
<rscale>  0 0.91213182E+02</rscale>
<asrwt>0</asrwt>
<pdfrwt beam="1">  1        2 0.27323224E-02 0.91213182E+02</pdfrwt>
<pdfrwt beam="2">  1       -2 0.18017585E-01 0.91213182E+02</pdfrwt>
<totfact> 0.75933225E+04</totfact>
</mgrwt>
</event>
<event>
 7    1  0.3337990E-009  0.9267288E+02  0.7818608E-02  0.1296505E+00
         -2   -1    0    0    0  501 -0.00000000000E+00  0.00000000000E+00  0.25537104912E+02  0.25537105040E+02  0.25500000000E-02 0.  1.
          2   -1    0    0  501    0  0.00000000000E+00 -0.00000000000E+00 -0.84076312797E+02  0.84076312835E+02  0.25500000000E-02 0. -1.
         23    2    1    2    0    0 -0.27755575616E-16 -0.71054273576E-14 -0.58539207884E+02  0.10961341788E+03  0.92672879088E+02 0.  0.
    9000005    2    3    3    0    0  0.15398276068E+00  0.45973835612E+02 -0.24755341415E+02  0.52561100611E+02  0.60187288805E+01 0.  0.
         22    1    3    3    0    0 -0.15398276068E+00 -0.45973835612E+02 -0.33783866469E+02  0.57052317264E+02  0.00000000000E+00 0.  1.
         22    1    4    4    0    0  0.32145258732E-01  0.45376829603E+02 -0.25104946925E+02  0.51858616046E+02  0.00000000000E+00 0. -1.
         22    1    4    4    0    0  0.12183750195E+00  0.59700600908E+00  0.34960550986E+00  0.70248456515E+00  0.00000000000E+00 0. -1.
<mgrwt>
<rscale>  0 0.92672879E+02</rscale>
<asrwt>0</asrwt>
<pdfrwt beam="2">  1        2 0.12934817E-01 0.92672879E+02</pdfrwt>
<pdfrwt beam="1">  1       -2 0.39287854E-02 0.92672879E+02</pdfrwt>
<totfact> 0.11135871E+05</totfact>
</mgrwt>
</event>
<event>
 7    1  0.3337990E-009  0.9202999E+02  0.7818608E-02  0.1298009E+00
          2   -1    0    0  501    0  0.00000000000E+00  0.00000000000E+00  0.27459658086E+02  0.27459658204E+02  0.25500000000E-02 0.  1.
         -2   -1    0    0    0  501 -0.00000000000E+00 -0.00000000000E+00 -0.77108745169E+02  0.77108745211E+02  0.25500000000E-02 0. -1.
         23    2    1    2    0    0  0.00000000000E+00  0.00000000000E+00 -0.49649087083E+02  0.10456840342E+03  0.92029990463E+02 0.  0.
    9000005    2    3    3    0    0  0.25819413010E+02  0.12738951954E+01  0.16289340891E+02  0.33743681878E+02  0.14318817788E+02 0.  0.
         22    1    3    3    0    0 -0.25819413010E+02 -0.12738951954E+01 -0.65938427974E+02  0.70824721537E+02  0.00000000000E+00 0. -1.
         22    1    4    4    0    0  0.12642003352E+02  0.68225539275E+01  0.12267831974E+02  0.18890928834E+02  0.00000000000E+00 0. -1.
         22    1    4    4    0    0  0.13177409658E+02 -0.55486587321E+01  0.40215089164E+01  0.14852753044E+02  0.00000000000E+00 0. -1.
<mgrwt>
<rscale>  0 0.92029990E+02</rscale>
<asrwt>0</asrwt>
<pdfrwt beam="1">  1        2 0.42245628E-02 0.92029990E+02</pdfrwt>
<pdfrwt beam="2">  1       -2 0.11862884E-01 0.92029990E+02</pdfrwt>
<totfact> 0.84002372E+04</totfact>
</mgrwt>
</event>
<event>
 7    1  0.3337990E-009  0.9567649E+02  0.7818608E-02  0.1289660E+00
         -2   -1    0    0    0  501 -0.00000000000E+00  0.00000000000E+00  0.17261642997E+01  0.17261661833E+01  0.25500000000E-02 0.  1.
          2   -1    0    0  501    0  0.00000000000E+00 -0.00000000000E+00 -0.13257696858E+04  0.13257696858E+04  0.25500000000E-02 0. -1.
         23    2    1    2    0    0 -0.88817841970E-15  0.00000000000E+00 -0.13240435215E+04  0.13274958520E+04  0.95676487251E+02 0.  0.
    9000005    2    3    3    0    0 -0.78223046923E+01 -0.21654511791E+02 -0.12428208243E+04  0.12430729115E+04  0.98262803594E+01 0.  0.
         22    1    3    3    0    0  0.78223046923E+01  0.21654511791E+02 -0.81222697263E+02  0.84422940497E+02  0.00000000000E+00 0.  1.
         22    1    4    4    0    0 -0.85580574535E+01 -0.14243998627E+02 -0.68088142690E+03  0.68108417199E+03  0.00000000000E+00 0.  1.
         22    1    4    4    0    0  0.73575276116E+00 -0.74105131642E+01 -0.56193939737E+03  0.56198873953E+03  0.00000000000E+00 0.  1.
<mgrwt>
<rscale>  0 0.95676487E+02</rscale>
<asrwt>0</asrwt>
<pdfrwt beam="2">  1        2 0.20396375E+00 0.95676487E+02</pdfrwt>
<pdfrwt beam="1">  1       -2 0.26556494E-03 0.95676487E+02</pdfrwt>
<totfact> 0.21549095E+05</totfact>
</mgrwt>
</event>
<event>
 7    1  0.3337990E-009  0.8809274E+02  0.7818608E-02  0.1307537E+00
          2   -1    0    0  501    0  0.00000000000E+00  0.00000000000E+00  0.99449943844E+02  0.99449943877E+02  0.25500000000E-02 0.  1.
         -2   -1    0    0    0  501 -0.00000000000E+00 -0.00000000000E+00 -0.19508132489E+02  0.19508132656E+02  0.25500000000E-02 0. -1.
         23    2    1    2    0    0  0.00000000000E+00  0.00000000000E+00  0.79941811355E+02  0.11895807653E+03  0.88092739597E+02 0.  0.
    9000005    2    3    3    0    0 -0.25683105502E+02  0.11231863599E+02 -0.39308842405E+01  0.30525018604E+02  0.11425770947E+02 0.  0.
         22    1    3    3    0    0  0.25683105502E+02 -0.11231863599E+02  0.83872695595E+02  0.88433057928E+02  0.00000000000E+00 0.  1.
         22    1    4    4    0    0 -0.67761603026E+01  0.51704291317E+01  0.36500746948E+01  0.92721481400E+01  0.00000000000E+00 0.  1.
         22    1    4    4    0    0 -0.18906945200E+02  0.60614344671E+01 -0.75809589354E+01  0.21252870464E+02  0.00000000000E+00 0.  1.
<mgrwt>
<rscale>  0 0.88092740E+02</rscale>
<asrwt>0</asrwt>
<pdfrwt beam="1">  1        2 0.15299991E-01 0.88092740E+02</pdfrwt>
<pdfrwt beam="2">  1       -2 0.30012512E-02 0.88092740E+02</pdfrwt>
<totfact> 0.13460028E+05</totfact>
</mgrwt>
</event>
<event>
 7    1  0.3337990E-009  0.9375279E+02  0.7818608E-02  0.1294010E+00
         -2   -1    0    0    0  501 -0.00000000000E+00  0.00000000000E+00  0.22293006885E+01  0.22293021469E+01  0.25500000000E-02 0.  1.
          2   -1    0    0  501    0  0.00000000000E+00 -0.00000000000E+00 -0.98568841297E+03  0.98568841298E+03  0.25500000000E-02 0. -1.
         23    2    1    2    0    0  0.00000000000E+00  0.00000000000E+00 -0.98345911229E+03  0.98791771512E+03  0.93752793658E+02 0.  0.
    9000005    2    3    3    0    0  0.13264803877E+02  0.13753134048E+02 -0.94131857702E+03  0.94164754730E+03  0.15947920710E+02 0.  0.
         22    1    3    3    0    0 -0.13264803877E+02 -0.13753134048E+02 -0.42140535268E+02  0.46270167827E+02  0.00000000000E+00 0.  1.
         22    1    4    4    0    0  0.18020558697E+01  0.15957292438E+01 -0.50966957390E+03  0.50967525771E+03  0.00000000000E+00 0.  1.
         22    1    4    4    0    0  0.11462748007E+02  0.12157404804E+02 -0.43164900312E+03  0.43197228959E+03  0.00000000000E+00 0.  1.
<mgrwt>
<rscale>  0 0.93752794E+02</rscale>
<asrwt>0</asrwt>
<pdfrwt beam="2">  1        2 0.15164402E+00 0.93752794E+02</pdfrwt>
<pdfrwt beam="1">  1       -2 0.34297024E-03 0.93752794E+02</pdfrwt>
<totfact> 0.23214267E+05</totfact>
</mgrwt>
</event>
<event>
 7    1  0.3337990E-009  0.9114834E+02  0.7818608E-02  0.1300094E+00
         -2   -1    0    0    0  501 -0.00000000000E+00  0.00000000000E+00  0.50964751092E+02  0.50964751155E+02  0.25500000000E-02 0.  1.
          2   -1    0    0  501    0  0.00000000000E+00 -0.00000000000E+00 -0.40753755225E+02  0.40753755305E+02  0.25500000000E-02 0. -1.
         23    2    1    2    0    0  0.00000000000E+00  0.00000000000E+00  0.10210995866E+02  0.91718506460E+02  0.91148340581E+02 0.  0.
    9000005    2    3    3    0    0 -0.56935797614E+01  0.44027988748E+02  0.15406687349E+02  0.47020901898E+02  0.16488045699E+01 0.  0.
         22    1    3    3    0    0  0.56935797614E+01 -0.44027988748E+02 -0.51956914823E+01  0.44697604563E+02  0.00000000000E+00 0.  1.
         22    1    4    4    0    0 -0.31805588223E+01  0.28646107206E+02  0.93720532024E+01  0.30307602903E+02  0.00000000000E+00 0. -1.
         22    1    4    4    0    0 -0.25130209391E+01  0.15381881541E+02  0.60346341463E+01  0.16713298994E+02  0.00000000000E+00 0. -1.
<mgrwt>
<rscale>  0 0.91148341E+02</rscale>
<asrwt>0</asrwt>
<pdfrwt beam="2">  1        2 0.62698085E-02 0.91148341E+02</pdfrwt>
<pdfrwt beam="1">  1       -2 0.78407309E-02 0.91148341E+02</pdfrwt>
<totfact> 0.95937222E+04</totfact>
</mgrwt>
</event>
<event>
 7    1  0.3337990E-009  0.9149686E+02  0.7818608E-02  0.1299267E+00
          2   -1    0    0  501    0  0.00000000000E+00  0.00000000000E+00  0.10715716560E+03  0.10715716563E+03  0.25500000000E-02 0. -1.
         -2   -1    0    0    0  501 -0.00000000000E+00 -0.00000000000E+00 -0.19531300156E+02  0.19531300322E+02  0.25500000000E-02 0.  1.
         23    2    1    2    0    0  0.00000000000E+00  0.00000000000E+00  0.87625865446E+02  0.12668846595E+03  0.91496858474E+02 0.  0.
    9000005    2    3    3    0    0  0.42225621275E+02  0.37146775769E+01  0.24243236315E+02  0.50437829254E+02  0.12626883672E+02 0.  0.
         22    1    3    3    0    0 -0.42225621275E+02 -0.37146775769E+01  0.63382629131E+02  0.76250636700E+02  0.00000000000E+00 0.  1.
         22    1    4    4    0    0  0.36163041638E+02  0.97645582134E+00  0.15268137653E+02  0.39266207785E+02  0.00000000000E+00 0. -1.
         22    1    4    4    0    0  0.60625796370E+01  0.27382217556E+01  0.89750986621E+01  0.11171621468E+02  0.00000000000E+00 0. -1.
<mgrwt>
<rscale>  0 0.91496858E+02</rscale>
<asrwt>0</asrwt>
<pdfrwt beam="1">  1        2 0.16485718E-01 0.91496858E+02</pdfrwt>
<pdfrwt beam="2">  1       -2 0.30048154E-02 0.91496858E+02</pdfrwt>
<totfact> 0.12411040E+05</totfact>
</mgrwt>
</event>
<event>
 7    1  0.3337990E-009  0.9334648E+02  0.7818608E-02  0.1294944E+00
         -2   -1    0    0    0  501 -0.00000000000E+00  0.00000000000E+00  0.37070118205E+01  0.37070126976E+01  0.25500000000E-02 0.  1.
          2   -1    0    0  501    0  0.00000000000E+00 -0.00000000000E+00 -0.58764077237E+03  0.58764077237E+03  0.25500000000E-02 0. -1.
         23    2    1    2    0    0  0.00000000000E+00  0.17763568394E-14 -0.58393376055E+03  0.59134778507E+03  0.93346484676E+02 0.  0.
    9000005    2    3    3    0    0 -0.84890229903E+01 -0.11225373139E+02 -0.57365547697E+03  0.57392034617E+03  0.10290042373E+02 0.  0.
         22    1    3    3    0    0  0.84890229903E+01  0.11225373139E+02 -0.10278283573E+02  0.17427438901E+02  0.00000000000E+00 0.  1.
         22    1    4    4    0    0 -0.68690661985E+01 -0.11681487170E+02 -0.35523331315E+03  0.35549169889E+03  0.00000000000E+00 0. -1.
         22    1    4    4    0    0 -0.16199567917E+01  0.45611403146E+00 -0.21842216383E+03  0.21842864728E+03  0.00000000000E+00 0. -1.
<mgrwt>
<rscale>  0 0.93346485E+02</rscale>
<asrwt>0</asrwt>
<pdfrwt beam="2">  1        2 0.90406199E-01 0.93346485E+02</pdfrwt>
<pdfrwt beam="1">  1       -2 0.57031005E-03 0.93346485E+02</pdfrwt>
<totfact> 0.21283199E+05</totfact>
</mgrwt>
</event>
<event>
 7    1  0.3337990E-009  0.9410242E+02  0.7818608E-02  0.1293211E+00
         -2   -1    0    0    0  501 -0.00000000000E+00  0.00000000000E+00  0.78737833062E+01  0.78737837191E+01  0.25500000000E-02 0. -1.
          2   -1    0    0  501    0  0.00000000000E+00 -0.00000000000E+00 -0.28116298571E+03  0.28116298572E+03  0.25500000000E-02 0.  1.
         23    2    1    2    0    0  0.35527136788E-14  0.00000000000E+00 -0.27328920240E+03  0.28903676944E+03  0.94102422595E+02 0.  0.
    9000005    2    3    3    0    0  0.29774929976E+02  0.45376754303E+01 -0.24675332029E+03  0.24889589261E+03  0.12442963042E+02 0.  0.
         22    1    3    3    0    0 -0.29774929976E+02 -0.45376754303E+01 -0.26535882115E+02  0.40140876834E+02  0.00000000000E+00 0. -1.
         22    1    4    4    0    0  0.30421537449E+02  0.36248467345E+01 -0.22043514050E+03  0.22255394991E+03  0.00000000000E+00 0. -1.
         22    1    4    4    0    0 -0.64660747308E+00  0.91282869577E+00 -0.26318179789E+02  0.26341942693E+02  0.00000000000E+00 0. -1.
<mgrwt>
<rscale>  0 0.94102423E+02</rscale>
<asrwt>0</asrwt>
<pdfrwt beam="2">  1        2 0.43255836E-01 0.94102423E+02</pdfrwt>
<pdfrwt beam="1">  1       -2 0.12113515E-02 0.94102423E+02</pdfrwt>
<totfact> 0.16114600E+05</totfact>
</mgrwt>
</event>
<event>
 7    1  0.3337990E-009  0.1055970E+03  0.7818608E-02  0.1268948E+00
         -2   -1    0    0    0  501 -0.00000000000E+00  0.00000000000E+00  0.83229659924E+02  0.83229659963E+02  0.25500000000E-02 0. -1.
          2   -1    0    0  501    0  0.00000000000E+00 -0.00000000000E+00 -0.33493872639E+02  0.33493872736E+02  0.25500000000E-02 0.  1.
         23    2    1    2    0    0 -0.71054273576E-14 -0.88817841970E-15  0.49735787285E+02  0.11672353270E+03  0.10559703854E+03 0.  0.
    9000005    2    3    3    0    0 -0.48217825967E+02 -0.49687003562E+01  0.45754547155E+02  0.68087157452E+02  0.13882928372E+02 0.  0.
         22    1    3    3    0    0  0.48217825967E+02  0.49687003562E+01  0.39812401300E+01  0.48636375247E+02  0.00000000000E+00 0.  1.
         22    1    4    4    0    0 -0.41646523405E+01  0.69867056649E+00 -0.13210232341E+00  0.42249166503E+01  0.00000000000E+00 0. -1.
         22    1    4    4    0    0 -0.44053173627E+02 -0.56673709227E+01  0.45886649479E+02  0.63862240801E+02  0.00000000000E+00 0. -1.
<mgrwt>
<rscale>  0 0.10559704E+03</rscale>
<asrwt>0</asrwt>
<pdfrwt beam="2">  1        2 0.51529035E-02 0.10559704E+03</pdfrwt>
<pdfrwt beam="1">  1       -2 0.12804563E-01 0.10559704E+03</pdfrwt>
<totfact> 0.58679997E+04</totfact>
</mgrwt>
</event>
<event>
 7    1  0.3337990E-009  0.8993740E+02  0.7818608E-02  0.1303003E+00
         -2   -1    0    0    0  501 -0.00000000000E+00  0.00000000000E+00  0.14302727208E+02  0.14302727435E+02  0.25500000000E-02 0.  1.
          2   -1    0    0  501    0  0.00000000000E+00 -0.00000000000E+00 -0.14138451149E+03  0.14138451151E+03  0.25500000000E-02 0. -1.
         23    2    1    2    0    0  0.00000000000E+00  0.00000000000E+00 -0.12708178428E+03  0.15568723894E+03  0.89937403090E+02 0.  0.
    9000005    2    3    3    0    0  0.44647507923E+01  0.37737410279E+02 -0.10294343449E+03  0.11066828666E+03  0.14355237161E+02 0.  0.
         22    1    3    3    0    0 -0.44647507923E+01 -0.37737410279E+02 -0.24138349793E+02  0.45018952286E+02  0.00000000000E+00 0.  1.
         22    1    4    4    0    0 -0.88433535070E+00  0.75159848277E+00 -0.96415260127E-02  0.11606214933E+01  0.00000000000E+00 0. -1.
         22    1    4    4    0    0  0.53490861430E+01  0.36985811796E+02 -0.10293379296E+03  0.10950766516E+03  0.00000000000E+00 0. -1.
<mgrwt>
<rscale>  0 0.89937403E+02</rscale>
<asrwt>0</asrwt>
<pdfrwt beam="2">  1        2 0.21751462E-01 0.89937403E+02</pdfrwt>
<pdfrwt beam="1">  1       -2 0.22004197E-02 0.89937403E+02</pdfrwt>
<totfact> 0.14223247E+05</totfact>
</mgrwt>
</event>
<event>
 7    1  0.3337990E-009  0.9132450E+02  0.7818608E-02  0.1299676E+00
         -2   -1    0    0    0  501 -0.00000000000E+00  0.00000000000E+00  0.34587764470E+01  0.34587773870E+01  0.25500000000E-02 0. -1.
          2   -1    0    0  501    0  0.00000000000E+00 -0.00000000000E+00 -0.60282615081E+03  0.60282615081E+03  0.25500000000E-02 0.  1.
         23    2    1    2    0    0  0.17763568394E-14  0.00000000000E+00 -0.59936737436E+03  0.60628492820E+03  0.91324502268E+02 0.  0.
    9000005    2    3    3    0    0  0.14247921366E+02 -0.12003005847E+02 -0.57641402009E+03  0.57672258924E+03  0.29575274852E+01 0.  0.
         22    1    3    3    0    0 -0.14247921366E+02  0.12003005847E+02 -0.22953354271E+02  0.29562338962E+02  0.00000000000E+00 0. -1.
         22    1    4    4    0    0  0.37071285201E+01 -0.19905196887E+01 -0.10448032728E+03  0.10456502168E+03  0.00000000000E+00 0. -1.
         22    1    4    4    0    0  0.10540792846E+02 -0.10012486158E+02 -0.47193369281E+03  0.47215756756E+03  0.00000000000E+00 0. -1.
<mgrwt>
<rscale>  0 0.91324502E+02</rscale>
<asrwt>0</asrwt>
<pdfrwt beam="2">  1        2 0.92742401E-01 0.91324502E+02</pdfrwt>
<pdfrwt beam="1">  1       -2 0.53212001E-03 0.91324502E+02</pdfrwt>
<totfact> 0.22717920E+05</totfact>
</mgrwt>
</event>
<event>
 7    1  0.3337990E-009  0.1205932E+03  0.7818608E-02  0.1242122E+00
         -2   -1    0    0    0  501 -0.00000000000E+00  0.00000000000E+00  0.84087803827E+01  0.84087807693E+01  0.25500000000E-02 0. -1.
          2   -1    0    0  501    0  0.00000000000E+00 -0.00000000000E+00 -0.43236702284E+03  0.43236702284E+03  0.25500000000E-02 0.  1.
         23    2    1    2    0    0  0.00000000000E+00  0.00000000000E+00 -0.42395824245E+03  0.44077580361E+03  0.12059319096E+03 0.  0.
    9000005    2    3    3    0    0 -0.57722282464E+02 -0.10583689783E+02 -0.25968519484E+03  0.26633523908E+03  0.73608949639E+01 0.  0.
         22    1    3    3    0    0  0.57722282464E+02  0.10583689783E+02 -0.16427304762E+03  0.17444056453E+03  0.00000000000E+00 0.  1.
         22    1    4    4    0    0 -0.56216833729E+02 -0.92710019656E+01 -0.24646292182E+03  0.25296295323E+03  0.00000000000E+00 0. -1.
         22    1    4    4    0    0 -0.15054487345E+01 -0.13126878178E+01 -0.13222273016E+02  0.13372285852E+02  0.00000000000E+00 0. -1.
<mgrwt>
<rscale>  0 0.12059319E+03</rscale>
<asrwt>0</asrwt>
<pdfrwt beam="2">  1        2 0.66517986E-01 0.12059319E+03</pdfrwt>
<pdfrwt beam="1">  1       -2 0.12936589E-02 0.12059319E+03</pdfrwt>
<totfact> 0.96651992E+04</totfact>
</mgrwt>
</event>
<event>
 7    1  0.3337990E-009  0.8828824E+02  0.7818608E-02  0.1307051E+00
          2   -1    0    0  501    0  0.00000000000E+00  0.00000000000E+00  0.10886915838E+03  0.10886915841E+03  0.25500000000E-02 0. -1.
         -2   -1    0    0    0  501 -0.00000000000E+00 -0.00000000000E+00 -0.17899497117E+02  0.17899497299E+02  0.25500000000E-02 0.  1.
         23    2    1    2    0    0  0.00000000000E+00  0.00000000000E+00  0.90969661263E+02  0.12676865571E+03  0.88288237041E+02 0.  0.
    9000005    2    3    3    0    0 -0.33696599916E+02  0.12304166190E+02  0.82264639928E+02  0.89854827026E+02  0.44233025982E+01 0.  0.
         22    1    3    3    0    0  0.33696599916E+02 -0.12304166190E+02  0.87050213347E+01  0.36913828682E+02  0.00000000000E+00 0.  1.
         22    1    4    4    0    0 -0.23939728532E+02  0.98453619074E+01  0.54825720380E+02  0.60629212171E+02  0.00000000000E+00 0. -1.
         22    1    4    4    0    0 -0.97568713840E+01  0.24588042823E+01  0.27438919547E+02  0.29225614855E+02  0.00000000000E+00 0. -1.
<mgrwt>
<rscale>  0 0.88288237E+02</rscale>
<asrwt>0</asrwt>
<pdfrwt beam="1">  1        2 0.16749101E-01 0.88288237E+02</pdfrwt>
<pdfrwt beam="2">  1       -2 0.27537689E-02 0.88288237E+02</pdfrwt>
<totfact> 0.13752319E+05</totfact>
</mgrwt>
</event>
<event>
 7    1  0.3337990E-009  0.9877124E+02  0.7818608E-02  0.1282901E+00
         -2   -1    0    0    0  501 -0.00000000000E+00  0.00000000000E+00  0.28746908836E+02  0.28746908949E+02  0.25500000000E-02 0. -1.
          2   -1    0    0  501    0  0.00000000000E+00 -0.00000000000E+00 -0.84841794542E+02  0.84841794580E+02  0.25500000000E-02 0.  1.
         23    2    1    2    0    0  0.00000000000E+00  0.00000000000E+00 -0.56094885706E+02  0.11358870353E+03  0.98771237549E+02 0.  0.
    9000005    2    3    3    0    0  0.36823312535E+02 -0.26079903734E+02 -0.75566248357E+01  0.47315930136E+02  0.12065526966E+02 0.  0.
         22    1    3    3    0    0 -0.36823312535E+02  0.26079903734E+02 -0.48538260871E+02  0.66272773393E+02  0.00000000000E+00 0. -1.
         22    1    4    4    0    0  0.16473967986E+02 -0.16917873684E+02  0.41727689267E+00  0.23617370540E+02  0.00000000000E+00 0. -1.
         22    1    4    4    0    0  0.20349344548E+02 -0.91620300497E+01 -0.79739017284E+01  0.23698559597E+02  0.00000000000E+00 0. -1.
<mgrwt>
<rscale>  0 0.98771238E+02</rscale>
<asrwt>0</asrwt>
<pdfrwt beam="2">  1        2 0.13052584E-01 0.98771238E+02</pdfrwt>
<pdfrwt beam="1">  1       -2 0.44226014E-02 0.98771238E+02</pdfrwt>
<totfact> 0.93435216E+04</totfact>
</mgrwt>
</event>
<event>
 7    1  0.3337990E-009  0.9071551E+02  0.7818608E-02  0.1301128E+00
         -2   -1    0    0    0  501 -0.00000000000E+00  0.00000000000E+00  0.70595522623E+02  0.70595522669E+02  0.25500000000E-02 0.  1.
          2   -1    0    0  501    0  0.00000000000E+00 -0.00000000000E+00 -0.29142444941E+02  0.29142445053E+02  0.25500000000E-02 0. -1.
         23    2    1    2    0    0  0.00000000000E+00 -0.35527136788E-14  0.41453077682E+02  0.99737967722E+02  0.90715514417E+02 0.  0.
    9000005    2    3    3    0    0 -0.24549357556E+02 -0.23812955065E+02 -0.12001332193E+02  0.36278518304E+02  0.15398475830E+01 0.  0.
         22    1    3    3    0    0  0.24549357556E+02  0.23812955065E+02  0.53454409875E+02  0.63459449418E+02  0.00000000000E+00 0.  1.
         22    1    4    4    0    0 -0.20706445979E+02 -0.20654806992E+02 -0.10631374711E+02  0.31119191589E+02  0.00000000000E+00 0. -1.
         22    1    4    4    0    0 -0.38429115778E+01 -0.31581480728E+01 -0.13699574824E+01  0.51593267146E+01  0.00000000000E+00 0. -1.
<mgrwt>
<rscale>  0 0.90715514E+02</rscale>
<asrwt>0</asrwt>
<pdfrwt beam="2">  1        2 0.44834531E-02 0.90715514E+02</pdfrwt>
<pdfrwt beam="1">  1       -2 0.10860850E-01 0.90715514E+02</pdfrwt>
<totfact> 0.89115417E+04</totfact>
</mgrwt>
</event>
<event>
 7    1  0.3337990E-009  0.9226142E+02  0.7818608E-02  0.1297466E+00
         -2   -1    0    0    0  501 -0.00000000000E+00  0.00000000000E+00  0.57020951521E+01  0.57020957223E+01  0.25500000000E-02 0.  1.
          2   -1    0    0  501    0  0.00000000000E+00 -0.00000000000E+00 -0.37320357916E+03  0.37320357916E+03  0.25500000000E-02 0. -1.
         23    2    1    2    0    0  0.00000000000E+00  0.00000000000E+00 -0.36750148400E+03  0.37890567489E+03  0.92261420521E+02 0.  0.
    9000005    2    3    3    0    0  0.21204185612E+02  0.40658026788E+02 -0.19504897266E+03  0.20046083383E+03  0.61442278395E+01 0.  0.
         22    1    3    3    0    0 -0.21204185612E+02 -0.40658026788E+02 -0.17245251134E+03  0.17844484105E+03  0.00000000000E+00 0. -1.
         22    1    4    4    0    0  0.11817051052E+02  0.18359191729E+02 -0.82449010933E+02  0.85290925779E+02  0.00000000000E+00 0. -1.
         22    1    4    4    0    0  0.93871345601E+01  0.22298835060E+02 -0.11259996173E+03  0.11516990805E+03  0.00000000000E+00 0. -1.
<mgrwt>
<rscale>  0 0.92261421E+02</rscale>
<asrwt>0</asrwt>
<pdfrwt beam="2">  1        2 0.57415916E-01 0.92261421E+02</pdfrwt>
<pdfrwt beam="1">  1       -2 0.87724575E-03 0.92261421E+02</pdfrwt>
<totfact> 0.18866227E+05</totfact>
</mgrwt>
</event>
<event>
 7    1  0.3337990E-009  0.9881856E+02  0.7818608E-02  0.1282800E+00
         -2   -1    0    0    0  501 -0.00000000000E+00  0.00000000000E+00  0.31842742117E+01  0.31842752327E+01  0.25500000000E-02 0.  1.
          2   -1    0    0  501    0  0.00000000000E+00 -0.00000000000E+00 -0.76666657269E+03  0.76666657270E+03  0.25500000000E-02 0. -1.
         23    2    1    2    0    0  0.00000000000E+00  0.00000000000E+00 -0.76348229848E+03  0.76985084793E+03  0.98818560828E+02 0.  0.
    9000005    2    3    3    0    0  0.19539208012E+02  0.11755966395E+02 -0.72321409317E+03  0.72357437707E+03  0.11274782919E+01 0.  0.
         22    1    3    3    0    0 -0.19539208012E+02 -0.11755966395E+02 -0.40268205313E+02  0.46276470855E+02  0.00000000000E+00 0.  1.
         22    1    4    4    0    0  0.10313109443E+02  0.61407508727E+01 -0.36287114736E+03  0.36306960577E+03  0.00000000000E+00 0.  1.
         22    1    4    4    0    0  0.92260985693E+01  0.56152155222E+01 -0.36034294581E+03  0.36050477130E+03  0.00000000000E+00 0.  1.
<mgrwt>
<rscale>  0 0.98818561E+02</rscale>
<asrwt>0</asrwt>
<pdfrwt beam="2">  1        2 0.11794856E+00 0.98818561E+02</pdfrwt>
<pdfrwt beam="1">  1       -2 0.48988903E-03 0.98818561E+02</pdfrwt>
<totfact> 0.19542049E+05</totfact>
</mgrwt>
</event>
<event>
 7    1  0.3337990E-009  0.9248883E+02  0.7818608E-02  0.1296934E+00
          2   -1    0    0  501    0  0.00000000000E+00  0.00000000000E+00  0.40028762840E+02  0.40028762921E+02  0.25500000000E-02 0. -1.
         -2   -1    0    0    0  501 -0.00000000000E+00 -0.00000000000E+00 -0.53425231454E+02  0.53425231515E+02  0.25500000000E-02 0.  1.
         23    2    1    2    0    0  0.17763568394E-14  0.00000000000E+00 -0.13396468614E+02  0.93453994436E+02  0.92488830161E+02 0.  0.
    9000005    2    3    3    0    0  0.14489362897E+02 -0.41063527752E+02  0.76202109460E+01  0.45102616292E+02  0.89455817537E+01 0.  0.
         22    1    3    3    0    0 -0.14489362897E+02  0.41063527752E+02 -0.21016679560E+02  0.48351378143E+02  0.00000000000E+00 0.  1.
         22    1    4    4    0    0  0.89212538792E+01 -0.13008416788E+02  0.14318514962E+01  0.15838493515E+02  0.00000000000E+00 0. -1.
         22    1    4    4    0    0  0.55681090174E+01 -0.28055110964E+02  0.61883594498E+01  0.29264122777E+02  0.00000000000E+00 0. -1.
<mgrwt>
<rscale>  0 0.92488830E+02</rscale>
<asrwt>0</asrwt>
<pdfrwt beam="1">  1        2 0.61582712E-02 0.92488830E+02</pdfrwt>
<pdfrwt beam="2">  1       -2 0.82192664E-02 0.92488830E+02</pdfrwt>
<totfact> 0.91529168E+04</totfact>
</mgrwt>
</event>
<event>
 7    1  0.3337990E-009  0.9029722E+02  0.7818608E-02  0.1302134E+00
         -2   -1    0    0    0  501 -0.00000000000E+00  0.00000000000E+00  0.18431704185E+01  0.18431721824E+01  0.25500000000E-02 0.  1.
          2   -1    0    0  501    0  0.00000000000E+00 -0.00000000000E+00 -0.11059184240E+04  0.11059184240E+04  0.25500000000E-02 0. -1.
         23    2    1    2    0    0  0.17763568394E-14 -0.35527136788E-14 -0.11040752536E+04  0.11077615962E+04  0.90297222615E+02 0.  0.
    9000005    2    3    3    0    0  0.12320537165E+02 -0.16577665004E+02 -0.10429655995E+04  0.10432557481E+04  0.13367858121E+02 0.  0.
         22    1    3    3    0    0 -0.12320537165E+02  0.16577665004E+02 -0.61109654122E+02  0.64505848107E+02  0.00000000000E+00 0.  1.
         22    1    4    4    0    0 -0.50630864541E+00 -0.18453941416E+01 -0.37429419628E+03  0.37429908789E+03  0.00000000000E+00 0. -1.
         22    1    4    4    0    0  0.12826845810E+02 -0.14732270863E+02 -0.66867140318E+03  0.66895666019E+03  0.00000000000E+00 0. -1.
<mgrwt>
<rscale>  0 0.90297223E+02</rscale>
<asrwt>0</asrwt>
<pdfrwt beam="2">  1        2 0.17014077E+00 0.90297223E+02</pdfrwt>
<pdfrwt beam="1">  1       -2 0.28356570E-03 0.90297223E+02</pdfrwt>
<totfact> 0.25660885E+05</totfact>
</mgrwt>
</event>
<event>
 7    1  0.3337990E-009  0.9413531E+02  0.7818608E-02  0.1293136E+00
          2   -1    0    0  501    0  0.00000000000E+00  0.00000000000E+00  0.96433219597E+02  0.96433219630E+02  0.25500000000E-02 0. -1.
         -2   -1    0    0    0  501 -0.00000000000E+00 -0.00000000000E+00 -0.22973040449E+02  0.22973040590E+02  0.25500000000E-02 0.  1.
         23    2    1    2    0    0 -0.35527136788E-14  0.71054273576E-14  0.73460179148E+02  0.11940626022E+03  0.94135312499E+02 0.  0.
    9000005    2    3    3    0    0 -0.25314655001E+02  0.38347205008E+02  0.41097767734E+02  0.63204253474E+02  0.13943143648E+02 0.  0.
         22    1    3    3    0    0  0.25314655001E+02 -0.38347205008E+02  0.32362411414E+02  0.56202006746E+02  0.00000000000E+00 0. -1.
         22    1    4    4    0    0 -0.24202984130E+02  0.39544447845E+02  0.39339956809E+02  0.60804440610E+02  0.00000000000E+00 0.  1.
         22    1    4    4    0    0 -0.11116708706E+01 -0.11972428370E+01  0.17578109247E+01  0.23998128640E+01  0.00000000000E+00 0.  1.
<mgrwt>
<rscale>  0 0.94135312E+02</rscale>
<asrwt>0</asrwt>
<pdfrwt beam="1">  1        2 0.14835880E-01 0.94135312E+02</pdfrwt>
<pdfrwt beam="2">  1       -2 0.35343140E-02 0.94135312E+02</pdfrwt>
<totfact> 0.11107678E+05</totfact>
</mgrwt>
</event>
<event>
 7    1  0.3337990E-009  0.9085933E+02  0.7818608E-02  0.1300784E+00
          2   -1    0    0  501    0  0.00000000000E+00  0.00000000000E+00  0.53603142935E+02  0.53603142995E+02  0.25500000000E-02 0. -1.
         -2   -1    0    0    0  501 -0.00000000000E+00 -0.00000000000E+00 -0.38502492128E+02  0.38502492212E+02  0.25500000000E-02 0.  1.
         23    2    1    2    0    0  0.00000000000E+00  0.00000000000E+00  0.15100650807E+02  0.92105635207E+02  0.90859332939E+02 0.  0.
    9000005    2    3    3    0    0  0.32089501036E+02 -0.30368146425E+02  0.10303816438E+02  0.47665000491E+02  0.14622696213E+02 0.  0.
         22    1    3    3    0    0 -0.32089501036E+02  0.30368146425E+02  0.47968343684E+01  0.44440634717E+02  0.00000000000E+00 0. -1.
         22    1    4    4    0    0  0.17396026947E+02 -0.66912744395E+01  0.32406129076E+01  0.18918152108E+02  0.00000000000E+00 0. -1.
         22    1    4    4    0    0  0.14693474090E+02 -0.23676871985E+02  0.70632035307E+01  0.28746848383E+02  0.00000000000E+00 0. -1.
<mgrwt>
<rscale>  0 0.90859333E+02</rscale>
<asrwt>0</asrwt>
<pdfrwt beam="1">  1        2 0.82466374E-02 0.90859333E+02</pdfrwt>
<pdfrwt beam="2">  1       -2 0.59234603E-02 0.90859333E+02</pdfrwt>
<totfact> 0.10396379E+05</totfact>
</mgrwt>
</event>
<event>
 7    1  0.3337990E-009  0.9314993E+02  0.7818608E-02  0.1295398E+00
         -2   -1    0    0    0  501 -0.00000000000E+00  0.00000000000E+00  0.10308841634E+03  0.10308841638E+03  0.25500000000E-02 0.  1.
          2   -1    0    0  501    0  0.00000000000E+00 -0.00000000000E+00 -0.21042394616E+02  0.21042394770E+02  0.25500000000E-02 0. -1.
         23    2    1    2    0    0 -0.35527136788E-14  0.00000000000E+00  0.82046021729E+02  0.12413081115E+03  0.93149925359E+02 0.  0.
    9000005    2    3    3    0    0 -0.17230709310E+02  0.22618873689E+02  0.89917738130E+02  0.94627002759E+02  0.77819811428E+01 0.  0.
         22    1    3    3    0    0  0.17230709310E+02 -0.22618873689E+02 -0.78717164009E+01  0.29503808388E+02  0.00000000000E+00 0. -1.
         22    1    4    4    0    0 -0.59092567103E+01  0.25495348731E+01  0.20062360673E+02  0.21069355916E+02  0.00000000000E+00 0. -1.
         22    1    4    4    0    0 -0.11321452599E+02  0.20069338816E+02  0.69855377457E+02  0.73557646843E+02  0.00000000000E+00 0. -1.
<mgrwt>
<rscale>  0 0.93149925E+02</rscale>
<asrwt>0</asrwt>
<pdfrwt beam="2">  1        2 0.32372915E-02 0.93149925E+02</pdfrwt>
<pdfrwt beam="1">  1       -2 0.15859756E-01 0.93149925E+02</pdfrwt>
<totfact> 0.74968888E+04</totfact>
</mgrwt>
</event>
<event>
 7    1  0.3337990E-009  0.9166893E+02  0.7818608E-02  0.1298860E+00
          2   -1    0    0  501    0  0.00000000000E+00  0.00000000000E+00  0.89341005948E+01  0.89341009588E+01  0.25500000000E-02 0.  1.
         -2   -1    0    0    0  501 -0.00000000000E+00 -0.00000000000E+00 -0.23514378115E+03  0.23514378116E+03  0.25500000000E-02 0. -1.
         23    2    1    2    0    0  0.22204460493E-15  0.00000000000E+00 -0.22620968055E+03  0.24407788212E+03  0.91668931293E+02 0.  0.
    9000005    2    3    3    0    0 -0.14327669919E+01  0.44507648572E+02 -0.99788061014E+02  0.11004277668E+03  0.12991226905E+02 0.  0.
         22    1    3    3    0    0  0.14327669919E+01 -0.44507648572E+02 -0.12642161954E+03  0.13403510544E+03  0.00000000000E+00 0. -1.
         22    1    4    4    0    0 -0.47678667144E+01  0.90349683159E+01 -0.15862534373E+02  0.18867517118E+02  0.00000000000E+00 0.  1.
         22    1    4    4    0    0  0.33350997225E+01  0.35472680257E+02 -0.83925526641E+02  0.91175259565E+02  0.00000000000E+00 0.  1.
<mgrwt>
<rscale>  0 0.91668931E+02</rscale>
<asrwt>0</asrwt>
<pdfrwt beam="1">  1        2 0.13744772E-02 0.91668931E+02</pdfrwt>
<pdfrwt beam="2">  1       -2 0.36175962E-01 0.91668931E+02</pdfrwt>
<totfact> 0.57092681E+04</totfact>
</mgrwt>
</event>
<event>
 7    1  0.3337990E-009  0.8310134E+02  0.7818608E-02  0.1320474E+00
         -2   -1    0    0    0  501 -0.00000000000E+00  0.00000000000E+00  0.23829093674E+01  0.23829107318E+01  0.25500000000E-02 0.  1.
          2   -1    0    0  501    0  0.00000000000E+00 -0.00000000000E+00 -0.72451670908E+03  0.72451670908E+03  0.25500000000E-02 0. -1.
         23    2    1    2    0    0  0.35527136788E-14 -0.17763568394E-14 -0.72213379971E+03  0.72689961982E+03  0.83101339349E+02 0.  0.
    9000005    2    3    3    0    0 -0.29550675230E+02  0.13328725311E+02 -0.58247185617E+03  0.58352474126E+03  0.13295229049E+02 0.  0.
         22    1    3    3    0    0  0.29550675230E+02 -0.13328725311E+02 -0.13966194354E+03  0.14337487855E+03  0.00000000000E+00 0.  1.
         22    1    4    4    0    0 -0.29160779156E+02  0.14628810778E+02 -0.51120752081E+03  0.51224748167E+03  0.00000000000E+00 0. -1.
         22    1    4    4    0    0 -0.38989607389E+00 -0.13000854666E+01 -0.71264335360E+02  0.71277259595E+02  0.00000000000E+00 0. -1.
<mgrwt>
<rscale>  0 0.83101339E+02</rscale>
<asrwt>0</asrwt>
<pdfrwt beam="2">  1        2 0.11146393E+00 0.83101339E+02</pdfrwt>
<pdfrwt beam="1">  1       -2 0.36660212E-03 0.83101339E+02</pdfrwt>
<totfact> 0.30485234E+05</totfact>
</mgrwt>
</event>
<event>
 7    1  0.3337990E-009  0.8987390E+02  0.7818608E-02  0.1303157E+00
          2   -1    0    0  501    0  0.00000000000E+00  0.00000000000E+00  0.84800659265E+03  0.84800659265E+03  0.25500000000E-02 0. -1.
         -2   -1    0    0    0  501 -0.00000000000E+00 -0.00000000000E+00 -0.23812654480E+01  0.23812668133E+01  0.25500000000E-02 0.  1.
         23    2    1    2    0    0  0.00000000000E+00  0.88817841970E-15  0.84562532720E+03  0.85038785947E+03  0.89873897899E+02 0.  0.
    9000005    2    3    3    0    0  0.28682474348E+02 -0.33761835150E+01  0.74811461551E+03  0.74869016115E+03  0.52341667631E+01 0.  0.
         22    1    3    3    0    0 -0.28682474348E+02  0.33761835150E+01  0.97510711686E+02  0.10169769832E+03  0.00000000000E+00 0.  1.
         22    1    4    4    0    0  0.37689011578E+01  0.10354205938E+01  0.12785258263E+03  0.12791231214E+03  0.00000000000E+00 0.  1.
         22    1    4    4    0    0  0.24913573190E+02 -0.44116041088E+01  0.62026203288E+03  0.62077784900E+03  0.00000000000E+00 0.  1.
<mgrwt>
<rscale>  0 0.89873898E+02</rscale>
<asrwt>0</asrwt>
<pdfrwt beam="1">  1        2 0.13046258E+00 0.89873898E+02</pdfrwt>
<pdfrwt beam="2">  1       -2 0.36634855E-03 0.89873898E+02</pdfrwt>
<totfact> 0.25553914E+05</totfact>
</mgrwt>
</event>
<event>
 7    1  0.3337990E-009  0.9275459E+02  0.7818608E-02  0.1296315E+00
         -2   -1    0    0    0  501 -0.00000000000E+00  0.00000000000E+00  0.27523367038E+03  0.27523367039E+03  0.25500000000E-02 0. -1.
          2   -1    0    0  501    0  0.00000000000E+00 -0.00000000000E+00 -0.78146451353E+01  0.78146455513E+01  0.25500000000E-02 0.  1.
         23    2    1    2    0    0  0.71054273576E-14  0.00000000000E+00  0.26741902525E+03  0.28304831594E+03  0.92754590697E+02 0.  0.
    9000005    2    3    3    0    0  0.34399897028E+02 -0.30202440688E+02  0.11308932727E+03  0.12207255374E+03  0.41197203547E+01 0.  0.
         22    1    3    3    0    0 -0.34399897028E+02  0.30202440688E+02  0.15432969798E+03  0.16097576220E+03  0.00000000000E+00 0.  1.
         22    1    4    4    0    0  0.34522190223E+02 -0.30071851016E+02  0.11264612413E+03  0.12159460154E+03  0.00000000000E+00 0. -1.
         22    1    4    4    0    0 -0.12229319492E+00 -0.13058967174E+00  0.44320313841E+00  0.47795220449E+00  0.00000000000E+00 0. -1.
<mgrwt>
<rscale>  0 0.92754591E+02</rscale>
<asrwt>0</asrwt>
<pdfrwt beam="2">  1        2 0.12022532E-02 0.92754591E+02</pdfrwt>
<pdfrwt beam="1">  1       -2 0.42343638E-01 0.92754591E+02</pdfrwt>
<totfact> 0.51151994E+04</totfact>
</mgrwt>
</event>
<event>
 7    1  0.3337990E-009  0.9308316E+02  0.7818608E-02  0.1295553E+00
          2   -1    0    0  501    0  0.00000000000E+00  0.00000000000E+00  0.23050947440E+03  0.23050947441E+03  0.25500000000E-02 0. -1.
         -2   -1    0    0    0  501 -0.00000000000E+00 -0.00000000000E+00 -0.93970922147E+01  0.93970925607E+01  0.25500000000E-02 0.  1.
         23    2    1    2    0    0  0.00000000000E+00  0.00000000000E+00  0.22111238218E+03  0.23990656697E+03  0.93083163471E+02 0.  0.
    9000005    2    3    3    0    0  0.38862941868E+02 -0.24211307138E+02  0.13121862427E+03  0.13902344967E+03  0.35604157486E+01 0.  0.
         22    1    3    3    0    0 -0.38862941868E+02  0.24211307138E+02  0.89893757914E+02  0.10088311730E+03  0.00000000000E+00 0. -1.
         22    1    4    4    0    0  0.36314361289E+02 -0.22364371754E+02  0.11921482506E+03  0.12661387157E+03  0.00000000000E+00 0. -1.
         22    1    4    4    0    0  0.25485805787E+01 -0.18469353839E+01  0.12003799211E+02  0.12409578106E+02  0.00000000000E+00 0. -1.
<mgrwt>
<rscale>  0 0.93083163E+02</rscale>
<asrwt>0</asrwt>
<pdfrwt beam="1">  1        2 0.35462994E-01 0.93083163E+02</pdfrwt>
<pdfrwt beam="2">  1       -2 0.14457066E-02 0.93083163E+02</pdfrwt>
<totfact> 0.15409234E+05</totfact>
</mgrwt>
</event>
<event>
 7    1  0.3337990E-009  0.8937261E+02  0.7818608E-02  0.1304378E+00
          2   -1    0    0  501    0  0.00000000000E+00  0.00000000000E+00  0.14306845934E+04  0.14306845934E+04  0.25500000000E-02 0. -1.
         -2   -1    0    0    0  501 -0.00000000000E+00 -0.00000000000E+00 -0.13957404115E+01  0.13957427409E+01  0.25500000000E-02 0.  1.
         23    2    1    2    0    0 -0.17763568394E-14  0.00000000000E+00  0.14292888529E+04  0.14320803361E+04  0.89372612643E+02 0.  0.
    9000005    2    3    3    0    0 -0.13503741435E+02  0.20187027598E+02  0.13143322866E+04  0.13145861692E+04  0.88073528052E+01 0.  0.
         22    1    3    3    0    0  0.13503741435E+02 -0.20187027598E+02  0.11495656631E+03  0.11749416689E+03  0.00000000000E+00 0.  1.
         22    1    4    4    0    0 -0.13512829923E+02  0.16276650444E+02  0.96417841959E+03  0.96441046797E+03  0.00000000000E+00 0.  1.
         22    1    4    4    0    0  0.90884877295E-02  0.39103771536E+01  0.35015386705E+03  0.35017570124E+03  0.00000000000E+00 0.  1.
<mgrwt>
<rscale>  0 0.89372613E+02</rscale>
<asrwt>0</asrwt>
<pdfrwt beam="1">  1        2 0.22010408E+00 0.89372613E+02</pdfrwt>
<pdfrwt beam="2">  1       -2 0.21473069E-03 0.89372613E+02</pdfrwt>
<totfact> 0.25280350E+05</totfact>
</mgrwt>
</event>
<event>
 7    1  0.3337990E-009  0.1032636E+03  0.7818608E-02  0.1273579E+00
         -2   -1    0    0    0  501 -0.00000000000E+00  0.00000000000E+00  0.17753256388E+02  0.17753256571E+02  0.25500000000E-02 0. -1.
          2   -1    0    0  501    0  0.00000000000E+00 -0.00000000000E+00 -0.15016083336E+03  0.15016083338E+03  0.25500000000E-02 0.  1.
         23    2    1    2    0    0  0.00000000000E+00 -0.35527136788E-14 -0.13240757697E+03  0.16791408995E+03  0.10326361975E+03 0.  0.
    9000005    2    3    3    0    0 -0.33544025679E+02 -0.26060938670E+02 -0.20103107628E+02  0.47844659964E+02  0.89778821357E+01 0.  0.
         22    1    3    3    0    0  0.33544025679E+02  0.26060938670E+02 -0.11230446934E+03  0.12006942999E+03  0.00000000000E+00 0.  1.
         22    1    4    4    0    0 -0.27032546337E+02 -0.23294786588E+02 -0.19693111833E+02  0.40758119403E+02  0.00000000000E+00 0.  1.
         22    1    4    4    0    0 -0.65114793421E+01 -0.27661520825E+01 -0.40999579479E+00  0.70865405606E+01  0.00000000000E+00 0.  1.
<mgrwt>
<rscale>  0 0.10326362E+03</rscale>
<asrwt>0</asrwt>
<pdfrwt beam="2">  1        2 0.23101666E-01 0.10326362E+03</pdfrwt>
<pdfrwt beam="1">  1       -2 0.27312703E-02 0.10326362E+03</pdfrwt>
<totfact> 0.99467962E+04</totfact>
</mgrwt>
</event>
<event>
 7    1  0.3337990E-009  0.8863505E+02  0.7818608E-02  0.1306191E+00
          2   -1    0    0  501    0  0.00000000000E+00  0.00000000000E+00  0.55928668606E+01  0.55928674419E+01  0.25500000000E-02 0. -1.
         -2   -1    0    0    0  501 -0.00000000000E+00 -0.00000000000E+00 -0.35116922700E+03  0.35116922701E+03  0.25500000000E-02 0.  1.
         23    2    1    2    0    0  0.00000000000E+00  0.00000000000E+00 -0.34557636014E+03  0.35676209445E+03  0.88635045834E+02 0.  0.
    9000005    2    3    3    0    0  0.52212715928E+01  0.17431062359E+02 -0.33503216154E+03  0.33573155152E+03  0.11748268155E+02 0.  0.
         22    1    3    3    0    0 -0.52212715928E+01 -0.17431062359E+02 -0.10544198596E+02  0.21030542932E+02  0.00000000000E+00 0. -1.
         22    1    4    4    0    0  0.21459720728E+01 -0.14039279726E+01 -0.43188626495E+02  0.43264693093E+02  0.00000000000E+00 0.  1.
         22    1    4    4    0    0  0.30752995200E+01  0.18834990331E+02 -0.29184353505E+03  0.29246685843E+03  0.00000000000E+00 0.  1.
<mgrwt>
<rscale>  0 0.88635046E+02</rscale>
<asrwt>0</asrwt>
<pdfrwt beam="1">  1        2 0.86044138E-03 0.88635046E+02</pdfrwt>
<pdfrwt beam="2">  1       -2 0.54026018E-01 0.88635046E+02</pdfrwt>
<totfact> 0.49971478E+04</totfact>
</mgrwt>
</event>
<event>
 6    1  0.4264239E-009  0.4082903E+03  0.7818608E-02  0.1040946E+00
         -2   -1    0    0    0  501 -0.00000000000E+00  0.00000000000E+00  0.25920989958E+03  0.25920989959E+03  0.25500000000E-02 0.  1.
          2   -1    0    0  501    0  0.00000000000E+00 -0.00000000000E+00 -0.16077798694E+03  0.16077798696E+03  0.25500000000E-02 0. -1.
    9000005    2    1    2    0    0 -0.91406853321E+02 -0.84004489338E+02  0.21570565039E+03  0.24920997044E+03  0.12834122121E+02 0.  0.
         22    1    1    2    0    0  0.91406853321E+02  0.84004489338E+02 -0.11727373776E+03  0.17077791611E+03  0.00000000000E+00 0. -1.
         22    1    3    3    0    0 -0.59035423016E+02 -0.46735337344E+02  0.12433293710E+03  0.14535491796E+03  0.00000000000E+00 0. -1.
         22    1    3    3    0    0 -0.32371430305E+02 -0.37269151995E+02  0.91372713294E+02  0.10385505248E+03  0.00000000000E+00 0. -1.
<mgrwt>
<rscale>  0 0.40829032E+03</rscale>
<asrwt>0</asrwt>
<pdfrwt beam="2">  1        2 0.24735075E-01 0.40829032E+03</pdfrwt>
<pdfrwt beam="1">  1       -2 0.39878446E-01 0.40829032E+03</pdfrwt>
<totfact> 0.13143510E+03</totfact>
</mgrwt>
</event>
<event>
 7    1  0.3337990E-009  0.9183527E+02  0.7818608E-02  0.1298467E+00
          2   -1    0    0  501    0  0.00000000000E+00  0.00000000000E+00  0.15295262972E+02  0.15295263185E+02  0.25500000000E-02 0. -1.
         -2   -1    0    0    0  501 -0.00000000000E+00 -0.00000000000E+00 -0.13784849969E+03  0.13784849972E+03  0.25500000000E-02 0.  1.
         23    2    1    2    0    0  0.00000000000E+00  0.17763568394E-14 -0.12255323672E+03  0.15314376290E+03  0.91835267108E+02 0.  0.
    9000005    2    3    3    0    0 -0.84207784996E+01  0.11860267103E+02 -0.13351469127E+03  0.13493033565E+03  0.12978722944E+02 0.  0.
         22    1    3    3    0    0  0.84207784996E+01 -0.11860267103E+02  0.10961454547E+02  0.18213427247E+02  0.00000000000E+00 0. -1.
         22    1    4    4    0    0 -0.54419290777E+01  0.39497038227E+01 -0.10432240775E+03  0.10453888994E+03  0.00000000000E+00 0.  1.
         22    1    4    4    0    0 -0.29788494219E+01  0.79105632802E+01 -0.29192283519E+02  0.30391445710E+02  0.00000000000E+00 0.  1.
<mgrwt>
<rscale>  0 0.91835267E+02</rscale>
<asrwt>0</asrwt>
<pdfrwt beam="1">  1        2 0.23531175E-02 0.91835267E+02</pdfrwt>
<pdfrwt beam="2">  1       -2 0.21207461E-01 0.91835267E+02</pdfrwt>
<totfact> 0.70691227E+04</totfact>
</mgrwt>
</event>
<event>
 7    1  0.3337990E-009  0.9256481E+02  0.7818608E-02  0.1296757E+00
          2   -1    0    0  501    0  0.00000000000E+00  0.00000000000E+00  0.80577586876E+02  0.80577586916E+02  0.25500000000E-02 0. -1.
         -2   -1    0    0    0  501 -0.00000000000E+00 -0.00000000000E+00 -0.26583829686E+02  0.26583829809E+02  0.25500000000E-02 0.  1.
         23    2    1    2    0    0  0.71054273576E-14  0.00000000000E+00  0.53993757189E+02  0.10716141672E+03  0.92564806590E+02 0.  0.
    9000005    2    3    3    0    0  0.43789725177E+02  0.87316196683E+01  0.22191436700E+02  0.52341996793E+02  0.15919910564E+02 0.  0.
         22    1    3    3    0    0 -0.43789725177E+02 -0.87316196683E+01  0.31802320489E+02  0.54819419931E+02  0.00000000000E+00 0. -1.
         22    1    4    4    0    0 -0.10055368385E+01 -0.49986534917E+00 -0.56477851408E+00  0.12569584205E+01  0.00000000000E+00 0. -1.
         22    1    4    4    0    0  0.44795262016E+02  0.92314850175E+01  0.22756215214E+02  0.51085038373E+02  0.00000000000E+00 0. -1.
<mgrwt>
<rscale>  0 0.92564807E+02</rscale>
<asrwt>0</asrwt>
<pdfrwt beam="1">  1        2 0.12396552E-01 0.92564807E+02</pdfrwt>
<pdfrwt beam="2">  1       -2 0.40898199E-02 0.92564807E+02</pdfrwt>
<totfact> 0.11035158E+05</totfact>
</mgrwt>
</event>
<event>
 7    1  0.3337990E-009  0.9884676E+02  0.7818608E-02  0.1282740E+00
          2   -1    0    0  501    0  0.00000000000E+00  0.00000000000E+00  0.83194860765E+02  0.83194860804E+02  0.25500000000E-02 0. -1.
         -2   -1    0    0    0  501 -0.00000000000E+00 -0.00000000000E+00 -0.29360831141E+02  0.29360831252E+02  0.25500000000E-02 0.  1.
         23    2    1    2    0    0  0.00000000000E+00  0.17763568394E-14  0.53834029623E+02  0.11255569206E+03  0.98846755479E+02 0.  0.
    9000005    2    3    3    0    0  0.23312112034E+02 -0.12568194101E+02  0.74412970622E+02  0.79016060528E+02  0.21985345314E+01 0.  0.
         22    1    3    3    0    0 -0.23312112034E+02  0.12568194101E+02 -0.20578940998E+02  0.33539631528E+02  0.00000000000E+00 0.  1.
         22    1    4    4    0    0  0.19799624607E+02 -0.10095857910E+02  0.60382448783E+02  0.64342766513E+02  0.00000000000E+00 0.  1.
         22    1    4    4    0    0  0.35124874264E+01 -0.24723361920E+01  0.14030521839E+02  0.14673294015E+02  0.00000000000E+00 0.  1.
<mgrwt>
<rscale>  0 0.98846755E+02</rscale>
<asrwt>0</asrwt>
<pdfrwt beam="1">  1        2 0.12799209E-01 0.98846755E+02</pdfrwt>
<pdfrwt beam="2">  1       -2 0.45170510E-02 0.98846755E+02</pdfrwt>
<totfact> 0.92686533E+04</totfact>
</mgrwt>
</event>
<event>
 7    1  0.3337990E-009  0.9043094E+02  0.7818608E-02  0.1301811E+00
         -2   -1    0    0    0  501 -0.00000000000E+00  0.00000000000E+00  0.19110627965E+03  0.19110627966E+03  0.25500000000E-02 0.  1.
          2   -1    0    0  501    0  0.00000000000E+00 -0.00000000000E+00 -0.10697914463E+02  0.10697914767E+02  0.25500000000E-02 0. -1.
         23    2    1    2    0    0  0.00000000000E+00  0.35527136788E-14  0.18040836518E+03  0.20180419443E+03  0.90430938629E+02 0.  0.
    9000005    2    3    3    0    0 -0.86339113179E+00 -0.29023708878E+02  0.16754013500E+03  0.17004396034E+03  0.14596203689E+01 0.  0.
         22    1    3    3    0    0  0.86339113179E+00  0.29023708878E+02  0.12868230183E+02  0.31760234088E+02  0.00000000000E+00 0. -1.
         22    1    4    4    0    0  0.17064783529E+00 -0.23758065968E+01  0.15721631128E+02  0.15901045972E+02  0.00000000000E+00 0.  1.
         22    1    4    4    0    0 -0.10340389671E+01 -0.26647902281E+02  0.15181850387E+03  0.15414291437E+03  0.00000000000E+00 0.  1.
<mgrwt>
<rscale>  0 0.90430939E+02</rscale>
<asrwt>0</asrwt>
<pdfrwt beam="2">  1        2 0.16458330E-02 0.90430939E+02</pdfrwt>
<pdfrwt beam="1">  1       -2 0.29400966E-01 0.90430939E+02</pdfrwt>
<totfact> 0.64885714E+04</totfact>
</mgrwt>
</event>
<event>
 7    1  0.3337990E-009  0.9169776E+02  0.7818608E-02  0.1298792E+00
          2   -1    0    0  501    0  0.00000000000E+00  0.00000000000E+00  0.41214389830E+03  0.41214389831E+03  0.25500000000E-02 0. -1.
         -2   -1    0    0    0  501 -0.00000000000E+00 -0.00000000000E+00 -0.51004512853E+01  0.51004519227E+01  0.25500000000E-02 0.  1.
         23    2    1    2    0    0  0.00000000000E+00  0.00000000000E+00  0.40704344701E+03  0.41724435023E+03  0.91697764650E+02 0.  0.
    9000005    2    3    3    0    0 -0.32412668357E+02  0.30680753091E+02  0.16978977467E+03  0.17582936577E+03  0.97728503989E+01 0.  0.
         22    1    3    3    0    0  0.32412668357E+02 -0.30680753091E+02  0.23725367235E+03  0.24141498446E+03  0.00000000000E+00 0. -1.
         22    1    4    4    0    0  0.12766445327E+00  0.19216533048E+01  0.39027842112E+01  0.43520999800E+01  0.00000000000E+00 0.  1.
         22    1    4    4    0    0 -0.32540332810E+02  0.28759099787E+02  0.16588699046E+03  0.17147726579E+03  0.00000000000E+00 0.  1.
<mgrwt>
<rscale>  0 0.91697765E+02</rscale>
<asrwt>0</asrwt>
<pdfrwt beam="1">  1        2 0.63406748E-01 0.91697765E+02</pdfrwt>
<pdfrwt beam="2">  1       -2 0.78468493E-03 0.91697765E+02</pdfrwt>
<totfact> 0.19873131E+05</totfact>
</mgrwt>
</event>
<event>
 7    1  0.3337990E-009  0.9424653E+02  0.7818608E-02  0.1292882E+00
         -2   -1    0    0    0  501 -0.00000000000E+00  0.00000000000E+00  0.26515998628E+01  0.26516010889E+01  0.25500000000E-02 0.  1.
          2   -1    0    0  501    0  0.00000000000E+00 -0.00000000000E+00 -0.83745719831E+03  0.83745719831E+03  0.25500000000E-02 0. -1.
         23    2    1    2    0    0  0.00000000000E+00 -0.22204460493E-15 -0.83480559845E+03  0.84010879940E+03  0.94246525853E+02 0.  0.
    9000005    2    3    3    0    0 -0.37331770847E+02 -0.11469542884E+01 -0.67021254051E+03  0.67133127915E+03  0.10288843524E+02 0.  0.
         22    1    3    3    0    0  0.37331770847E+02  0.11469542884E+01 -0.16459305794E+03  0.16877752025E+03  0.00000000000E+00 0.  1.
         22    1    4    4    0    0 -0.14299628447E+02  0.43452987239E+00 -0.17630847103E+03  0.17688794517E+03  0.00000000000E+00 0. -1.
         22    1    4    4    0    0 -0.23032142400E+02 -0.15814841607E+01 -0.49390406947E+03  0.49444333398E+03  0.00000000000E+00 0. -1.
<mgrwt>
<rscale>  0 0.94246526E+02</rscale>
<asrwt>0</asrwt>
<pdfrwt beam="2">  1        2 0.12883936E+00 0.94246526E+02</pdfrwt>
<pdfrwt beam="1">  1       -2 0.40793920E-03 0.94246526E+02</pdfrwt>
<totfact> 0.22502694E+05</totfact>
</mgrwt>
</event>
<event>
 7    1  0.3337990E-009  0.9217680E+02  0.7818608E-02  0.1297664E+00
         -2   -1    0    0    0  501 -0.00000000000E+00  0.00000000000E+00  0.36486381172E+02  0.36486381261E+02  0.25500000000E-02 0. -1.
          2   -1    0    0  501    0  0.00000000000E+00 -0.00000000000E+00 -0.58217352085E+02  0.58217352141E+02  0.25500000000E-02 0.  1.
         23    2    1    2    0    0  0.00000000000E+00  0.00000000000E+00 -0.21730970913E+02  0.94703733402E+02  0.92176797641E+02 0.  0.
    9000005    2    3    3    0    0  0.82512028415E+01  0.38192226308E+02 -0.33757579951E+02  0.53821367721E+02  0.15180148898E+02 0.  0.
         22    1    3    3    0    0 -0.82512028415E+01 -0.38192226308E+02  0.12026609038E+02  0.40882365680E+02  0.00000000000E+00 0. -1.
         22    1    4    4    0    0  0.21587790969E+01  0.26849073769E+02 -0.30192169931E+02  0.40461095074E+02  0.00000000000E+00 0.  1.
         22    1    4    4    0    0  0.60924237446E+01  0.11343152539E+02 -0.35654100201E+01  0.13360272647E+02  0.00000000000E+00 0.  1.
<mgrwt>
<rscale>  0 0.92176798E+02</rscale>
<asrwt>0</asrwt>
<pdfrwt beam="2">  1        2 0.89565157E-02 0.92176798E+02</pdfrwt>
<pdfrwt beam="1">  1       -2 0.56132894E-02 0.92176798E+02</pdfrwt>
<totfact> 0.10201735E+05</totfact>
</mgrwt>
</event>
<event>
 7    1  0.3337990E-009  0.9057434E+02  0.7818608E-02  0.1301467E+00
          2   -1    0    0  501    0  0.00000000000E+00  0.00000000000E+00  0.40940719669E+03  0.40940719669E+03  0.25500000000E-02 0. -1.
         -2   -1    0    0    0  501 -0.00000000000E+00 -0.00000000000E+00 -0.50095057890E+01  0.50095064380E+01  0.25500000000E-02 0.  1.
         23    2    1    2    0    0  0.00000000000E+00  0.00000000000E+00  0.40439769090E+03  0.41441670313E+03  0.90574342018E+02 0.  0.
    9000005    2    3    3    0    0  0.32605143300E+02 -0.15023074484E+02  0.32745262128E+03  0.32950891859E+03  0.78816314518E+01 0.  0.
         22    1    3    3    0    0 -0.32605143300E+02  0.15023074484E+02  0.76945069622E+02  0.84907784542E+02  0.00000000000E+00 0.  1.
         22    1    4    4    0    0  0.32143727182E+02 -0.14959853123E+02  0.30535595370E+03  0.30740734354E+03  0.00000000000E+00 0. -1.
         22    1    4    4    0    0  0.46141611790E+00 -0.63221360555E-01  0.22096667574E+02  0.22101575049E+02  0.00000000000E+00 0. -1.
<mgrwt>
<rscale>  0 0.90574342E+02</rscale>
<asrwt>0</asrwt>
<pdfrwt beam="1">  1        2 0.62985713E-01 0.90574342E+02</pdfrwt>
<pdfrwt beam="2">  1       -2 0.77069337E-03 0.90574342E+02</pdfrwt>
<totfact> 0.20485574E+05</totfact>
</mgrwt>
</event>
<event>
 7    1  0.3337990E-009  0.9086552E+02  0.7818608E-02  0.1300769E+00
          2   -1    0    0  501    0  0.00000000000E+00  0.00000000000E+00  0.16323742236E+02  0.16323742435E+02  0.25500000000E-02 0.  1.
         -2   -1    0    0    0  501 -0.00000000000E+00 -0.00000000000E+00 -0.12644989662E+03  0.12644989664E+03  0.25500000000E-02 0. -1.
         23    2    1    2    0    0  0.00000000000E+00  0.00000000000E+00 -0.11012615438E+03  0.14277363908E+03  0.90865516764E+02 0.  0.
    9000005    2    3    3    0    0  0.23116010785E+02  0.15257223514E+01 -0.11602771782E+03  0.11886744251E+03  0.11417521689E+02 0.  0.
         22    1    3    3    0    0 -0.23116010785E+02 -0.15257223514E+01  0.59015634444E+01  0.23906196569E+02  0.00000000000E+00 0.  1.
         22    1    4    4    0    0  0.23322957323E+01  0.38433037033E+00 -0.39161447404E+02  0.39232719457E+02  0.00000000000E+00 0. -1.
         22    1    4    4    0    0  0.20783715053E+02  0.11413919811E+01 -0.76866270419E+02  0.79634723050E+02  0.00000000000E+00 0. -1.
<mgrwt>
<rscale>  0 0.90865517E+02</rscale>
<asrwt>0</asrwt>
<pdfrwt beam="1">  1        2 0.25113451E-02 0.90865517E+02</pdfrwt>
<pdfrwt beam="2">  1       -2 0.19453830E-01 0.90865517E+02</pdfrwt>
<totfact> 0.74772694E+04</totfact>
</mgrwt>
</event>
<event>
 7    1  0.3337990E-009  0.9194982E+02  0.7818608E-02  0.1298197E+00
          2   -1    0    0  501    0  0.00000000000E+00  0.00000000000E+00  0.97065195419E+01  0.97065198769E+01  0.25500000000E-02 0. -1.
         -2   -1    0    0    0  501 -0.00000000000E+00 -0.00000000000E+00 -0.21776005957E+03  0.21776005959E+03  0.25500000000E-02 0.  1.
         23    2    1    2    0    0  0.00000000000E+00  0.00000000000E+00 -0.20805354003E+03  0.22746657946E+03  0.91949819217E+02 0.  0.
    9000005    2    3    3    0    0 -0.10008852115E+02 -0.23326254176E+02 -0.19828794596E+03  0.20026992375E+03  0.12068205764E+02 0.  0.
         22    1    3    3    0    0  0.10008852115E+02  0.23326254176E+02 -0.97655940685E+01  0.27196655714E+02  0.00000000000E+00 0. -1.
         22    1    4    4    0    0 -0.77808956873E+01 -0.11117279572E+02 -0.64756234352E+02  0.66162724628E+02  0.00000000000E+00 0. -1.
         22    1    4    4    0    0 -0.22279564276E+01 -0.12208974604E+02 -0.13353171161E+03  0.13410719912E+03  0.00000000000E+00 0. -1.
<mgrwt>
<rscale>  0 0.91949819E+02</rscale>
<asrwt>0</asrwt>
<pdfrwt beam="1">  1        2 0.14933109E-02 0.91949819E+02</pdfrwt>
<pdfrwt beam="2">  1       -2 0.33501544E-01 0.91949819E+02</pdfrwt>
<totfact> 0.58721765E+04</totfact>
</mgrwt>
</event>
<event>
 7    1  0.3337990E-009  0.8955873E+02  0.7818608E-02  0.1303924E+00
          2   -1    0    0  501    0  0.00000000000E+00  0.00000000000E+00  0.47896141305E+03  0.47896141306E+03  0.25500000000E-02 0. -1.
         -2   -1    0    0    0  501 -0.00000000000E+00 -0.00000000000E+00 -0.41865407018E+01  0.41865414784E+01  0.25500000000E-02 0.  1.
         23    2    1    2    0    0 -0.35527136788E-14  0.00000000000E+00  0.47477487235E+03  0.48314795454E+03  0.89558732451E+02 0.  0.
    9000005    2    3    3    0    0 -0.23321832553E+02 -0.17769954702E+02  0.41825639277E+03  0.41947678604E+03  0.12754793979E+02 0.  0.
         22    1    3    3    0    0  0.23321832553E+02  0.17769954702E+02  0.56518479580E+02  0.63671168497E+02  0.00000000000E+00 0.  1.
         22    1    4    4    0    0 -0.67020514644E+01 -0.57382919646E+00  0.15192601702E+03  0.15207485466E+03  0.00000000000E+00 0. -1.
         22    1    4    4    0    0 -0.16619781089E+02 -0.17196125506E+02  0.26633037576E+03  0.26740193138E+03  0.00000000000E+00 0. -1.
<mgrwt>
<rscale>  0 0.89558732E+02</rscale>
<asrwt>0</asrwt>
<pdfrwt beam="1">  1        2 0.73686373E-01 0.89558732E+02</pdfrwt>
<pdfrwt beam="2">  1       -2 0.64408323E-03 0.89558732E+02</pdfrwt>
<totfact> 0.22277491E+05</totfact>
</mgrwt>
</event>
<event>
 7    1  0.3337990E-009  0.9154056E+02  0.7818608E-02  0.1299163E+00
         -2   -1    0    0    0  501 -0.00000000000E+00  0.00000000000E+00  0.10704558289E+01  0.10704588662E+01  0.25500000000E-02 0.  1.
          2   -1    0    0  501    0  0.00000000000E+00 -0.00000000000E+00 -0.19570313527E+04  0.19570313527E+04  0.25500000000E-02 0. -1.
         23    2    1    2    0    0 -0.17763568394E-14  0.00000000000E+00 -0.19559608969E+04  0.19581018116E+04  0.91540561373E+02 0.  0.
    9000005    2    3    3    0    0 -0.15426784043E+02  0.10676647922E+02 -0.18704825027E+04  0.18705887706E+04  0.67512334211E+01 0.  0.
         22    1    3    3    0    0  0.15426784043E+02 -0.10676647922E+02 -0.85478394161E+02  0.87513041000E+02  0.00000000000E+00 0.  1.
         22    1    4    4    0    0 -0.65865413277E+00  0.20129518540E+01 -0.94477878995E+02  0.94501615964E+02  0.00000000000E+00 0.  1.
         22    1    4    4    0    0 -0.14768129910E+02  0.86636960677E+01 -0.17760046237E+04  0.17760871546E+04  0.00000000000E+00 0.  1.
<mgrwt>
<rscale>  0 0.91540561E+02</rscale>
<asrwt>0</asrwt>
<pdfrwt beam="2">  1        2 0.30107888E+00 0.91540561E+02</pdfrwt>
<pdfrwt beam="1">  1       -2 0.16468731E-03 0.91540561E+02</pdfrwt>
<totfact> 0.19861979E+05</totfact>
</mgrwt>
</event>
<event>
 7    1  0.3337990E-009  0.9367076E+02  0.7818608E-02  0.1294198E+00
         -2   -1    0    0    0  501 -0.00000000000E+00  0.00000000000E+00  0.25338980123E+01  0.25338992954E+01  0.25500000000E-02 0.  1.
          2   -1    0    0  501    0  0.00000000000E+00 -0.00000000000E+00 -0.86568291685E+03  0.86568291685E+03  0.25500000000E-02 0. -1.
         23    2    1    2    0    0  0.44408920985E-15  0.00000000000E+00 -0.86314901883E+03  0.86821681614E+03  0.93670759171E+02 0.  0.
    9000005    2    3    3    0    0  0.33738441099E+01  0.23625702679E+02 -0.80382349213E+03  0.80427094240E+03  0.12246861939E+02 0.  0.
         22    1    3    3    0    0 -0.33738441099E+01 -0.23625702679E+02 -0.59325526699E+02  0.63945873747E+02  0.00000000000E+00 0.  1.
         22    1    4    4    0    0  0.51921453036E+00  0.21418235932E+02 -0.54301260438E+03  0.54343509173E+03  0.00000000000E+00 0. -1.
         22    1    4    4    0    0  0.28546295796E+01  0.22074667466E+01 -0.26081088776E+03  0.26083585067E+03  0.00000000000E+00 0. -1.
<mgrwt>
<rscale>  0 0.93670759E+02</rscale>
<asrwt>0</asrwt>
<pdfrwt beam="2">  1        2 0.13318175E+00 0.93670759E+02</pdfrwt>
<pdfrwt beam="1">  1       -2 0.38983125E-03 0.93670759E+02</pdfrwt>
<totfact> 0.22979652E+05</totfact>
</mgrwt>
</event>
<event>
 7    1  0.3337990E-009  0.9182874E+02  0.7818608E-02  0.1298483E+00
          2   -1    0    0  501    0  0.00000000000E+00  0.00000000000E+00  0.22440349199E+02  0.22440349344E+02  0.25500000000E-02 0. -1.
         -2   -1    0    0    0  501 -0.00000000000E+00 -0.00000000000E+00 -0.93943696200E+02  0.93943696234E+02  0.25500000000E-02 0.  1.
         23    2    1    2    0    0  0.35527136788E-14  0.00000000000E+00 -0.71503347001E+02  0.11638404558E+03  0.91828739689E+02 0.  0.
    9000005    2    3    3    0    0 -0.19037832340E+02 -0.36844758392E+02 -0.16036642022E+02  0.47127055734E+02  0.15614423255E+02 0.  0.
         22    1    3    3    0    0  0.19037832340E+02  0.36844758392E+02 -0.55466704978E+02  0.69256989845E+02  0.00000000000E+00 0.  1.
         22    1    4    4    0    0 -0.13792448450E+02 -0.29290710152E+02 -0.18908109579E+02  0.37492585177E+02  0.00000000000E+00 0. -1.
         22    1    4    4    0    0 -0.52453838893E+01 -0.75540482409E+01  0.28714675566E+01  0.96344705563E+01  0.00000000000E+00 0. -1.
<mgrwt>
<rscale>  0 0.91828740E+02</rscale>
<asrwt>0</asrwt>
<pdfrwt beam="1">  1        2 0.34523615E-02 0.91828740E+02</pdfrwt>
<pdfrwt beam="2">  1       -2 0.14452876E-01 0.91828740E+02</pdfrwt>
<totfact> 0.79864818E+04</totfact>
</mgrwt>
</event>
<event>
 7    1  0.3337990E-009  0.9189576E+02  0.7818608E-02  0.1298325E+00
         -2   -1    0    0    0  501 -0.00000000000E+00  0.00000000000E+00  0.70132372959E+02  0.70132373005E+02  0.25500000000E-02 0.  1.
          2   -1    0    0  501    0  0.00000000000E+00 -0.00000000000E+00 -0.30103185332E+02  0.30103185440E+02  0.25500000000E-02 0. -1.
         23    2    1    2    0    0 -0.88817841970E-15  0.00000000000E+00  0.40029187628E+02  0.10023555845E+03  0.91895763312E+02 0.  0.
    9000005    2    3    3    0    0 -0.63227802514E+01  0.21372012266E+02 -0.23730226469E+02  0.32692954525E+02  0.29941891844E+01 0.  0.
         22    1    3    3    0    0  0.63227802514E+01 -0.21372012266E+02  0.63759414097E+02  0.67542603920E+02  0.00000000000E+00 0.  1.
         22    1    4    4    0    0 -0.77981214308E+00  0.64861369986E+00 -0.79265448250E+00  0.12872870071E+01  0.00000000000E+00 0. -1.
         22    1    4    4    0    0 -0.55429681084E+01  0.20723398566E+02 -0.22937571987E+02  0.31405667517E+02  0.00000000000E+00 0. -1.
<mgrwt>
<rscale>  0 0.91895763E+02</rscale>
<asrwt>0</asrwt>
<pdfrwt beam="2">  1        2 0.46312593E-02 0.91895763E+02</pdfrwt>
<pdfrwt beam="1">  1       -2 0.10789596E-01 0.91895763E+02</pdfrwt>
<totfact> 0.86503870E+04</totfact>
</mgrwt>
</event>
<event>
 6    1  0.3337990E-009  0.1416281E+03  0.7818608E-02  0.1211155E+00
          2   -1    0    0  501    0  0.00000000000E+00  0.00000000000E+00  0.71862013354E+02  0.71862013400E+02  0.25500000000E-02 0. -1.
         -2   -1    0    0    0  501 -0.00000000000E+00 -0.00000000000E+00 -0.69781390523E+02  0.69781390570E+02  0.25500000000E-02 0.  1.
    9000005    2    1    2    0    0  0.13228379731E+02 -0.61520003601E+02  0.31836704745E+02  0.72036469801E+02  0.14696133470E+02 0.  0.
         22    1    1    2    0    0 -0.13228379731E+02  0.61520003601E+02 -0.29756081914E+02  0.69606934168E+02  0.00000000000E+00 0. -1.
         22    1    3    3    0    0  0.48356985406E+01 -0.10285876933E+02  0.46136617955E+00  0.11375240807E+02  0.00000000000E+00 0.  1.
         22    1    3    3    0    0  0.83926811907E+01 -0.51234126668E+02  0.31375338566E+02  0.60661228995E+02  0.00000000000E+00 0.  1.
<mgrwt>
<rscale>  0 0.14162812E+03</rscale>
<asrwt>0</asrwt>
<pdfrwt beam="1">  1        2 0.11055694E-01 0.14162812E+03</pdfrwt>
<pdfrwt beam="2">  1       -2 0.10735599E-01 0.14162812E+03</pdfrwt>
<totfact> 0.30861412E+04</totfact>
</mgrwt>
</event>
<event>
 7    1  0.3337990E-009  0.9112296E+02  0.7818608E-02  0.1300155E+00
          2   -1    0    0  501    0  0.00000000000E+00  0.00000000000E+00  0.69366222017E+02  0.69366222064E+02  0.25500000000E-02 0.  1.
         -2   -1    0    0    0  501 -0.00000000000E+00 -0.00000000000E+00 -0.29925927034E+02  0.29925927143E+02  0.25500000000E-02 0. -1.
         23    2    1    2    0    0 -0.71054273576E-14  0.00000000000E+00  0.39440294983E+02  0.99292149207E+02  0.91122961024E+02 0.  0.
    9000005    2    3    3    0    0  0.33277582938E+02  0.15531443459E+02 -0.79128466899E+01  0.39367669331E+02  0.11771872565E+02 0.  0.
         22    1    3    3    0    0 -0.33277582938E+02 -0.15531443459E+02  0.47353141673E+02  0.59924479876E+02  0.00000000000E+00 0.  1.
         22    1    4    4    0    0 -0.77172016705E+00  0.63888737646E+00 -0.12655835833E+01  0.16141347225E+01  0.00000000000E+00 0.  1.
         22    1    4    4    0    0  0.34049303105E+02  0.14892556082E+02 -0.66472631066E+01  0.37753534608E+02  0.00000000000E+00 0.  1.
<mgrwt>
<rscale>  0 0.91122961E+02</rscale>
<asrwt>0</asrwt>
<pdfrwt beam="1">  1        2 0.10671726E-01 0.91122961E+02</pdfrwt>
<pdfrwt beam="2">  1       -2 0.46039888E-02 0.91122961E+02</pdfrwt>
<totfact> 0.11052429E+05</totfact>
</mgrwt>
</event>
<event>
 7    1  0.3337990E-009  0.9551491E+02  0.7818608E-02  0.1290021E+00
          2   -1    0    0  501    0  0.00000000000E+00  0.00000000000E+00  0.98452394283E+02  0.98452394316E+02  0.25500000000E-02 0.  1.
         -2   -1    0    0    0  501 -0.00000000000E+00 -0.00000000000E+00 -0.23166268411E+02  0.23166268551E+02  0.25500000000E-02 0. -1.
         23    2    1    2    0    0  0.00000000000E+00  0.35527136788E-14  0.75286125872E+02  0.12161866287E+03  0.95514911971E+02 0.  0.
    9000005    2    3    3    0    0 -0.17385825804E+02 -0.29998222684E+02 -0.34855173767E+01  0.35553965789E+02  0.70551646915E+01 0.  0.
         22    1    3    3    0    0  0.17385825804E+02  0.29998222684E+02  0.78771643248E+02  0.86064697078E+02  0.00000000000E+00 0.  1.
         22    1    4    4    0    0 -0.14212588450E+02 -0.28235294483E+02 -0.40894119412E+01  0.31874014730E+02  0.00000000000E+00 0.  1.
         22    1    4    4    0    0 -0.31732373547E+01 -0.17629282015E+01  0.60389456455E+00  0.36799510592E+01  0.00000000000E+00 0.  1.
<mgrwt>
<rscale>  0 0.95514912E+02</rscale>
<asrwt>0</asrwt>
<pdfrwt beam="1">  1        2 0.15146522E-01 0.95514912E+02</pdfrwt>
<pdfrwt beam="2">  1       -2 0.35640414E-02 0.95514912E+02</pdfrwt>
<totfact> 0.10736337E+05</totfact>
</mgrwt>
</event>
<event>
 7    1  0.3337990E-009  0.6893308E+02  0.7818608E-02  0.1363759E+00
         -2   -1    0    0    0  501 -0.00000000000E+00  0.00000000000E+00  0.48948942981E+02  0.48948943047E+02  0.25500000000E-02 0.  1.
          2   -1    0    0  501    0  0.00000000000E+00 -0.00000000000E+00 -0.24269012862E+02  0.24269012996E+02  0.25500000000E-02 0. -1.
         23    2    1    2    0    0  0.00000000000E+00  0.17763568394E-14  0.24679930118E+02  0.73217956044E+02  0.68933084484E+02 0.  0.
    9000005    2    3    3    0    0 -0.28898523532E+02 -0.15512180193E+02  0.12139854668E+02  0.38103772457E+02  0.15125111814E+02 0.  0.
         22    1    3    3    0    0  0.28898523532E+02  0.15512180193E+02  0.12540075450E+02  0.35114183587E+02  0.00000000000E+00 0.  1.
         22    1    4    4    0    0 -0.80940680753E+01  0.26143325559E+01  0.33877255383E+01  0.91556188783E+01  0.00000000000E+00 0.  1.
         22    1    4    4    0    0 -0.20804455457E+02 -0.18126512749E+02  0.87521291297E+01  0.28948153578E+02  0.00000000000E+00 0.  1.
<mgrwt>
<rscale>  0 0.68933084E+02</rscale>
<asrwt>0</asrwt>
<pdfrwt beam="2">  1        2 0.37336943E-02 0.68933084E+02</pdfrwt>
<pdfrwt beam="1">  1       -2 0.75306066E-02 0.68933084E+02</pdfrwt>
<totfact> 0.18897609E+05</totfact>
</mgrwt>
</event>
<event>
 7    1  0.3337990E-009  0.9195022E+02  0.7818608E-02  0.1298197E+00
          2   -1    0    0  501    0  0.00000000000E+00  0.00000000000E+00  0.20416472230E+03  0.20416472232E+03  0.25500000000E-02 0. -1.
         -2   -1    0    0    0  501 -0.00000000000E+00 -0.00000000000E+00 -0.10352968015E+02  0.10352968329E+02  0.25500000000E-02 0.  1.
         23    2    1    2    0    0  0.00000000000E+00  0.00000000000E+00  0.19381175429E+03  0.21451769065E+03  0.91950222950E+02 0.  0.
    9000005    2    3    3    0    0 -0.12974489635E+02 -0.20314011178E+02  0.18796187097E+03  0.18971411094E+03  0.89879097025E+01 0.  0.
         22    1    3    3    0    0  0.12974489635E+02  0.20314011178E+02  0.58498833195E+01  0.24803579706E+02  0.00000000000E+00 0.  1.
         22    1    4    4    0    0 -0.70702907678E+01 -0.17849862515E+02  0.14871743386E+03  0.14995159798E+03  0.00000000000E+00 0. -1.
         22    1    4    4    0    0 -0.59041988669E+01 -0.24641486621E+01  0.39244437106E+02  0.39762512957E+02  0.00000000000E+00 0. -1.
<mgrwt>
<rscale>  0 0.91950223E+02</rscale>
<asrwt>0</asrwt>
<pdfrwt beam="1">  1        2 0.31409958E-01 0.91950223E+02</pdfrwt>
<pdfrwt beam="2">  1       -2 0.15927643E-02 0.91950223E+02</pdfrwt>
<totfact> 0.15233194E+05</totfact>
</mgrwt>
</event>
<event>
 7    1  0.3337990E-009  0.9049584E+02  0.7818608E-02  0.1301655E+00
          2   -1    0    0  501    0  0.00000000000E+00  0.00000000000E+00  0.31203725815E+03  0.31203725816E+03  0.25500000000E-02 0. -1.
         -2   -1    0    0    0  501 -0.00000000000E+00 -0.00000000000E+00 -0.65613128442E+01  0.65613133397E+01  0.25500000000E-02 0.  1.
         23    2    1    2    0    0  0.00000000000E+00  0.71054273576E-14  0.30547594530E+03  0.31859857150E+03  0.90495837480E+02 0.  0.
    9000005    2    3    3    0    0 -0.25840254658E+02  0.33413069044E+02  0.20390283876E+03  0.20859289929E+03  0.12266949031E+02 0.  0.
         22    1    3    3    0    0  0.25840254658E+02 -0.33413069044E+02  0.10157310654E+03  0.11000567220E+03  0.00000000000E+00 0.  1.
         22    1    4    4    0    0 -0.82580601242E+01  0.17255013225E+02  0.69465529802E+02  0.72051307199E+02  0.00000000000E+00 0. -1.
         22    1    4    4    0    0 -0.17582194533E+02  0.16158055819E+02  0.13443730895E+03  0.13654159209E+03  0.00000000000E+00 0. -1.
<mgrwt>
<rscale>  0 0.90495837E+02</rscale>
<asrwt>0</asrwt>
<pdfrwt beam="1">  1        2 0.48005724E-01 0.90495837E+02</pdfrwt>
<pdfrwt beam="2">  1       -2 0.10094329E-02 0.90495837E+02</pdfrwt>
<totfact> 0.18598582E+05</totfact>
</mgrwt>
</event>
<event>
 7    1  0.3337990E-009  0.9019624E+02  0.7818608E-02  0.1302377E+00
          2   -1    0    0  501    0  0.00000000000E+00  0.00000000000E+00  0.87926228869E+01  0.87926232567E+01  0.25500000000E-02 0. -1.
         -2   -1    0    0    0  501 -0.00000000000E+00 -0.00000000000E+00 -0.23131215649E+03  0.23131215651E+03  0.25500000000E-02 0.  1.
         23    2    1    2    0    0  0.00000000000E+00  0.00000000000E+00 -0.22251953361E+03  0.24010477977E+03  0.90196243986E+02 0.  0.
    9000005    2    3    3    0    0 -0.22455000006E+02 -0.34890974702E+02 -0.15719296237E+03  0.16271506436E+03  0.67050436201E+01 0.  0.
         22    1    3    3    0    0  0.22455000006E+02  0.34890974702E+02 -0.65326571235E+02  0.77389715403E+02  0.00000000000E+00 0. -1.
         22    1    4    4    0    0 -0.82885811597E+01 -0.14381933481E+02 -0.50887640928E+02  0.53526559646E+02  0.00000000000E+00 0. -1.
         22    1    4    4    0    0 -0.14166418846E+02 -0.20509041220E+02 -0.10630532144E+03  0.10918850472E+03  0.00000000000E+00 0. -1.
<mgrwt>
<rscale>  0 0.90196244E+02</rscale>
<asrwt>0</asrwt>
<pdfrwt beam="1">  1        2 0.13527114E-02 0.90196244E+02</pdfrwt>
<pdfrwt beam="2">  1       -2 0.35586481E-01 0.90196244E+02</pdfrwt>
<totfact> 0.59979959E+04</totfact>
</mgrwt>
</event>
<event>
 7    1  0.3337990E-009  0.9219394E+02  0.7818608E-02  0.1297624E+00
          2   -1    0    0  501    0  0.00000000000E+00  0.00000000000E+00  0.50964520933E+02  0.50964520996E+02  0.25500000000E-02 0. -1.
         -2   -1    0    0    0  501 -0.00000000000E+00 -0.00000000000E+00 -0.41694314674E+02  0.41694314752E+02  0.25500000000E-02 0.  1.
         23    2    1    2    0    0 -0.88817841970E-15  0.00000000000E+00  0.92702062590E+01  0.92658835748E+02  0.92193942958E+02 0.  0.
    9000005    2    3    3    0    0  0.73065801633E+01 -0.93879410526E+01 -0.39465404624E+02  0.42492319833E+02  0.10322767640E+02 0.  0.
         22    1    3    3    0    0 -0.73065801633E+01  0.93879410526E+01  0.48735610883E+02  0.50166515915E+02  0.00000000000E+00 0. -1.
         22    1    4    4    0    0  0.55656991305E+01 -0.62616672269E+01 -0.11123580972E+02  0.13925499521E+02  0.00000000000E+00 0. -1.
         22    1    4    4    0    0  0.17408810329E+01 -0.31262738257E+01 -0.28341823652E+02  0.28566820312E+02  0.00000000000E+00 0. -1.
<mgrwt>
<rscale>  0 0.92193943E+02</rscale>
<asrwt>0</asrwt>
<pdfrwt beam="1">  1        2 0.78406955E-02 0.92193943E+02</pdfrwt>
<pdfrwt beam="2">  1       -2 0.64145100E-02 0.92193943E+02</pdfrwt>
<totfact> 0.98417362E+04</totfact>
</mgrwt>
</event>
<event>
 7    1  0.3337990E-009  0.9121941E+02  0.7818608E-02  0.1299925E+00
         -2   -1    0    0    0  501 -0.00000000000E+00  0.00000000000E+00  0.21867126943E+03  0.21867126945E+03  0.25500000000E-02 0.  1.
          2   -1    0    0  501    0  0.00000000000E+00 -0.00000000000E+00 -0.95131155896E+01  0.95131159314E+01  0.25500000000E-02 0. -1.
         23    2    1    2    0    0 -0.44408920985E-15  0.00000000000E+00  0.20915815384E+03  0.22818438538E+03  0.91219408087E+02 0.  0.
    9000005    2    3    3    0    0  0.27694235053E+01  0.40642408099E+02  0.15509209866E+03  0.16048938286E+03  0.66187538128E+01 0.  0.
         22    1    3    3    0    0 -0.27694235053E+01 -0.40642408099E+02  0.54066055180E+02  0.67695002514E+02  0.00000000000E+00 0. -1.
         22    1    4    4    0    0  0.22663293559E+01  0.16026630680E+02  0.50131647079E+02  0.52679893494E+02  0.00000000000E+00 0. -1.
         22    1    4    4    0    0  0.50309414937E+00  0.24615777419E+02  0.10496045158E+03  0.10780948937E+03  0.00000000000E+00 0. -1.
<mgrwt>
<rscale>  0 0.91219408E+02</rscale>
<asrwt>0</asrwt>
<pdfrwt beam="2">  1        2 0.14635564E-02 0.91219408E+02</pdfrwt>
<pdfrwt beam="1">  1       -2 0.33641731E-01 0.91219408E+02</pdfrwt>
<totfact> 0.59819421E+04</totfact>
</mgrwt>
</event>
<event>
 7    1  0.3337990E-009  0.9111770E+02  0.7818608E-02  0.1300167E+00
         -2   -1    0    0    0  501 -0.00000000000E+00  0.00000000000E+00  0.12611304711E+02  0.12611304968E+02  0.25500000000E-02 0.  1.
          2   -1    0    0  501    0  0.00000000000E+00 -0.00000000000E+00 -0.16458319626E+03  0.16458319628E+03  0.25500000000E-02 0. -1.
         23    2    1    2    0    0 -0.71054273576E-14 -0.35527136788E-14 -0.15197189155E+03  0.17719450125E+03  0.91117701087E+02 0.  0.
    9000005    2    3    3    0    0  0.33207515865E+02  0.29781728744E+02 -0.91230646175E+02  0.10183410471E+03  0.75804751400E+01 0.  0.
         22    1    3    3    0    0 -0.33207515865E+02 -0.29781728744E+02 -0.60741245373E+02  0.75360396538E+02  0.00000000000E+00 0.  1.
         22    1    4    4    0    0  0.21069585108E+02  0.23352879995E+02 -0.65811382796E+02  0.72941226520E+02  0.00000000000E+00 0. -1.
         22    1    4    4    0    0  0.12137930757E+02  0.64288487495E+01 -0.25419263379E+02  0.28892878189E+02  0.00000000000E+00 0. -1.
<mgrwt>
<rscale>  0 0.91117701E+02</rscale>
<asrwt>0</asrwt>
<pdfrwt beam="2">  1        2 0.25320490E-01 0.91117701E+02</pdfrwt>
<pdfrwt beam="1">  1       -2 0.19402009E-02 0.91117701E+02</pdfrwt>
<totfact> 0.14459450E+05</totfact>
</mgrwt>
</event>
<event>
 7    1  0.3337990E-009  0.9924934E+02  0.7818608E-02  0.1281882E+00
         -2   -1    0    0    0  501 -0.00000000000E+00  0.00000000000E+00  0.45432806989E+02  0.45432807061E+02  0.25500000000E-02 0.  1.
          2   -1    0    0  501    0  0.00000000000E+00 -0.00000000000E+00 -0.54203295612E+02  0.54203295672E+02  0.25500000000E-02 0. -1.
         23    2    1    2    0    0  0.71054273576E-14  0.00000000000E+00 -0.87704886221E+01  0.99636102733E+02  0.99249340033E+02 0.  0.
    9000005    2    3    3    0    0  0.42971223163E+02  0.62950039201E+01  0.18561184154E+02  0.48321646376E+02  0.10213268666E+02 0.  0.
         22    1    3    3    0    0 -0.42971223163E+02 -0.62950039201E+01 -0.27331672776E+02  0.51314456357E+02  0.00000000000E+00 0. -1.
         22    1    4    4    0    0  0.35208705378E+02  0.13393670807E+01  0.12957189341E+02  0.37541118712E+02  0.00000000000E+00 0. -1.
         22    1    4    4    0    0  0.77625177849E+01  0.49556368394E+01  0.56039948131E+01  0.10780527664E+02  0.00000000000E+00 0. -1.
<mgrwt>
<rscale>  0 0.99249340E+02</rscale>
<asrwt>0</asrwt>
<pdfrwt beam="2">  1        2 0.83389685E-02 0.99249340E+02</pdfrwt>
<pdfrwt beam="1">  1       -2 0.69896626E-02 0.99249340E+02</pdfrwt>
<totfact> 0.80977993E+04</totfact>
</mgrwt>
</event>
<event>
 7    1  0.3337990E-009  0.8286296E+02  0.7818608E-02  0.1321118E+00
         -2   -1    0    0    0  501 -0.00000000000E+00  0.00000000000E+00  0.18167182232E+01  0.18167200128E+01  0.25500000000E-02 0.  1.
          2   -1    0    0  501    0  0.00000000000E+00 -0.00000000000E+00 -0.94487222756E+03  0.94487222757E+03  0.25500000000E-02 0. -1.
         23    2    1    2    0    0  0.00000000000E+00  0.00000000000E+00 -0.94305550934E+03  0.94668894758E+03  0.82862957783E+02 0.  0.
    9000005    2    3    3    0    0 -0.97713988508E+01  0.20495124466E+02 -0.86688029481E+03  0.86720188152E+03  0.64905636117E+01 0.  0.
         22    1    3    3    0    0  0.97713988508E+01 -0.20495124466E+02 -0.76175214532E+02  0.79487066063E+02  0.00000000000E+00 0.  1.
         22    1    4    4    0    0 -0.45410041938E+01  0.96661433224E+01 -0.52864160597E+03  0.52874947055E+03  0.00000000000E+00 0.  1.
         22    1    4    4    0    0 -0.52303946570E+01  0.10828981144E+02 -0.33823868884E+03  0.33845241097E+03  0.00000000000E+00 0.  1.
<mgrwt>
<rscale>  0 0.82862958E+02</rscale>
<asrwt>0</asrwt>
<pdfrwt beam="2">  1        2 0.14536457E+00 0.82862958E+02</pdfrwt>
<pdfrwt beam="1">  1       -2 0.27949600E-03 0.82862958E+02</pdfrwt>
<totfact> 0.32005979E+05</totfact>
</mgrwt>
</event>
<event>
 7    1  0.3337990E-009  0.9192389E+02  0.7818608E-02  0.1298258E+00
         -2   -1    0    0    0  501 -0.00000000000E+00  0.00000000000E+00  0.34502444708E+02  0.34502444802E+02  0.25500000000E-02 0.  1.
          2   -1    0    0  501    0  0.00000000000E+00 -0.00000000000E+00 -0.61227552843E+02  0.61227552896E+02  0.25500000000E-02 0. -1.
         23    2    1    2    0    0  0.00000000000E+00  0.00000000000E+00 -0.26725108134E+02  0.95729997698E+02  0.91923887290E+02 0.  0.
    9000005    2    3    3    0    0 -0.29386195330E+01 -0.32496852908E+02 -0.46888663506E+02  0.57373122188E+02  0.53336151485E+01 0.  0.
         22    1    3    3    0    0  0.29386195330E+01  0.32496852908E+02  0.20163555372E+02  0.38356875510E+02  0.00000000000E+00 0.  1.
         22    1    4    4    0    0 -0.69208186669E+00 -0.25582508195E+02 -0.38982963212E+02  0.46632768775E+02  0.00000000000E+00 0. -1.
         22    1    4    4    0    0 -0.22465376663E+01 -0.69143447129E+01 -0.79057002945E+01  0.10740353413E+02  0.00000000000E+00 0. -1.
<mgrwt>
<rscale>  0 0.91923887E+02</rscale>
<asrwt>0</asrwt>
<pdfrwt beam="2">  1        2 0.94196235E-02 0.91923887E+02</pdfrwt>
<pdfrwt beam="1">  1       -2 0.53080684E-02 0.91923887E+02</pdfrwt>
<totfact> 0.10422034E+05</totfact>
</mgrwt>
</event>
<event>
 7    1  0.3337990E-009  0.9069883E+02  0.7818608E-02  0.1301168E+00
         -2   -1    0    0    0  501 -0.00000000000E+00  0.00000000000E+00  0.45417341882E+02  0.45417341953E+02  0.25500000000E-02 0.  1.
          2   -1    0    0  501    0  0.00000000000E+00 -0.00000000000E+00 -0.45281586263E+02  0.45281586335E+02  0.25500000000E-02 0. -1.
         23    2    1    2    0    0  0.00000000000E+00  0.00000000000E+00  0.13575561866E+00  0.90698928288E+02  0.90698826691E+02 0.  0.
    9000005    2    3    3    0    0  0.17108509177E+02  0.21323417387E+02  0.35851730006E+02  0.45720933205E+02  0.75939432039E+01 0.  0.
         22    1    3    3    0    0 -0.17108509177E+02 -0.21323417387E+02 -0.35715974387E+02  0.44977995084E+02  0.00000000000E+00 0. -1.
         22    1    4    4    0    0  0.88016307473E+01  0.62080559824E+01  0.17396053443E+02  0.20460482357E+02  0.00000000000E+00 0.  1.
         22    1    4    4    0    0  0.83068784292E+01  0.15115361404E+02  0.18455676563E+02  0.25260450848E+02  0.00000000000E+00 0.  1.
<mgrwt>
<rscale>  0 0.90698827E+02</rscale>
<asrwt>0</asrwt>
<pdfrwt beam="2">  1        2 0.69663979E-02 0.90698827E+02</pdfrwt>
<pdfrwt beam="1">  1       -2 0.69872834E-02 0.90698827E+02</pdfrwt>
<totfact> 0.99998262E+04</totfact>
</mgrwt>
</event>
<event>
 7    1  0.3337990E-009  0.8743510E+02  0.7818608E-02  0.1309185E+00
          2   -1    0    0  501    0  0.00000000000E+00  0.00000000000E+00  0.27479217235E+03  0.27479217236E+03  0.25500000000E-02 0. -1.
         -2   -1    0    0    0  501 -0.00000000000E+00 -0.00000000000E+00 -0.69551614589E+01  0.69551619264E+01  0.25500000000E-02 0.  1.
         23    2    1    2    0    0  0.00000000000E+00 -0.17763568394E-14  0.26783701089E+03  0.28174733429E+03  0.87435095788E+02 0.  0.
    9000005    2    3    3    0    0  0.33805536749E+02 -0.12365704206E+02  0.21182865350E+03  0.21516910171E+03  0.11429738930E+02 0.  0.
         22    1    3    3    0    0 -0.33805536749E+02  0.12365704206E+02  0.56008357389E+02  0.66578232575E+02  0.00000000000E+00 0.  1.
         22    1    4    4    0    0  0.27240096299E+01 -0.40886584730E+01  0.16716920688E+02  0.17423914424E+02  0.00000000000E+00 0. -1.
         22    1    4    4    0    0  0.31081527119E+02 -0.82770457334E+01  0.19511173282E+03  0.19774518729E+03  0.00000000000E+00 0. -1.
<mgrwt>
<rscale>  0 0.87435096E+02</rscale>
<asrwt>0</asrwt>
<pdfrwt beam="1">  1        2 0.42275724E-01 0.87435096E+02</pdfrwt>
<pdfrwt beam="2">  1       -2 0.10700248E-02 0.87435096E+02</pdfrwt>
<totfact> 0.19441746E+05</totfact>
</mgrwt>
</event>
<event>
 7    1  0.3337990E-009  0.9057985E+02  0.7818608E-02  0.1301454E+00
          2   -1    0    0  501    0  0.00000000000E+00  0.00000000000E+00  0.15091983471E+03  0.15091983474E+03  0.25500000000E-02 0. -1.
         -2   -1    0    0    0  501 -0.00000000000E+00 -0.00000000000E+00 -0.13591170694E+02  0.13591170933E+02  0.25500000000E-02 0.  1.
         23    2    1    2    0    0  0.00000000000E+00  0.35527136788E-14  0.13732866402E+03  0.16451100567E+03  0.90579848888E+02 0.  0.
    9000005    2    3    3    0    0 -0.28084054269E+02  0.29016038114E+02  0.38415919581E+02  0.57672924515E+02  0.14823588394E+02 0.  0.
         22    1    3    3    0    0  0.28084054269E+02 -0.29016038114E+02  0.98912744440E+02  0.10683808115E+03  0.00000000000E+00 0. -1.
         22    1    4    4    0    0 -0.22877215704E+02  0.22279775854E+02  0.37274041496E+02  0.49082681059E+02  0.00000000000E+00 0. -1.
         22    1    4    4    0    0 -0.52068385643E+01  0.67362622603E+01  0.11418780846E+01  0.85902434561E+01  0.00000000000E+00 0. -1.
<mgrwt>
<rscale>  0 0.90579849E+02</rscale>
<asrwt>0</asrwt>
<pdfrwt beam="1">  1        2 0.23218435E-01 0.90579849E+02</pdfrwt>
<pdfrwt beam="2">  1       -2 0.20909494E-02 0.90579849E+02</pdfrwt>
<totfact> 0.14261859E+05</totfact>
</mgrwt>
</event>
<event>
 7    1  0.3337990E-009  0.1189205E+03  0.7818608E-02  0.1244889E+00
          2   -1    0    0  501    0  0.00000000000E+00  0.00000000000E+00  0.93166398736E+02  0.93166398771E+02  0.25500000000E-02 0. -1.
         -2   -1    0    0    0  501 -0.00000000000E+00 -0.00000000000E+00 -0.37948477910E+02  0.37948477995E+02  0.25500000000E-02 0.  1.
         23    2    1    2    0    0  0.00000000000E+00  0.00000000000E+00  0.55217920826E+02  0.13111487677E+03  0.11892052863E+03 0.  0.
    9000005    2    3    3    0    0  0.43713434136E+02 -0.11293314869E+02  0.69422913358E+02  0.83784283092E+02  0.12722496196E+02 0.  0.
         22    1    3    3    0    0 -0.43713434136E+02  0.11293314869E+02 -0.14204992532E+02  0.47330593674E+02  0.00000000000E+00 0.  1.
         22    1    4    4    0    0  0.40749348532E+02 -0.10301323320E+02  0.68760345865E+02  0.80589154552E+02  0.00000000000E+00 0.  1.
         22    1    4    4    0    0  0.29640856046E+01 -0.99199154922E+00  0.66256749246E+00  0.31951285400E+01  0.00000000000E+00 0.  1.
<mgrwt>
<rscale>  0 0.11892053E+03</rscale>
<asrwt>0</asrwt>
<pdfrwt beam="1">  1        2 0.14333292E-01 0.11892053E+03</pdfrwt>
<pdfrwt beam="2">  1       -2 0.58382275E-02 0.11892053E+03</pdfrwt>
<totfact> 0.56737869E+04</totfact>
</mgrwt>
</event>
<event>
 7    1  0.3337990E-009  0.8949871E+02  0.7818608E-02  0.1304070E+00
          2   -1    0    0  501    0  0.00000000000E+00  0.00000000000E+00  0.11914067352E+03  0.11914067355E+03  0.25500000000E-02 0. -1.
         -2   -1    0    0    0  501 -0.00000000000E+00 -0.00000000000E+00 -0.16807902772E+02  0.16807902965E+02  0.25500000000E-02 0.  1.
         23    2    1    2    0    0  0.35527136788E-14  0.00000000000E+00  0.10233277075E+03  0.13594857651E+03  0.89498712207E+02 0.  0.
    9000005    2    3    3    0    0  0.26730161873E+02  0.34714794598E+02  0.37457282795E+02  0.57664175417E+02  0.15781553699E+01 0.  0.
         22    1    3    3    0    0 -0.26730161873E+02 -0.34714794598E+02  0.64875487953E+02  0.78284401095E+02  0.00000000000E+00 0.  1.
         22    1    4    4    0    0  0.26034008998E+02  0.33335759830E+02  0.36141716926E+02  0.55635116701E+02  0.00000000000E+00 0.  1.
         22    1    4    4    0    0  0.69615287444E+00  0.13790347685E+01  0.13155658689E+01  0.20290587159E+01  0.00000000000E+00 0.  1.
<mgrwt>
<rscale>  0 0.89498712E+02</rscale>
<asrwt>0</asrwt>
<pdfrwt beam="1">  1        2 0.18329335E-01 0.89498712E+02</pdfrwt>
<pdfrwt beam="2">  1       -2 0.25858312E-02 0.89498712E+02</pdfrwt>
<totfact> 0.13630398E+05</totfact>
</mgrwt>
</event>
<event>
 7    1  0.3337990E-009  0.9184195E+02  0.7818608E-02  0.1298451E+00
          2   -1    0    0  501    0  0.00000000000E+00  0.00000000000E+00  0.39339610197E+02  0.39339610279E+02  0.25500000000E-02 0. -1.
         -2   -1    0    0    0  501 -0.00000000000E+00 -0.00000000000E+00 -0.53603373256E+02  0.53603373317E+02  0.25500000000E-02 0.  1.
         23    2    1    2    0    0 -0.35527136788E-14  0.35527136788E-14 -0.14263763059E+02  0.92942983596E+02  0.91841947187E+02 0.  0.
    9000005    2    3    3    0    0  0.31563599118E+02 -0.21872555855E+02  0.15587164813E+02  0.44304034350E+02  0.15659446475E+02 0.  0.
         22    1    3    3    0    0 -0.31563599118E+02  0.21872555855E+02 -0.29850927872E+02  0.48638949246E+02  0.00000000000E+00 0.  1.
         22    1    4    4    0    0  0.28526546367E+02 -0.24385543871E+02  0.14180719574E+02  0.40118716394E+02  0.00000000000E+00 0.  1.
         22    1    4    4    0    0  0.30370527510E+01  0.25129880159E+01  0.14064452390E+01  0.41853179558E+01  0.00000000000E+00 0.  1.
<mgrwt>
<rscale>  0 0.91841947E+02</rscale>
<asrwt>0</asrwt>
<pdfrwt beam="1">  1        2 0.60522477E-02 0.91841947E+02</pdfrwt>
<pdfrwt beam="2">  1       -2 0.82466728E-02 0.91841947E+02</pdfrwt>
<totfact> 0.92993571E+04</totfact>
</mgrwt>
</event>
<event>
 7    1  0.3337990E-009  0.9467026E+02  0.7818608E-02  0.1291920E+00
         -2   -1    0    0    0  501 -0.00000000000E+00  0.00000000000E+00  0.50656130061E+01  0.50656136479E+01  0.25500000000E-02 0.  1.
          2   -1    0    0  501    0  0.00000000000E+00 -0.00000000000E+00 -0.44231854287E+03  0.44231854287E+03  0.25500000000E-02 0. -1.
         23    2    1    2    0    0  0.00000000000E+00  0.00000000000E+00 -0.43725292986E+03  0.44738415652E+03  0.94670263732E+02 0.  0.
    9000005    2    3    3    0    0  0.33114681901E+02  0.11912994092E+02 -0.36806403829E+03  0.36975939049E+03  0.35169564935E+01 0.  0.
         22    1    3    3    0    0 -0.33114681901E+02 -0.11912994092E+02 -0.69188891565E+02  0.77624766032E+02  0.00000000000E+00 0.  1.
         22    1    4    4    0    0  0.32903473585E+02  0.11814107391E+02 -0.36731320537E+03  0.36897317321E+03  0.00000000000E+00 0. -1.
         22    1    4    4    0    0  0.21120831604E+00  0.98886700752E-01 -0.75083292105E+00  0.78621727766E+00  0.00000000000E+00 0. -1.
<mgrwt>
<rscale>  0 0.94670264E+02</rscale>
<asrwt>0</asrwt>
<pdfrwt beam="2">  1        2 0.68048976E-01 0.94670264E+02</pdfrwt>
<pdfrwt beam="1">  1       -2 0.77932548E-03 0.94670264E+02</pdfrwt>
<totfact> 0.18714664E+05</totfact>
</mgrwt>
</event>
<event>
 7    1  0.3337990E-009  0.9277031E+02  0.7818608E-02  0.1296278E+00
          2   -1    0    0  501    0  0.00000000000E+00  0.00000000000E+00  0.60424326070E+03  0.60424326070E+03  0.25500000000E-02 0.  1.
         -2   -1    0    0    0  501 -0.00000000000E+00 -0.00000000000E+00 -0.35607881794E+01  0.35607890924E+01  0.25500000000E-02 0. -1.
         23    2    1    2    0    0  0.49960036108E-15  0.00000000000E+00  0.60068247252E+03  0.60780404979E+03  0.92770308596E+02 0.  0.
    9000005    2    3    3    0    0  0.37060417853E+00 -0.21335115133E+02  0.56895465740E+03  0.56956821925E+03  0.15595823775E+02 0.  0.
         22    1    3    3    0    0 -0.37060417853E+00  0.21335115133E+02  0.31727815119E+02  0.38235830545E+02  0.00000000000E+00 0. -1.
         22    1    4    4    0    0  0.52898157096E+01 -0.20769201279E+02  0.44838709673E+03  0.44889902026E+03  0.00000000000E+00 0.  1.
         22    1    4    4    0    0 -0.49192115311E+01 -0.56591385451E+00  0.12056756066E+03  0.12066919899E+03  0.00000000000E+00 0.  1.
<mgrwt>
<rscale>  0 0.92770309E+02</rscale>
<asrwt>0</asrwt>
<pdfrwt beam="1">  1        2 0.92960503E-01 0.92770309E+02</pdfrwt>
<pdfrwt beam="2">  1       -2 0.54781363E-03 0.92770309E+02</pdfrwt>
<totfact> 0.21808000E+05</totfact>
</mgrwt>
</event>
<event>
 7    1  0.3337990E-009  0.7599729E+02  0.7818608E-02  0.1340810E+00
         -2   -1    0    0    0  501 -0.00000000000E+00  0.00000000000E+00  0.53265764977E+01  0.53265771081E+01  0.25500000000E-02 0.  1.
          2   -1    0    0  501    0  0.00000000000E+00 -0.00000000000E+00 -0.27107412112E+03  0.27107412113E+03  0.25500000000E-02 0. -1.
         23    2    1    2    0    0  0.00000000000E+00  0.00000000000E+00 -0.26574754462E+03  0.27640069824E+03  0.75997292812E+02 0.  0.
    9000005    2    3    3    0    0 -0.12912281964E+02  0.26277233939E+02 -0.22048997138E+03  0.22249830511E+03  0.56963365440E+01 0.  0.
         22    1    3    3    0    0  0.12912281964E+02 -0.26277233939E+02 -0.45257573241E+02  0.53902393125E+02  0.00000000000E+00 0.  1.
         22    1    4    4    0    0 -0.10741912804E+02  0.17578900647E+02 -0.16640241568E+03  0.16767280752E+03  0.00000000000E+00 0. -1.
         22    1    4    4    0    0 -0.21703691592E+01  0.86983332921E+01 -0.54087555702E+02  0.54825497592E+02  0.00000000000E+00 0. -1.
<mgrwt>
<rscale>  0 0.75997293E+02</rscale>
<asrwt>0</asrwt>
<pdfrwt beam="2">  1        2 0.41703700E-01 0.75997293E+02</pdfrwt>
<pdfrwt beam="1">  1       -2 0.81947357E-03 0.75997293E+02</pdfrwt>
<totfact> 0.28007036E+05</totfact>
</mgrwt>
</event>
<event>
 7    1  0.3337990E-009  0.9164326E+02  0.7818608E-02  0.1298920E+00
         -2   -1    0    0    0  501 -0.00000000000E+00  0.00000000000E+00  0.30563442427E+03  0.30563442428E+03  0.25500000000E-02 0.  1.
          2   -1    0    0  501    0  0.00000000000E+00 -0.00000000000E+00 -0.68697156244E+01  0.68697160977E+01  0.25500000000E-02 0. -1.
         23    2    1    2    0    0 -0.17763568394E-14  0.00000000000E+00  0.29876470864E+03  0.31250414037E+03  0.91643257370E+02 0.  0.
    9000005    2    3    3    0    0  0.15302409410E+02  0.34451949839E+02  0.23489189523E+03  0.23833651351E+03  0.14456508781E+02 0.  0.
         22    1    3    3    0    0 -0.15302409410E+02 -0.34451949839E+02  0.63872813409E+02  0.74167626862E+02  0.00000000000E+00 0. -1.
         22    1    4    4    0    0  0.46633028224E+01  0.57142236906E+01  0.20934094298E+02  0.22195383521E+02  0.00000000000E+00 0.  1.
         22    1    4    4    0    0  0.10639106588E+02  0.28737726148E+02  0.21395780093E+03  0.21614112999E+03  0.00000000000E+00 0.  1.
<mgrwt>
<rscale>  0 0.91643257E+02</rscale>
<asrwt>0</asrwt>
<pdfrwt beam="2">  1        2 0.10568790E-02 0.91643257E+02</pdfrwt>
<pdfrwt beam="1">  1       -2 0.47020696E-01 0.91643257E+02</pdfrwt>
<totfact> 0.49807663E+04</totfact>
</mgrwt>
</event>
<event>
 7    1  0.3337990E-009  0.9122175E+02  0.7818608E-02  0.1299920E+00
         -2   -1    0    0    0  501 -0.00000000000E+00  0.00000000000E+00  0.29108265423E+03  0.29108265424E+03  0.25500000000E-02 0.  1.
          2   -1    0    0  501    0  0.00000000000E+00 -0.00000000000E+00 -0.71469447086E+01  0.71469451635E+01  0.25500000000E-02 0. -1.
         23    2    1    2    0    0  0.00000000000E+00  0.00000000000E+00  0.28393570952E+03  0.29822959940E+03  0.91221745322E+02 0.  0.
    9000005    2    3    3    0    0  0.55082838054E+00  0.21646432644E+02  0.27251996517E+03  0.27375122778E+03  0.14273466215E+02 0.  0.
         22    1    3    3    0    0 -0.55082838054E+00 -0.21646432644E+02  0.11415744348E+02  0.24478371619E+02  0.00000000000E+00 0. -1.
         22    1    4    4    0    0  0.58764586501E+00  0.86640850837E+01  0.19158011386E+03  0.19177682791E+03  0.00000000000E+00 0.  1.
         22    1    4    4    0    0 -0.36817484463E-01  0.12982347560E+02  0.80939851311E+02  0.81974399870E+02  0.00000000000E+00 0.  1.
<mgrwt>
<rscale>  0 0.91221745E+02</rscale>
<asrwt>0</asrwt>
<pdfrwt beam="2">  1        2 0.10995303E-02 0.91221745E+02</pdfrwt>
<pdfrwt beam="1">  1       -2 0.44781934E-01 0.91221745E+02</pdfrwt>
<totfact> 0.51799742E+04</totfact>
</mgrwt>
</event>
<event>
 7    1  0.3337990E-009  0.9040960E+02  0.7818608E-02  0.1301863E+00
         -2   -1    0    0    0  501 -0.00000000000E+00  0.00000000000E+00  0.59902334244E+02  0.59902334298E+02  0.25500000000E-02 0.  1.
          2   -1    0    0  501    0  0.00000000000E+00 -0.00000000000E+00 -0.34113423996E+02  0.34113424091E+02  0.25500000000E-02 0. -1.
         23    2    1    2    0    0  0.88817841970E-15  0.00000000000E+00  0.25788910248E+02  0.94015758389E+02  0.90409595363E+02 0.  0.
    9000005    2    3    3    0    0  0.76044226879E+01 -0.43451350702E+02  0.10096849482E+02  0.47196020101E+02  0.13404134501E+02 0.  0.
         22    1    3    3    0    0 -0.76044226879E+01  0.43451350702E+02  0.15692060766E+02  0.46819738288E+02  0.00000000000E+00 0.  1.
         22    1    4    4    0    0  0.10107054984E+02 -0.41691638228E+02  0.10337515898E+02  0.44127196756E+02  0.00000000000E+00 0.  1.
         22    1    4    4    0    0 -0.25026322965E+01 -0.17597124737E+01 -0.24066641626E+00  0.30688233454E+01  0.00000000000E+00 0.  1.
<mgrwt>
<rscale>  0 0.90409595E+02</rscale>
<asrwt>0</asrwt>
<pdfrwt beam="2">  1        2 0.52482192E-02 0.90409595E+02</pdfrwt>
<pdfrwt beam="1">  1       -2 0.92157436E-02 0.90409595E+02</pdfrwt>
<totfact> 0.93815568E+04</totfact>
</mgrwt>
</event>
<event>
 7    1  0.3337990E-009  0.9027318E+02  0.7818608E-02  0.1302191E+00
          2   -1    0    0  501    0  0.00000000000E+00  0.00000000000E+00  0.94153177466E+03  0.94153177466E+03  0.25500000000E-02 0. -1.
         -2   -1    0    0    0  501 -0.00000000000E+00 -0.00000000000E+00 -0.21638261408E+01  0.21638276433E+01  0.25500000000E-02 0.  1.
         23    2    1    2    0    0  0.35527136788E-14  0.00000000000E+00  0.93936794852E+03  0.94369560231E+03  0.90273180447E+02 0.  0.
    9000005    2    3    3    0    0  0.17812592910E+02  0.23870735354E+02  0.81905868718E+03  0.81975441127E+03  0.15907899716E+02 0.  0.
         22    1    3    3    0    0 -0.17812592910E+02 -0.23870735354E+02  0.12030926134E+03  0.12394119104E+03  0.00000000000E+00 0.  1.
         22    1    4    4    0    0  0.19154269570E+02  0.25313315368E+02  0.75926841493E+03  0.75993169160E+03  0.00000000000E+00 0. -1.
         22    1    4    4    0    0 -0.13416766606E+01 -0.14425800140E+01  0.59790272247E+02  0.59822719670E+02  0.00000000000E+00 0. -1.
<mgrwt>
<rscale>  0 0.90273180E+02</rscale>
<asrwt>0</asrwt>
<pdfrwt beam="1">  1        2 0.14485117E+00 0.90273180E+02</pdfrwt>
<pdfrwt beam="2">  1       -2 0.33289614E-03 0.90273180E+02</pdfrwt>
<totfact> 0.25566245E+05</totfact>
</mgrwt>
</event>
<event>
 7    1  0.3337990E-009  0.9213344E+02  0.7818608E-02  0.1297766E+00
          2   -1    0    0  501    0  0.00000000000E+00  0.00000000000E+00  0.44563584554E+02  0.44563584627E+02  0.25500000000E-02 0. -1.
         -2   -1    0    0    0  501 -0.00000000000E+00 -0.00000000000E+00 -0.47620557956E+02  0.47620558024E+02  0.25500000000E-02 0.  1.
         23    2    1    2    0    0  0.00000000000E+00  0.00000000000E+00 -0.30569734022E+01  0.92184142651E+02  0.92133441648E+02 0.  0.
    9000005    2    3    3    0    0 -0.36127847664E+02  0.21526695378E+02  0.17092022045E+02  0.45551514499E+02  0.37660675554E+01 0.  0.
         22    1    3    3    0    0  0.36127847664E+02 -0.21526695378E+02 -0.20148995447E+02  0.46632628151E+02  0.00000000000E+00 0.  1.
         22    1    4    4    0    0 -0.30424020573E+02  0.17215256946E+02  0.12887083726E+02  0.37256717871E+02  0.00000000000E+00 0. -1.
         22    1    4    4    0    0 -0.57038270911E+01  0.43114384325E+01  0.42049383186E+01  0.82947966284E+01  0.00000000000E+00 0. -1.
<mgrwt>
<rscale>  0 0.92133442E+02</rscale>
<asrwt>0</asrwt>
<pdfrwt beam="1">  1        2 0.68559361E-02 0.92133442E+02</pdfrwt>
<pdfrwt beam="2">  1       -2 0.73262397E-02 0.92133442E+02</pdfrwt>
<totfact> 0.95189514E+04</totfact>
</mgrwt>
</event>
<event>
 6    1  0.3337990E-009  0.1908839E+03  0.7818608E-02  0.1157666E+00
         -2   -1    0    0    0  501 -0.00000000000E+00  0.00000000000E+00  0.10865246798E+02  0.10865247097E+02  0.25500000000E-02 0. -1.
          2   -1    0    0  501    0  0.00000000000E+00 -0.00000000000E+00 -0.83837668952E+03  0.83837668952E+03  0.25500000000E-02 0.  1.
    9000005    2    1    2    0    0 -0.46398101946E+01  0.14923980476E+02 -0.83263271796E+03  0.83279564549E+03  0.52049113558E+01 0.  0.
         22    1    1    2    0    0  0.46398101946E+01 -0.14923980476E+02  0.51212752360E+01  0.16446291130E+02  0.00000000000E+00 0. -1.
         22    1    3    3    0    0 -0.55926770093E+01  0.10629893554E+02 -0.64015677420E+03  0.64026944971E+03  0.00000000000E+00 0. -1.
         22    1    3    3    0    0  0.95286681465E+00  0.42940869220E+01 -0.19247594375E+03  0.19252619578E+03  0.00000000000E+00 0. -1.
<mgrwt>
<rscale>  0 0.19088394E+03</rscale>
<asrwt>0</asrwt>
<pdfrwt beam="2">  1        2 0.12898098E+00 0.19088394E+03</pdfrwt>
<pdfrwt beam="1">  1       -2 0.16715771E-02 0.19088394E+03</pdfrwt>
<totfact> 0.32607850E+04</totfact>
</mgrwt>
</event>
<event>
 7    1  0.3337990E-009  0.8909634E+02  0.7818608E-02  0.1305055E+00
         -2   -1    0    0    0  501 -0.00000000000E+00  0.00000000000E+00  0.11048483338E+03  0.11048483341E+03  0.25500000000E-02 0.  1.
          2   -1    0    0  501    0  0.00000000000E+00 -0.00000000000E+00 -0.17962099820E+02  0.17962100001E+02  0.25500000000E-02 0. -1.
         23    2    1    2    0    0  0.00000000000E+00  0.00000000000E+00  0.92522733563E+02  0.12844693341E+03  0.89096343794E+02 0.  0.
    9000005    2    3    3    0    0 -0.37170155820E+02 -0.21834601685E+02  0.60779540180E+02  0.74911892174E+02  0.76986213104E+01 0.  0.
         22    1    3    3    0    0  0.37170155820E+02  0.21834601685E+02  0.31743193383E+02  0.53535041240E+02  0.00000000000E+00 0.  1.
         22    1    4    4    0    0 -0.34481134649E+02 -0.21712667312E+02  0.58930162734E+02  0.71646023255E+02  0.00000000000E+00 0. -1.
         22    1    4    4    0    0 -0.26890211715E+01 -0.12193437233E+00  0.18493774467E+01  0.32658689185E+01  0.00000000000E+00 0. -1.
<mgrwt>
<rscale>  0 0.89096344E+02</rscale>
<asrwt>0</asrwt>
<pdfrwt beam="2">  1        2 0.27634000E-02 0.89096344E+02</pdfrwt>
<pdfrwt beam="1">  1       -2 0.16997667E-01 0.89096344E+02</pdfrwt>
<totfact> 0.82014821E+04</totfact>
</mgrwt>
</event>
<event>
 7    1  0.3337990E-009  0.9208866E+02  0.7818608E-02  0.1297871E+00
         -2   -1    0    0    0  501 -0.00000000000E+00  0.00000000000E+00  0.13392843907E+02  0.13392844150E+02  0.25500000000E-02 0. -1.
          2   -1    0    0  501    0  0.00000000000E+00 -0.00000000000E+00 -0.15829947229E+03  0.15829947231E+03  0.25500000000E-02 0.  1.
         23    2    1    2    0    0  0.00000000000E+00  0.00000000000E+00 -0.14490662838E+03  0.17169231646E+03  0.92088656100E+02 0.  0.
    9000005    2    3    3    0    0  0.35010106857E+02 -0.20062846200E+01 -0.12753571008E+03  0.13255816817E+03  0.87508765972E+01 0.  0.
         22    1    3    3    0    0 -0.35010106857E+02  0.20062846200E+01 -0.17370918299E+02  0.39134148294E+02  0.00000000000E+00 0. -1.
         22    1    4    4    0    0  0.12662813013E+02  0.30047360824E+01 -0.39309489097E+02  0.41407864052E+02  0.00000000000E+00 0.  1.
         22    1    4    4    0    0  0.22347293844E+02 -0.50110207024E+01 -0.88226220985E+02  0.91150304113E+02  0.00000000000E+00 0.  1.
<mgrwt>
<rscale>  0 0.92088656E+02</rscale>
<asrwt>0</asrwt>
<pdfrwt beam="2">  1        2 0.24353764E-01 0.92088656E+02</pdfrwt>
<pdfrwt beam="1">  1       -2 0.20604377E-02 0.92088656E+02</pdfrwt>
<totfact> 0.13861652E+05</totfact>
</mgrwt>
</event>
<event>
 7    1  0.3337990E-009  0.9223026E+02  0.7818608E-02  0.1297539E+00
         -2   -1    0    0    0  501 -0.00000000000E+00  0.00000000000E+00  0.13058725372E+02  0.13058725621E+02  0.25500000000E-02 0. -1.
          2   -1    0    0  501    0  0.00000000000E+00 -0.00000000000E+00 -0.16284938351E+03  0.16284938353E+03  0.25500000000E-02 0.  1.
         23    2    1    2    0    0  0.00000000000E+00  0.00000000000E+00 -0.14979065814E+03  0.17590810915E+03  0.92230264010E+02 0.  0.
    9000005    2    3    3    0    0  0.37668571421E+02 -0.18169490427E+02 -0.39304034355E+02  0.57771130645E+02  0.66064184079E+01 0.  0.
         22    1    3    3    0    0 -0.37668571421E+02  0.18169490427E+02 -0.11048662378E+03  0.11813697851E+03  0.00000000000E+00 0.  1.
         22    1    4    4    0    0  0.26890480783E+02 -0.15434696987E+02 -0.26266315200E+02  0.40635540381E+02  0.00000000000E+00 0.  1.
         22    1    4    4    0    0  0.10778090638E+02 -0.27347934400E+01 -0.13037719155E+02  0.17135590265E+02  0.00000000000E+00 0.  1.
<mgrwt>
<rscale>  0 0.92230264E+02</rscale>
<asrwt>0</asrwt>
<pdfrwt beam="2">  1        2 0.25053750E-01 0.92230264E+02</pdfrwt>
<pdfrwt beam="1">  1       -2 0.20090348E-02 0.92230264E+02</pdfrwt>
<totfact> 0.13940109E+05</totfact>
</mgrwt>
</event>
<event>
 7    1  0.3337990E-009  0.9015885E+02  0.7818608E-02  0.1302467E+00
         -2   -1    0    0    0  501 -0.00000000000E+00  0.00000000000E+00  0.24894759008E+02  0.24894759139E+02  0.25500000000E-02 0.  1.
          2   -1    0    0  501    0  0.00000000000E+00 -0.00000000000E+00 -0.81629819229E+02  0.81629819269E+02  0.25500000000E-02 0. -1.
         23    2    1    2    0    0  0.00000000000E+00  0.00000000000E+00 -0.56735060220E+02  0.10652457841E+03  0.90158852847E+02 0.  0.
    9000005    2    3    3    0    0  0.23318177447E+02 -0.13508541336E+02  0.11963686475E+02  0.32729348982E+02  0.14207828907E+02 0.  0.
         22    1    3    3    0    0 -0.23318177447E+02  0.13508541336E+02 -0.68698746695E+02  0.73795229426E+02  0.00000000000E+00 0. -1.
         22    1    4    4    0    0  0.18150495059E+02 -0.86285520574E+01  0.15975127125E+01  0.20160466967E+02  0.00000000000E+00 0. -1.
         22    1    4    4    0    0  0.51676823890E+01 -0.48799892781E+01  0.10366173762E+02  0.12568882015E+02  0.00000000000E+00 0. -1.
<mgrwt>
<rscale>  0 0.90158853E+02</rscale>
<asrwt>0</asrwt>
<pdfrwt beam="2">  1        2 0.12558434E-01 0.90158853E+02</pdfrwt>
<pdfrwt beam="1">  1       -2 0.38299630E-02 0.90158853E+02</pdfrwt>
<totfact> 0.11917434E+05</totfact>
</mgrwt>
</event>
<event>
 7    1  0.3337990E-009  0.9156876E+02  0.7818608E-02  0.1299097E+00
         -2   -1    0    0    0  501 -0.00000000000E+00  0.00000000000E+00  0.94269028057E+02  0.94269028092E+02  0.25500000000E-02 0. -1.
          2   -1    0    0  501    0  0.00000000000E+00 -0.00000000000E+00 -0.22236458444E+02  0.22236458590E+02  0.25500000000E-02 0.  1.
         23    2    1    2    0    0  0.22204460493E-15  0.00000000000E+00  0.72032569613E+02  0.11650548668E+03  0.91568757456E+02 0.  0.
    9000005    2    3    3    0    0  0.35974451449E+00 -0.38959741804E+02  0.58015371340E+01  0.39664478355E+02  0.46499583322E+01 0.  0.
         22    1    3    3    0    0 -0.35974451449E+00  0.38959741804E+02  0.66231032479E+02  0.76841008328E+02  0.00000000000E+00 0.  1.
         22    1    4    4    0    0  0.20550204942E+01 -0.31675156795E+02  0.42361813165E+01  0.32023177534E+02  0.00000000000E+00 0.  1.
         22    1    4    4    0    0 -0.16952759797E+01 -0.72845850091E+01  0.15653558175E+01  0.76413008211E+01  0.00000000000E+00 0.  1.
<mgrwt>
<rscale>  0 0.91568757E+02</rscale>
<asrwt>0</asrwt>
<pdfrwt beam="2">  1        2 0.34209936E-02 0.91568757E+02</pdfrwt>
<pdfrwt beam="1">  1       -2 0.14502928E-01 0.91568757E+02</pdfrwt>
<totfact> 0.80347675E+04</totfact>
</mgrwt>
</event>
<event>
 7    1  0.3337990E-009  0.9076766E+02  0.7818608E-02  0.1301003E+00
         -2   -1    0    0    0  501 -0.00000000000E+00  0.00000000000E+00  0.30579156595E+01  0.30579167227E+01  0.25500000000E-02 0.  1.
          2   -1    0    0  501    0  0.00000000000E+00 -0.00000000000E+00 -0.67356063340E+03  0.67356063341E+03  0.25500000000E-02 0. -1.
         23    2    1    2    0    0  0.00000000000E+00  0.00000000000E+00 -0.67050271774E+03  0.67661855013E+03  0.90767658774E+02 0.  0.
    9000005    2    3    3    0    0  0.34339326419E+02 -0.11265910842E+02 -0.53888917878E+03  0.54013326255E+03  0.60236389666E+01 0.  0.
         22    1    3    3    0    0 -0.34339326419E+02  0.11265910842E+02 -0.13161353897E+03  0.13648528758E+03  0.00000000000E+00 0.  1.
         22    1    4    4    0    0  0.20466790170E+02 -0.67826694845E+01 -0.36367213742E+03  0.36431074324E+03  0.00000000000E+00 0.  1.
         22    1    4    4    0    0  0.13872536250E+02 -0.44832413570E+01 -0.17521704136E+03  0.17582251931E+03  0.00000000000E+00 0.  1.
<mgrwt>
<rscale>  0 0.90767659E+02</rscale>
<asrwt>0</asrwt>
<pdfrwt beam="2">  1        2 0.10362459E+00 0.90767659E+02</pdfrwt>
<pdfrwt beam="1">  1       -2 0.47044918E-03 0.90767659E+02</pdfrwt>
<totfact> 0.23776622E+05</totfact>
</mgrwt>
</event>
<event>
 7    1  0.3337990E-009  0.9170922E+02  0.7818608E-02  0.1298765E+00
         -2   -1    0    0    0  501 -0.00000000000E+00  0.00000000000E+00  0.20171525746E+02  0.20171525907E+02  0.25500000000E-02 0.  1.
          2   -1    0    0  501    0  0.00000000000E+00 -0.00000000000E+00 -0.10423828307E+03  0.10423828311E+03  0.25500000000E-02 0. -1.
         23    2    1    2    0    0  0.00000000000E+00 -0.17763568394E-14 -0.84066757328E+02  0.12440980901E+03  0.91709219225E+02 0.  0.
    9000005    2    3    3    0    0 -0.40202520729E+02 -0.10689852947E+02 -0.66378681362E+02  0.79206007619E+02  0.11702421743E+02 0.  0.
         22    1    3    3    0    0  0.40202520729E+02  0.10689852947E+02 -0.17688075966E+02  0.45203801393E+02  0.00000000000E+00 0.  1.
         22    1    4    4    0    0 -0.38096810604E+02 -0.67201029742E+01 -0.58445581430E+02  0.70088606426E+02  0.00000000000E+00 0.  1.
         22    1    4    4    0    0 -0.21057101256E+01 -0.39697499725E+01 -0.79330999324E+01  0.91174011930E+01  0.00000000000E+00 0.  1.
<mgrwt>
<rscale>  0 0.91709219E+02</rscale>
<asrwt>0</asrwt>
<pdfrwt beam="2">  1        2 0.16036659E-01 0.91709219E+02</pdfrwt>
<pdfrwt beam="1">  1       -2 0.31033117E-02 0.91709219E+02</pdfrwt>
<totfact> 0.12227080E+05</totfact>
</mgrwt>
</event>
<event>
 7    1  0.3337990E-009  0.8899938E+02  0.7818608E-02  0.1305293E+00
          2   -1    0    0  501    0  0.00000000000E+00  0.00000000000E+00  0.44595051658E+03  0.44595051659E+03  0.25500000000E-02 0. -1.
         -2   -1    0    0    0  501 -0.00000000000E+00 -0.00000000000E+00 -0.44404528478E+01  0.44404535800E+01  0.25500000000E-02 0.  1.
         23    2    1    2    0    0  0.00000000000E+00  0.00000000000E+00  0.44151006374E+03  0.45039097017E+03  0.88999379950E+02 0.  0.
    9000005    2    3    3    0    0  0.89000172095E+01  0.40254731554E+02  0.29768644421E+03  0.30077517136E+03  0.12199628046E+02 0.  0.
         22    1    3    3    0    0 -0.89000172095E+01 -0.40254731554E+02  0.14382361953E+03  0.14961579881E+03  0.00000000000E+00 0. -1.
         22    1    4    4    0    0  0.24931027795E+01  0.21898984080E+02  0.11806634924E+03  0.12010596942E+03  0.00000000000E+00 0. -1.
         22    1    4    4    0    0  0.64069144300E+01  0.18355747474E+02  0.17962009496E+03  0.18066920195E+03  0.00000000000E+00 0. -1.
<mgrwt>
<rscale>  0 0.88999380E+02</rscale>
<asrwt>0</asrwt>
<pdfrwt beam="1">  1        2 0.68607783E-01 0.88999380E+02</pdfrwt>
<pdfrwt beam="2">  1       -2 0.68314653E-03 0.88999380E+02</pdfrwt>
<totfact> 0.22109452E+05</totfact>
</mgrwt>
</event>
<event>
 7    1  0.3337990E-009  0.9188236E+02  0.7818608E-02  0.1298356E+00
         -2   -1    0    0    0  501 -0.00000000000E+00  0.00000000000E+00  0.41914498768E+02  0.41914498846E+02  0.25500000000E-02 0.  1.
          2   -1    0    0  501    0  0.00000000000E+00 -0.00000000000E+00 -0.50354700082E+02  0.50354700146E+02  0.25500000000E-02 0. -1.
         23    2    1    2    0    0 -0.71054273576E-14  0.00000000000E+00 -0.84402013132E+01  0.92269198992E+02  0.91882360029E+02 0.  0.
    9000005    2    3    3    0    0  0.41982036658E+02  0.68814822067E+01 -0.20461326475E+02  0.48061126771E+02  0.90199681868E+01 0.  0.
         22    1    3    3    0    0 -0.41982036658E+02 -0.68814822067E+01  0.12021125161E+02  0.44208072221E+02  0.00000000000E+00 0.  1.
         22    1    4    4    0    0  0.13807740756E+02 -0.13918652292E+01 -0.89950076199E+01  0.16537870349E+02  0.00000000000E+00 0.  1.
         22    1    4    4    0    0  0.28174295902E+02  0.82733474360E+01 -0.11466318855E+02  0.31523256422E+02  0.00000000000E+00 0.  1.
<mgrwt>
<rscale>  0 0.91882360E+02</rscale>
<asrwt>0</asrwt>
<pdfrwt beam="2">  1        2 0.77468770E-02 0.91882360E+02</pdfrwt>
<pdfrwt beam="1">  1       -2 0.64483844E-02 0.91882360E+02</pdfrwt>
<totfact> 0.99059357E+04</totfact>
</mgrwt>
</event>
<event>
 7    1  0.3337990E-009  0.8789363E+02  0.7818608E-02  0.1308034E+00
          2   -1    0    0  501    0  0.00000000000E+00  0.00000000000E+00  0.16372332553E+02  0.16372332751E+02  0.25500000000E-02 0. -1.
         -2   -1    0    0    0  501 -0.00000000000E+00 -0.00000000000E+00 -0.11796257982E+03  0.11796257984E+03  0.25500000000E-02 0.  1.
         23    2    1    2    0    0  0.88817841970E-15  0.00000000000E+00 -0.10159024726E+03  0.13433491260E+03  0.87893631186E+02 0.  0.
    9000005    2    3    3    0    0  0.71245003728E+01  0.41796281124E+02 -0.63857013744E+02  0.77576789536E+02  0.11947905634E+02 0.  0.
         22    1    3    3    0    0 -0.71245003728E+01 -0.41796281124E+02 -0.37733233520E+02  0.56758123060E+02  0.00000000000E+00 0. -1.
         22    1    4    4    0    0  0.88760477189E+01  0.33626218365E+02 -0.56980090584E+02  0.66755056045E+02  0.00000000000E+00 0. -1.
         22    1    4    4    0    0 -0.17515473462E+01  0.81700627594E+01 -0.68769231600E+01  0.10821733491E+02  0.00000000000E+00 0. -1.
<mgrwt>
<rscale>  0 0.87893631E+02</rscale>
<asrwt>0</asrwt>
<pdfrwt beam="1">  1        2 0.25188205E-02 0.87893631E+02</pdfrwt>
<pdfrwt beam="2">  1       -2 0.18148089E-01 0.87893631E+02</pdfrwt>
<totfact> 0.83132603E+04</totfact>
</mgrwt>
</event>
<event>
 7    1  0.3337990E-009  0.9193427E+02  0.7818608E-02  0.1298234E+00
         -2   -1    0    0    0  501 -0.00000000000E+00  0.00000000000E+00  0.38045832481E+03  0.38045832481E+03  0.25500000000E-02 0.  1.
          2   -1    0    0  501    0  0.00000000000E+00 -0.00000000000E+00 -0.55537684495E+01  0.55537690349E+01  0.25500000000E-02 0. -1.
         23    2    1    2    0    0  0.00000000000E+00  0.00000000000E+00  0.37490455636E+03  0.38601209385E+03  0.91934271200E+02 0.  0.
    9000005    2    3    3    0    0 -0.35405975173E+02 -0.27176829504E+02  0.17028289100E+03  0.17657907574E+03  0.13847161557E+02 0.  0.
         22    1    3    3    0    0  0.35405975173E+02  0.27176829504E+02  0.20462166536E+03  0.20943301811E+03  0.00000000000E+00 0. -1.
         22    1    4    4    0    0 -0.79421136914E+01 -0.89770879790E+00  0.19403082417E+02  0.20984819710E+02  0.00000000000E+00 0.  1.
         22    1    4    4    0    0 -0.27463861481E+02 -0.26279120706E+02  0.15087980858E+03  0.15559425603E+03  0.00000000000E+00 0.  1.
<mgrwt>
<rscale>  0 0.91934271E+02</rscale>
<asrwt>0</asrwt>
<pdfrwt beam="2">  1        2 0.85442572E-03 0.91934271E+02</pdfrwt>
<pdfrwt beam="1">  1       -2 0.58532066E-01 0.91934271E+02</pdfrwt>
<totfact> 0.43205796E+04</totfact>
</mgrwt>
</event>
<event>
 7    1  0.4604093E-009  0.9135906E+02  0.7818608E-02  0.1299594E+00
          2   -1    0    0  501    0  0.00000000000E+00  0.00000000000E+00  0.30334579646E+03  0.30334579647E+03  0.25500000000E-02 0. -1.
         -2   -1    0    0    0  501 -0.00000000000E+00 -0.00000000000E+00 -0.68786821240E+01  0.68786825967E+01  0.25500000000E-02 0.  1.
         23    2    1    2    0    0  0.44408920985E-15  0.00000000000E+00  0.29646711434E+03  0.31022447907E+03  0.91359058281E+02 0.  0.
    9000005    2    3    3    0    0  0.21038147871E+01  0.35195608457E+02  0.24426995665E+03  0.24723479609E+03  0.14631328842E+02 0.  0.
         22    1    3    3    0    0 -0.21038147871E+01 -0.35195608457E+02  0.52197157685E+02  0.62989682978E+02  0.00000000000E+00 0.  1.
         22    1    4    4    0    0  0.65871564409E+01  0.30275660536E+02  0.21475270276E+03  0.21697633418E+03  0.00000000000E+00 0.  1.
         22    1    4    4    0    0 -0.44833416538E+01  0.49199479206E+01  0.29517253890E+02  0.30258461909E+02  0.00000000000E+00 0.  1.
<mgrwt>
<rscale>  0 0.91359058E+02</rscale>
<asrwt>0</asrwt>
<pdfrwt beam="1">  1        2 0.46668580E-01 0.91359058E+02</pdfrwt>
<pdfrwt beam="2">  1       -2 0.10582589E-02 0.91359058E+02</pdfrwt>
<totfact> 0.17944444E+05</totfact>
</mgrwt>
</event>
<event>
 7    1  0.3337990E-009  0.9146273E+02  0.7818608E-02  0.1299348E+00
         -2   -1    0    0    0  501 -0.00000000000E+00  0.00000000000E+00  0.40338124588E+01  0.40338132648E+01  0.25500000000E-02 0.  1.
          2   -1    0    0  501    0  0.00000000000E+00 -0.00000000000E+00 -0.51845678824E+03  0.51845678824E+03  0.25500000000E-02 0. -1.
         23    2    1    2    0    0  0.00000000000E+00  0.00000000000E+00 -0.51442297578E+03  0.52249060151E+03  0.91462728233E+02 0.  0.
    9000005    2    3    3    0    0  0.43271880696E+02  0.13159908910E+02 -0.27735479865E+03  0.28114653287E+03  0.84882122635E+01 0.  0.
         22    1    3    3    0    0 -0.43271880696E+02 -0.13159908910E+02 -0.23706817713E+03  0.24134406864E+03  0.00000000000E+00 0. -1.
         22    1    4    4    0    0  0.50101630124E+01 -0.86861553669E+00 -0.39486691800E+02  0.39812749913E+02  0.00000000000E+00 0.  1.
         22    1    4    4    0    0  0.38261717683E+02  0.14028524446E+02 -0.23786810685E+03  0.24133378296E+03  0.00000000000E+00 0.  1.
<mgrwt>
<rscale>  0 0.91462728E+02</rscale>
<asrwt>0</asrwt>
<pdfrwt beam="2">  1        2 0.79762530E-01 0.91462728E+02</pdfrwt>
<pdfrwt beam="1">  1       -2 0.62058701E-03 0.91462728E+02</pdfrwt>
<totfact> 0.21622311E+05</totfact>
</mgrwt>
</event>
<event>
 7    1  0.3337990E-009  0.9239221E+02  0.7818608E-02  0.1297160E+00
         -2   -1    0    0    0  501 -0.00000000000E+00  0.00000000000E+00  0.16103854150E+03  0.16103854152E+03  0.25500000000E-02 0.  1.
          2   -1    0    0  501    0  0.00000000000E+00 -0.00000000000E+00 -0.13251982976E+02  0.13251983222E+02  0.25500000000E-02 0. -1.
         23    2    1    2    0    0  0.00000000000E+00  0.00000000000E+00  0.14778655852E+03  0.17429052474E+03  0.92392208192E+02 0.  0.
    9000005    2    3    3    0    0  0.37632715477E+02  0.11532638329E+02  0.34084239270E+02  0.53968288956E+02  0.14199219176E+02 0.  0.
         22    1    3    3    0    0 -0.37632715477E+02 -0.11532638329E+02  0.11370231925E+03  0.12032223579E+03  0.00000000000E+00 0.  1.
         22    1    4    4    0    0  0.28366289681E+02  0.14114820447E+02  0.22242598064E+02  0.38711854970E+02  0.00000000000E+00 0. -1.
         22    1    4    4    0    0  0.92664257955E+01 -0.25821821186E+01  0.11841641206E+02  0.15256433986E+02  0.00000000000E+00 0. -1.
<mgrwt>
<rscale>  0 0.92392208E+02</rscale>
<asrwt>0</asrwt>
<pdfrwt beam="2">  1        2 0.20387666E-02 0.92392208E+02</pdfrwt>
<pdfrwt beam="1">  1       -2 0.24775161E-01 0.92392208E+02</pdfrwt>
<totfact> 0.65787630E+04</totfact>
</mgrwt>
</event>
<event>
 7    1  0.3337990E-009  0.9058385E+02  0.7818608E-02  0.1301444E+00
          2   -1    0    0  501    0  0.00000000000E+00  0.00000000000E+00  0.89743219641E+03  0.89743219642E+03  0.25500000000E-02 0.  1.
         -2   -1    0    0    0  501 -0.00000000000E+00 -0.00000000000E+00 -0.22858079298E+01  0.22858093522E+01  0.25500000000E-02 0. -1.
         23    2    1    2    0    0  0.00000000000E+00 -0.35527136788E-14  0.89514638848E+03  0.89971800577E+03  0.90583845635E+02 0.  0.
    9000005    2    3    3    0    0  0.20143872633E+02  0.27266099687E+02  0.74465089335E+03  0.74545164569E+03  0.66322919837E+01 0.  0.
         22    1    3    3    0    0 -0.20143872633E+02 -0.27266099687E+02  0.15049549513E+03  0.15426636008E+03  0.00000000000E+00 0.  1.
         22    1    4    4    0    0  0.35240045657E+00 -0.22359742269E-01  0.33855702842E+02  0.33857544225E+02  0.00000000000E+00 0.  1.
         22    1    4    4    0    0  0.19791472177E+02  0.27288459429E+02  0.71079519051E+03  0.71159410146E+03  0.00000000000E+00 0.  1.
<mgrwt>
<rscale>  0 0.90583846E+02</rscale>
<asrwt>0</asrwt>
<pdfrwt beam="1">  1        2 0.13806647E+00 0.90583846E+02</pdfrwt>
<pdfrwt beam="2">  1       -2 0.35166293E-03 0.90583846E+02</pdfrwt>
<totfact> 0.25215634E+05</totfact>
</mgrwt>
</event>
<event>
 7    1  0.3337990E-009  0.9069203E+02  0.7818608E-02  0.1301184E+00
          2   -1    0    0  501    0  0.00000000000E+00  0.00000000000E+00  0.10393438770E+03  0.10393438773E+03  0.25500000000E-02 0. -1.
         -2   -1    0    0    0  501 -0.00000000000E+00 -0.00000000000E+00 -0.19784220817E+02  0.19784220982E+02  0.25500000000E-02 0.  1.
         23    2    1    2    0    0  0.00000000000E+00  0.00000000000E+00  0.84150166884E+02  0.12371860871E+03  0.90692025865E+02 0.  0.
    9000005    2    3    3    0    0 -0.60970353857E+01 -0.27405319809E+02  0.90008645461E+02  0.95038525633E+02  0.11938999222E+02 0.  0.
         22    1    3    3    0    0  0.60970353857E+01  0.27405319809E+02 -0.58584785771E+01  0.28680083081E+02  0.00000000000E+00 0.  1.
         22    1    4    4    0    0 -0.36110360935E+01 -0.54100535974E+01  0.37421544730E+02  0.37982631183E+02  0.00000000000E+00 0. -1.
         22    1    4    4    0    0 -0.24859992922E+01 -0.21995266211E+02  0.52587100731E+02  0.57055894450E+02  0.00000000000E+00 0. -1.
<mgrwt>
<rscale>  0 0.90692026E+02</rscale>
<asrwt>0</asrwt>
<pdfrwt beam="1">  1        2 0.15989906E-01 0.90692026E+02</pdfrwt>
<pdfrwt beam="2">  1       -2 0.30437263E-02 0.90692026E+02</pdfrwt>
<totfact> 0.12596535E+05</totfact>
</mgrwt>
</event>
<event>
 7    1  0.3337990E-009  0.9423166E+02  0.7818608E-02  0.1292916E+00
         -2   -1    0    0    0  501 -0.00000000000E+00  0.00000000000E+00  0.11597945465E+02  0.11597945745E+02  0.25500000000E-02 0.  1.
          2   -1    0    0  501    0  0.00000000000E+00 -0.00000000000E+00 -0.19140469298E+03  0.19140469300E+03  0.25500000000E-02 0. -1.
         23    2    1    2    0    0  0.44408920985E-15 -0.71054273576E-14 -0.17980674752E+03  0.20300263874E+03  0.94231655426E+02 0.  0.
    9000005    2    3    3    0    0 -0.61326338200E+00  0.34713343689E+02 -0.15795961693E+03  0.16198204103E+03  0.90304325984E+01 0.  0.
         22    1    3    3    0    0  0.61326338200E+00 -0.34713343689E+02 -0.21847130586E+02  0.41020597715E+02  0.00000000000E+00 0.  1.
         22    1    4    4    0    0 -0.44661041141E+01  0.24968341560E+02 -0.11475397735E+03  0.11752378263E+03  0.00000000000E+00 0. -1.
         22    1    4    4    0    0  0.38528407321E+01  0.97450021289E+01 -0.43205639575E+02  0.44458258393E+02  0.00000000000E+00 0. -1.
<mgrwt>
<rscale>  0 0.94231655E+02</rscale>
<asrwt>0</asrwt>
<pdfrwt beam="2">  1        2 0.29446874E-01 0.94231655E+02</pdfrwt>
<pdfrwt beam="1">  1       -2 0.17842995E-02 0.94231655E+02</pdfrwt>
<totfact> 0.13927596E+05</totfact>
</mgrwt>
</event>
<event>
 7    1  0.3337990E-009  0.9156137E+02  0.7818608E-02  0.1299114E+00
          2   -1    0    0  501    0  0.00000000000E+00  0.00000000000E+00  0.16741299451E+02  0.16741299645E+02  0.25500000000E-02 0. -1.
         -2   -1    0    0    0  501 -0.00000000000E+00 -0.00000000000E+00 -0.12519167479E+03  0.12519167481E+03  0.25500000000E-02 0.  1.
         23    2    1    2    0    0  0.00000000000E+00  0.00000000000E+00 -0.10845037534E+03  0.14193297446E+03  0.91561374652E+02 0.  0.
    9000005    2    3    3    0    0  0.27388848307E+01  0.18705437321E+02 -0.11865328308E+03  0.12045055835E+03  0.85053244940E+01 0.  0.
         22    1    3    3    0    0 -0.27388848307E+01 -0.18705437321E+02  0.10202907745E+02  0.21482416111E+02  0.00000000000E+00 0. -1.
         22    1    4    4    0    0 -0.24747456769E+01  0.24936986457E+01 -0.14869261327E+02  0.15278672440E+02  0.00000000000E+00 0. -1.
         22    1    4    4    0    0  0.52136305076E+01  0.16211738676E+02 -0.10378402176E+03  0.10517188591E+03  0.00000000000E+00 0. -1.
<mgrwt>
<rscale>  0 0.91561375E+02</rscale>
<asrwt>0</asrwt>
<pdfrwt beam="1">  1        2 0.25755846E-02 0.91561375E+02</pdfrwt>
<pdfrwt beam="2">  1       -2 0.19260257E-01 0.91561375E+02</pdfrwt>
<totfact> 0.73595008E+04</totfact>
</mgrwt>
</event>
<event>
 7    1  0.3337990E-009  0.9627819E+02  0.7818608E-02  0.1288323E+00
         -2   -1    0    0    0  501 -0.00000000000E+00  0.00000000000E+00  0.24617961421E+01  0.24617974628E+01  0.25500000000E-02 0.  1.
          2   -1    0    0  501    0  0.00000000000E+00 -0.00000000000E+00 -0.94133378815E+03  0.94133378816E+03  0.25500000000E-02 0. -1.
         23    2    1    2    0    0 -0.88817841970E-15 -0.35527136788E-14 -0.93887199201E+03  0.94379558562E+03  0.96278190947E+02 0.  0.
    9000005    2    3    3    0    0 -0.42397346115E+01 -0.20594452490E+02 -0.89347257656E+03  0.89376345848E+03  0.88186066410E+01 0.  0.
         22    1    3    3    0    0  0.42397346115E+01  0.20594452490E+02 -0.45399415448E+02  0.50032127138E+02  0.00000000000E+00 0.  1.
         22    1    4    4    0    0  0.13041019348E+01 -0.46143321032E+01 -0.33634641652E+03  0.33638059493E+03  0.00000000000E+00 0.  1.
         22    1    4    4    0    0 -0.55438365463E+01 -0.15980120387E+02 -0.55712616004E+03  0.55738286355E+03  0.00000000000E+00 0.  1.
<mgrwt>
<rscale>  0 0.96278191E+02</rscale>
<asrwt>0</asrwt>
<pdfrwt beam="2">  1        2 0.14482030E+00 0.96278191E+02</pdfrwt>
<pdfrwt beam="1">  1       -2 0.37873872E-03 0.96278191E+02</pdfrwt>
<totfact> 0.21569405E+05</totfact>
</mgrwt>
</event>
<event>
 7    1  0.3337990E-009  0.1015922E+03  0.7818608E-02  0.1276983E+00
         -2   -1    0    0    0  501 -0.00000000000E+00  0.00000000000E+00  0.31689130421E+03  0.31689130422E+03  0.25500000000E-02 0.  1.
          2   -1    0    0  501    0  0.00000000000E+00 -0.00000000000E+00 -0.81423621246E+01  0.81423625239E+01  0.25500000000E-02 0. -1.
         23    2    1    2    0    0 -0.71054273576E-14 -0.88817841970E-15  0.30874894208E+03  0.32503366674E+03  0.10159220087E+03 0.  0.
    9000005    2    3    3    0    0 -0.42865762762E+02 -0.78094623408E+01  0.23479742810E+03  0.23920076082E+03  0.13737190878E+02 0.  0.
         22    1    3    3    0    0  0.42865762762E+02  0.78094623408E+01  0.73951513978E+02  0.85832905921E+02  0.00000000000E+00 0. -1.
         22    1    4    4    0    0 -0.29719457580E+02  0.58794665016E+00  0.13914335859E+03  0.14228304916E+03  0.00000000000E+00 0.  1.
         22    1    4    4    0    0 -0.13146305183E+02 -0.83974089909E+01  0.95654069517E+02  0.96917711657E+02  0.00000000000E+00 0.  1.
<mgrwt>
<rscale>  0 0.10159220E+03</rscale>
<asrwt>0</asrwt>
<pdfrwt beam="2">  1        2 0.12526710E-02 0.10159220E+03</pdfrwt>
<pdfrwt beam="1">  1       -2 0.48752513E-01 0.10159220E+03</pdfrwt>
<totfact> 0.37371465E+04</totfact>
</mgrwt>
</event>
<event>
 7    1  0.3337990E-009  0.9064347E+02  0.7818608E-02  0.1301301E+00
         -2   -1    0    0    0  501 -0.00000000000E+00  0.00000000000E+00  0.52418372690E+02  0.52418372752E+02  0.25500000000E-02 0.  1.
          2   -1    0    0  501    0  0.00000000000E+00 -0.00000000000E+00 -0.39185868177E+02  0.39185868260E+02  0.25500000000E-02 0. -1.
         23    2    1    2    0    0  0.00000000000E+00  0.00000000000E+00  0.13232504513E+02  0.91604241012E+02  0.90643465268E+02 0.  0.
    9000005    2    3    3    0    0  0.69809918802E+01  0.17360070305E+02 -0.33668132916E+02  0.41108933508E+02  0.14362971541E+02 0.  0.
         22    1    3    3    0    0 -0.69809918802E+01 -0.17360070305E+02  0.46900637430E+02  0.50495307504E+02  0.00000000000E+00 0.  1.
         22    1    4    4    0    0  0.62394325296E+00  0.11770513289E+02 -0.84362960655E+01  0.14495012231E+02  0.00000000000E+00 0. -1.
         22    1    4    4    0    0  0.63570486273E+01  0.55895570158E+01 -0.25231836851E+02  0.26613921277E+02  0.00000000000E+00 0. -1.
<mgrwt>
<rscale>  0 0.90643465E+02</rscale>
<asrwt>0</asrwt>
<pdfrwt beam="2">  1        2 0.60285951E-02 0.90643465E+02</pdfrwt>
<pdfrwt beam="1">  1       -2 0.80643650E-02 0.90643465E+02</pdfrwt>
<totfact> 0.96508985E+04</totfact>
</mgrwt>
</event>
<event>
 7    1  0.3337990E-009  0.9051726E+02  0.7818608E-02  0.1301604E+00
         -2   -1    0    0    0  501 -0.00000000000E+00  0.00000000000E+00  0.17128374111E+02  0.17128374301E+02  0.25500000000E-02 0.  1.
          2   -1    0    0  501    0  0.00000000000E+00 -0.00000000000E+00 -0.11958773016E+03  0.11958773018E+03  0.25500000000E-02 0. -1.
         23    2    1    2    0    0  0.27755575616E-16  0.00000000000E+00 -0.10245935604E+03  0.13671610448E+03  0.90517255725E+02 0.  0.
    9000005    2    3    3    0    0  0.29551213223E-01  0.15746742357E+02 -0.11530828988E+03  0.11639232853E+03  0.17921102014E+01 0.  0.
         22    1    3    3    0    0 -0.29551213223E-01 -0.15746742357E+02  0.12848933834E+02  0.20323775948E+02  0.00000000000E+00 0.  1.
         22    1    4    4    0    0  0.82805426957E+00  0.47281855009E+01 -0.34384199180E+02  0.34717640549E+02  0.00000000000E+00 0. -1.
         22    1    4    4    0    0 -0.79850305635E+00  0.11018556856E+02 -0.80924090698E+02  0.81674687986E+02  0.00000000000E+00 0. -1.
<mgrwt>
<rscale>  0 0.90517256E+02</rscale>
<asrwt>0</asrwt>
<pdfrwt beam="2">  1        2 0.18398112E-01 0.90517256E+02</pdfrwt>
<pdfrwt beam="1">  1       -2 0.26351346E-02 0.90517256E+02</pdfrwt>
<totfact> 0.13231944E+05</totfact>
</mgrwt>
</event>
<event>
 7    1  0.3337990E-009  0.8838435E+02  0.7818608E-02  0.1306812E+00
          2   -1    0    0  501    0  0.00000000000E+00  0.00000000000E+00  0.14245643696E+03  0.14245643698E+03  0.25500000000E-02 0. -1.
         -2   -1    0    0    0  501 -0.00000000000E+00 -0.00000000000E+00 -0.13709090935E+02  0.13709091172E+02  0.25500000000E-02 0.  1.
         23    2    1    2    0    0 -0.35527136788E-14 -0.35527136788E-14  0.12874734602E+03  0.15616552815E+03  0.88384348588E+02 0.  0.
    9000005    2    3    3    0    0 -0.29260159620E+02 -0.31802444855E+02  0.52170852369E+02  0.68236512349E+02  0.81774898943E+01 0.  0.
         22    1    3    3    0    0  0.29260159620E+02  0.31802444855E+02  0.76576493654E+02  0.87929015803E+02  0.00000000000E+00 0. -1.
         22    1    4    4    0    0 -0.29166439374E+02 -0.29107618631E+02  0.47892449054E+02  0.63179279234E+02  0.00000000000E+00 0. -1.
         22    1    4    4    0    0 -0.93720246506E-01 -0.26948262241E+01  0.42784033145E+01  0.50572331155E+01  0.00000000000E+00 0. -1.
<mgrwt>
<rscale>  0 0.88384349E+02</rscale>
<asrwt>0</asrwt>
<pdfrwt beam="1">  1        2 0.21916374E-01 0.88384349E+02</pdfrwt>
<pdfrwt beam="2">  1       -2 0.21090910E-02 0.88384349E+02</pdfrwt>
<totfact> 0.14948065E+05</totfact>
</mgrwt>
</event>
<event>
 7    1  0.3337990E-009  0.8957750E+02  0.7818608E-02  0.1303878E+00
         -2   -1    0    0    0  501 -0.00000000000E+00  0.00000000000E+00  0.13337224467E+02  0.13337224711E+02  0.25500000000E-02 0.  1.
          2   -1    0    0  501    0  0.00000000000E+00 -0.00000000000E+00 -0.15040850578E+03  0.15040850580E+03  0.25500000000E-02 0. -1.
         23    2    1    2    0    0  0.17763568394E-14 -0.35527136788E-14 -0.13707128132E+03  0.16374573052E+03  0.89577497736E+02 0.  0.
    9000005    2    3    3    0    0 -0.11093825243E+02 -0.26601489453E+02 -0.78664496936E+01  0.31365215658E+02  0.95490063799E+01 0.  0.
         22    1    3    3    0    0  0.11093825243E+02  0.26601489453E+02 -0.12920483162E+03  0.13238051486E+03  0.00000000000E+00 0. -1.
         22    1    4    4    0    0 -0.11231205487E+00 -0.12448332858E+02 -0.32563477161E+01  0.12867688425E+02  0.00000000000E+00 0.  1.
         22    1    4    4    0    0 -0.10981513188E+02 -0.14153156595E+02 -0.46101019774E+01  0.18497527233E+02  0.00000000000E+00 0.  1.
<mgrwt>
<rscale>  0 0.89577498E+02</rscale>
<asrwt>0</asrwt>
<pdfrwt beam="2">  1        2 0.23139769E-01 0.89577498E+02</pdfrwt>
<pdfrwt beam="1">  1       -2 0.20518808E-02 0.89577498E+02</pdfrwt>
<totfact> 0.14681120E+05</totfact>
</mgrwt>
</event>
<event>
 7    1  0.3337990E-009  0.9106482E+02  0.7818608E-02  0.1300293E+00
         -2   -1    0    0    0  501 -0.00000000000E+00  0.00000000000E+00  0.90942622749E+02  0.90942622785E+02  0.25500000000E-02 0.  1.
          2   -1    0    0  501    0  0.00000000000E+00 -0.00000000000E+00 -0.22796795908E+02  0.22796796051E+02  0.25500000000E-02 0. -1.
         23    2    1    2    0    0  0.00000000000E+00  0.35527136788E-14  0.68145826841E+02  0.11373941884E+03  0.91064821316E+02 0.  0.
    9000005    2    3    3    0    0 -0.37559975665E+02 -0.21568962690E+02  0.22089151902E+02  0.50516090626E+02  0.13710319358E+02 0.  0.
         22    1    3    3    0    0  0.37559975665E+02  0.21568962690E+02  0.46056674939E+02  0.63223328210E+02  0.00000000000E+00 0. -1.
         22    1    4    4    0    0 -0.10052423662E+02 -0.84054638946E+01  0.13546819998E+02  0.18847264439E+02  0.00000000000E+00 0. -1.
         22    1    4    4    0    0 -0.27507552002E+02 -0.13163498796E+02  0.85423319039E+01  0.31668826187E+02  0.00000000000E+00 0. -1.
<mgrwt>
<rscale>  0 0.91064821E+02</rscale>
<asrwt>0</asrwt>
<pdfrwt beam="2">  1        2 0.35071994E-02 0.91064821E+02</pdfrwt>
<pdfrwt beam="1">  1       -2 0.13991173E-01 0.91064821E+02</pdfrwt>
<totfact> 0.82308603E+04</totfact>
</mgrwt>
</event>
<event>
 7    1  0.3337990E-009  0.8988921E+02  0.7818608E-02  0.1303120E+00
          2   -1    0    0  501    0  0.00000000000E+00  0.00000000000E+00  0.18862225355E+03  0.18862225357E+03  0.25500000000E-02 0. -1.
         -2   -1    0    0    0  501 -0.00000000000E+00 -0.00000000000E+00 -0.10709327555E+02  0.10709327859E+02  0.25500000000E-02 0.  1.
         23    2    1    2    0    0  0.00000000000E+00  0.11102230246E-15  0.17791292600E+03  0.19933158143E+03  0.89889210240E+02 0.  0.
    9000005    2    3    3    0    0 -0.32809270789E+02 -0.73683368226E+00  0.27392118319E+02  0.45274758413E+02  0.14915911965E+02 0.  0.
         22    1    3    3    0    0  0.32809270789E+02  0.73683368226E+00  0.15052080768E+03  0.15405682301E+03  0.00000000000E+00 0. -1.
         22    1    4    4    0    0 -0.28837755974E+02 -0.18042409591E+01  0.28926508058E+02  0.40885380315E+02  0.00000000000E+00 0.  1.
         22    1    4    4    0    0 -0.39715148145E+01  0.10674072769E+01 -0.15343897386E+01  0.43893780979E+01  0.00000000000E+00 0.  1.
<mgrwt>
<rscale>  0 0.89889210E+02</rscale>
<asrwt>0</asrwt>
<pdfrwt beam="1">  1        2 0.29018808E-01 0.89889210E+02</pdfrwt>
<pdfrwt beam="2">  1       -2 0.16475889E-02 0.89889210E+02</pdfrwt>
<totfact> 0.15736509E+05</totfact>
</mgrwt>
</event>
<event>
 7    1  0.3337990E-009  0.9363960E+02  0.7818608E-02  0.1294270E+00
         -2   -1    0    0    0  501 -0.00000000000E+00  0.00000000000E+00  0.28193469328E+02  0.28193469443E+02  0.25500000000E-02 0.  1.
          2   -1    0    0  501    0  0.00000000000E+00 -0.00000000000E+00 -0.77751830504E+02  0.77751830546E+02  0.25500000000E-02 0. -1.
         23    2    1    2    0    0  0.00000000000E+00  0.00000000000E+00 -0.49558361176E+02  0.10594529999E+03  0.93639603947E+02 0.  0.
    9000005    2    3    3    0    0 -0.19071938297E+02 -0.28471896789E+02  0.87312754583E+01  0.38328220223E+02  0.14779362541E+02 0.  0.
         22    1    3    3    0    0  0.19071938297E+02  0.28471896789E+02 -0.58289636635E+02  0.67617079767E+02  0.00000000000E+00 0. -1.
         22    1    4    4    0    0  0.59049456057E+00  0.99611889540E+00 -0.10647769544E+01  0.15731136775E+01  0.00000000000E+00 0.  1.
         22    1    4    4    0    0 -0.19662432857E+02 -0.29468015685E+02  0.97960524127E+01  0.36755106545E+02  0.00000000000E+00 0.  1.
<mgrwt>
<rscale>  0 0.93639604E+02</rscale>
<asrwt>0</asrwt>
<pdfrwt beam="2">  1        2 0.11961820E-01 0.93639604E+02</pdfrwt>
<pdfrwt beam="1">  1       -2 0.43374569E-02 0.93639604E+02</pdfrwt>
<totfact> 0.10575744E+05</totfact>
</mgrwt>
</event>
<event>
 7    1  0.3337990E-009  0.9189382E+02  0.7818608E-02  0.1298329E+00
         -2   -1    0    0    0  501 -0.00000000000E+00  0.00000000000E+00  0.16248079399E+02  0.16248079599E+02  0.25500000000E-02 0.  1.
          2   -1    0    0  501    0  0.00000000000E+00 -0.00000000000E+00 -0.12993034042E+03  0.12993034044E+03  0.25500000000E-02 0. -1.
         23    2    1    2    0    0  0.00000000000E+00  0.00000000000E+00 -0.11368226102E+03  0.14617842004E+03  0.91893819247E+02 0.  0.
    9000005    2    3    3    0    0  0.41502381237E+02 -0.16423933329E+02 -0.61624627589E+02  0.77605900528E+02  0.15260663053E+02 0.  0.
         22    1    3    3    0    0 -0.41502381237E+02  0.16423933329E+02 -0.52057633428E+02  0.68572519514E+02  0.00000000000E+00 0. -1.
         22    1    4    4    0    0  0.21632359879E+02 -0.10984502319E+01 -0.23455298138E+02  0.31926737973E+02  0.00000000000E+00 0. -1.
         22    1    4    4    0    0  0.19870021358E+02 -0.15325483097E+02 -0.38169329451E+02  0.45679162554E+02  0.00000000000E+00 0. -1.
<mgrwt>
<rscale>  0 0.91893819E+02</rscale>
<asrwt>0</asrwt>
<pdfrwt beam="2">  1        2 0.19989282E-01 0.91893819E+02</pdfrwt>
<pdfrwt beam="1">  1       -2 0.24997046E-02 0.91893819E+02</pdfrwt>
<totfact> 0.13043747E+05</totfact>
</mgrwt>
</event>
<event>
 7    1  0.3337990E-009  0.9328305E+02  0.7818608E-02  0.1295091E+00
         -2   -1    0    0    0  501 -0.00000000000E+00  0.00000000000E+00  0.13977038199E+01  0.13977061460E+01  0.25500000000E-02 0.  1.
          2   -1    0    0  501    0  0.00000000000E+00 -0.00000000000E+00 -0.15564313771E+04  0.15564313771E+04  0.25500000000E-02 0. -1.
         23    2    1    2    0    0  0.00000000000E+00  0.00000000000E+00 -0.15550336732E+04  0.15578290832E+04  0.93283050863E+02 0.  0.
    9000005    2    3    3    0    0 -0.90325730190E+01  0.27663734491E+02 -0.13861187812E+04  0.13864257276E+04  0.20378437687E+01 0.  0.
         22    1    3    3    0    0  0.90325730190E+01 -0.27663734491E+02 -0.16891489202E+03  0.17140335565E+03  0.00000000000E+00 0.  1.
         22    1    4    4    0    0 -0.80312903208E+01  0.25793047611E+02 -0.13016666727E+04  0.13019469688E+04  0.00000000000E+00 0.  1.
         22    1    4    4    0    0 -0.10012826983E+01  0.18706868799E+01 -0.84452108563E+02  0.84478758733E+02  0.00000000000E+00 0.  1.
<mgrwt>
<rscale>  0 0.93283051E+02</rscale>
<asrwt>0</asrwt>
<pdfrwt beam="2">  1        2 0.23944959E+00 0.93283051E+02</pdfrwt>
<pdfrwt beam="1">  1       -2 0.21503278E-03 0.93283051E+02</pdfrwt>
<totfact> 0.21886620E+05</totfact>
</mgrwt>
</event>
<event>
 7    1  0.3337990E-009  0.9820875E+02  0.7818608E-02  0.1284108E+00
          2   -1    0    0  501    0  0.00000000000E+00  0.00000000000E+00  0.20468188036E+04  0.20468188037E+04  0.25500000000E-02 0. -1.
         -2   -1    0    0    0  501 -0.00000000000E+00 -0.00000000000E+00 -0.11780412072E+01  0.11780439671E+01  0.25500000000E-02 0.  1.
         23    2    1    2    0    0  0.00000000000E+00  0.17763568394E-14  0.20456407624E+04  0.20479968476E+04  0.98208751589E+02 0.  0.
    9000005    2    3    3    0    0  0.20623202445E+02  0.11301720371E+02  0.19196717723E+04  0.19198514932E+04  0.11704593207E+02 0.  0.
         22    1    3    3    0    0 -0.20623202445E+02 -0.11301720371E+02  0.12596899018E+03  0.12814535438E+03  0.00000000000E+00 0.  1.
         22    1    4    4    0    0  0.41969883545E+01 -0.24242569620E+01  0.32937645205E+03  0.32941211104E+03  0.00000000000E+00 0.  1.
         22    1    4    4    0    0  0.16426214091E+02  0.13725977333E+02  0.15902953202E+04  0.15904393822E+04  0.00000000000E+00 0.  1.
<mgrwt>
<rscale>  0 0.98208752E+02</rscale>
<asrwt>0</asrwt>
<pdfrwt beam="1">  1        2 0.31489789E+00 0.98208752E+02</pdfrwt>
<pdfrwt beam="2">  1       -2 0.18123578E-03 0.98208752E+02</pdfrwt>
<totfact> 0.15804681E+05</totfact>
</mgrwt>
</event>
<event>
 7    1  0.4554258E-009  0.9948501E+02  0.7818608E-02  0.1281383E+00
         -2   -1    0    0    0  501 -0.00000000000E+00  0.00000000000E+00  0.46750336104E+01  0.46750343058E+01  0.25500000000E-02 0.  1.
          2   -1    0    0  501    0  0.00000000000E+00 -0.00000000000E+00 -0.52926180832E+03  0.52926180832E+03  0.25500000000E-02 0. -1.
         23    2    1    2    0    0  0.00000000000E+00  0.35527136788E-14 -0.52458677471E+03  0.53393684263E+03  0.99485012537E+02 0.  0.
    9000005    2    3    3    0    0 -0.39297308831E+02  0.26242255577E+02 -0.33451964026E+03  0.33808370874E+03  0.12816783278E+02 0.  0.
         22    1    3    3    0    0  0.39297308831E+02 -0.26242255577E+02 -0.19006713445E+03  0.19585313389E+03  0.00000000000E+00 0.  1.
         22    1    4    4    0    0 -0.89740437081E+01  0.19412874942E+00 -0.64035364910E+02  0.64661418989E+02  0.00000000000E+00 0.  1.
         22    1    4    4    0    0 -0.30323265123E+02  0.26048126828E+02 -0.27048427535E+03  0.27342228975E+03  0.00000000000E+00 0.  1.
<mgrwt>
<rscale>  0 0.99485013E+02</rscale>
<asrwt>0</asrwt>
<pdfrwt beam="2">  1        2 0.81424846E-01 0.99485013E+02</pdfrwt>
<pdfrwt beam="1">  1       -2 0.71923641E-03 0.99485013E+02</pdfrwt>
<totfact> 0.17405293E+05</totfact>
</mgrwt>
</event>
<event>
 7    1  0.3337990E-009  0.9000933E+02  0.7818608E-02  0.1302829E+00
         -2   -1    0    0    0  501 -0.00000000000E+00  0.00000000000E+00  0.17101171847E+02  0.17101172037E+02  0.25500000000E-02 0.  1.
          2   -1    0    0  501    0  0.00000000000E+00 -0.00000000000E+00 -0.11843748104E+03  0.11843748106E+03  0.25500000000E-02 0. -1.
         23    2    1    2    0    0  0.17763568394E-14  0.00000000000E+00 -0.10133630919E+03  0.13553865310E+03  0.90009326873E+02 0.  0.
    9000005    2    3    3    0    0  0.91621512136E+01  0.42365827121E+02 -0.36069694223E+02  0.57189821892E+02  0.95312414838E+01 0.  0.
         22    1    3    3    0    0 -0.91621512136E+01 -0.42365827121E+02 -0.65266614967E+02  0.78348831209E+02  0.00000000000E+00 0. -1.
         22    1    4    4    0    0  0.56590218484E+01  0.34483272604E+02 -0.24154931934E+02  0.42480364341E+02  0.00000000000E+00 0.  1.
         22    1    4    4    0    0  0.35031293653E+01  0.78825545164E+01 -0.11914762289E+02  0.14709457551E+02  0.00000000000E+00 0.  1.
<mgrwt>
<rscale>  0 0.90009327E+02</rscale>
<asrwt>0</asrwt>
<pdfrwt beam="2">  1        2 0.18221150E-01 0.90009327E+02</pdfrwt>
<pdfrwt beam="1">  1       -2 0.26309496E-02 0.90009327E+02</pdfrwt>
<totfact> 0.13395369E+05</totfact>
</mgrwt>
</event>
<event>
 6    1  0.3337990E-009  0.1353666E+03  0.7818608E-02  0.1219703E+00
          2   -1    0    0  501    0  0.00000000000E+00  0.00000000000E+00  0.59580550751E+03  0.59580550751E+03  0.25500000000E-02 0. -1.
         -2   -1    0    0    0  501 -0.00000000000E+00 -0.00000000000E+00 -0.76887981867E+01  0.76887986096E+01  0.25500000000E-02 0.  1.
    9000005    2    1    2    0    0 -0.18604813045E+02  0.64823230048E+02  0.27115457632E+03  0.27943692852E+03  0.34644680914E+01 0.  0.
         22    1    1    2    0    0  0.18604813045E+02 -0.64823230048E+02  0.31696213300E+03  0.32405737760E+03  0.00000000000E+00 0.  1.
         22    1    3    3    0    0 -0.59542081335E+01  0.15636852408E+02  0.65149332772E+02  0.67263655181E+02  0.00000000000E+00 0.  1.
         22    1    3    3    0    0 -0.12650604912E+02  0.49186377640E+02  0.20600524355E+03  0.21217327334E+03  0.00000000000E+00 0.  1.
<mgrwt>
<rscale>  0 0.13536659E+03</rscale>
<asrwt>0</asrwt>
<pdfrwt beam="1">  1        2 0.91662429E-01 0.13536659E+03</pdfrwt>
<pdfrwt beam="2">  1       -2 0.11828915E-02 0.13536659E+03</pdfrwt>
<totfact> 0.78365608E+04</totfact>
</mgrwt>
</event>
<event>
 7    1  0.3337990E-009  0.9077694E+02  0.7818608E-02  0.1300981E+00
         -2   -1    0    0    0  501 -0.00000000000E+00  0.00000000000E+00  0.11692586626E+02  0.11692586904E+02  0.25500000000E-02 0. -1.
          2   -1    0    0  501    0  0.00000000000E+00 -0.00000000000E+00 -0.17618968323E+03  0.17618968324E+03  0.25500000000E-02 0.  1.
         23    2    1    2    0    0  0.00000000000E+00  0.00000000000E+00 -0.16449709660E+03  0.18788227015E+03  0.90776938958E+02 0.  0.
    9000005    2    3    3    0    0 -0.39529316161E+02 -0.21589746995E+02 -0.92066198992E+02  0.10258913479E+03  0.44341367086E+01 0.  0.
         22    1    3    3    0    0  0.39529316161E+02  0.21589746995E+02 -0.72430897607E+02  0.85293135360E+02  0.00000000000E+00 0.  1.
         22    1    4    4    0    0 -0.18701749631E+02 -0.12644623123E+02 -0.47311210598E+02  0.52421298929E+02  0.00000000000E+00 0. -1.
         22    1    4    4    0    0 -0.20827566530E+02 -0.89451238714E+01 -0.44754988394E+02  0.50167835860E+02  0.00000000000E+00 0. -1.
<mgrwt>
<rscale>  0 0.90776939E+02</rscale>
<asrwt>0</asrwt>
<pdfrwt beam="2">  1        2 0.27106103E-01 0.90776939E+02</pdfrwt>
<pdfrwt beam="1">  1       -2 0.17988596E-02 0.90776939E+02</pdfrwt>
<totfact> 0.14958696E+05</totfact>
</mgrwt>
</event>
<event>
 7    1  0.3337990E-009  0.9036112E+02  0.7818608E-02  0.1301980E+00
         -2   -1    0    0    0  501 -0.00000000000E+00  0.00000000000E+00  0.54645623447E+02  0.54645623507E+02  0.25500000000E-02 0.  1.
          2   -1    0    0  501    0  0.00000000000E+00 -0.00000000000E+00 -0.37354922363E+02  0.37354922450E+02  0.25500000000E-02 0. -1.
         23    2    1    2    0    0 -0.35527136788E-14  0.00000000000E+00  0.17290701085E+02  0.92000545957E+02  0.90361120579E+02 0.  0.
    9000005    2    3    3    0    0  0.28156571561E+02  0.27487176957E+02  0.29258016716E+02  0.50872039267E+02  0.13549738664E+02 0.  0.
         22    1    3    3    0    0 -0.28156571561E+02 -0.27487176957E+02 -0.11967315632E+02  0.41128506690E+02  0.00000000000E+00 0. -1.
         22    1    4    4    0    0  0.20916444365E+02  0.19863972647E+02  0.13305145502E+02  0.31766365090E+02  0.00000000000E+00 0.  1.
         22    1    4    4    0    0  0.72401271961E+01  0.76232043096E+01  0.15952871215E+02  0.19105674177E+02  0.00000000000E+00 0.  1.
<mgrwt>
<rscale>  0 0.90361121E+02</rscale>
<asrwt>0</asrwt>
<pdfrwt beam="2">  1        2 0.57469112E-02 0.90361121E+02</pdfrwt>
<pdfrwt beam="1">  1       -2 0.84070190E-02 0.90361121E+02</pdfrwt>
<totfact> 0.96193005E+04</totfact>
</mgrwt>
</event>
<event>
 7    1  0.3337990E-009  0.8659364E+02  0.7818608E-02  0.1311317E+00
         -2   -1    0    0    0  501 -0.00000000000E+00  0.00000000000E+00  0.29567353968E+01  0.29567364964E+01  0.25500000000E-02 0.  1.
          2   -1    0    0  501    0  0.00000000000E+00 -0.00000000000E+00 -0.63401482267E+03  0.63401482267E+03  0.25500000000E-02 0. -1.
         23    2    1    2    0    0  0.00000000000E+00  0.00000000000E+00 -0.63105808727E+03  0.63697155917E+03  0.86593635335E+02 0.  0.
    9000005    2    3    3    0    0 -0.86044710303E+01 -0.36895893517E+02 -0.46769386294E+03  0.46927178674E+03  0.65663172510E+01 0.  0.
         22    1    3    3    0    0  0.86044710303E+01  0.36895893517E+02 -0.16336422433E+03  0.16769977242E+03  0.00000000000E+00 0.  1.
         22    1    4    4    0    0 -0.42891120781E+01 -0.15333592672E+02 -0.23610963388E+03  0.23664588473E+03  0.00000000000E+00 0. -1.
         22    1    4    4    0    0 -0.43153589522E+01 -0.21562300846E+02 -0.23158422906E+03  0.23262590201E+03  0.00000000000E+00 0. -1.
<mgrwt>
<rscale>  0 0.86593635E+02</rscale>
<asrwt>0</asrwt>
<pdfrwt beam="2">  1        2 0.97540634E-01 0.86593635E+02</pdfrwt>
<pdfrwt beam="1">  1       -2 0.45488296E-03 0.86593635E+02</pdfrwt>
<totfact> 0.26497392E+05</totfact>
</mgrwt>
</event>
<event>
 7    1  0.3337990E-009  0.8889914E+02  0.7818608E-02  0.1305540E+00
          2   -1    0    0  501    0  0.00000000000E+00  0.00000000000E+00  0.16744943856E+02  0.16744944050E+02  0.25500000000E-02 0. -1.
         -2   -1    0    0    0  501 -0.00000000000E+00 -0.00000000000E+00 -0.11799170200E+03  0.11799170203E+03  0.25500000000E-02 0.  1.
         23    2    1    2    0    0  0.00000000000E+00  0.00000000000E+00 -0.10124675814E+03  0.13473664608E+03  0.88899143762E+02 0.  0.
    9000005    2    3    3    0    0 -0.24821535804E+02 -0.32089722016E+02 -0.28504882706E+02  0.51446554584E+02  0.13724457794E+02 0.  0.
         22    1    3    3    0    0  0.24821535804E+02  0.32089722016E+02 -0.72741875436E+02  0.83290091492E+02  0.00000000000E+00 0.  1.
         22    1    4    4    0    0  0.11891752924E+01 -0.50784276394E+01 -0.23098817261E+01  0.57043946877E+01  0.00000000000E+00 0.  1.
         22    1    4    4    0    0 -0.26010711097E+02 -0.27011294377E+02 -0.26195000980E+02  0.45742159897E+02  0.00000000000E+00 0.  1.
<mgrwt>
<rscale>  0 0.88899144E+02</rscale>
<asrwt>0</asrwt>
<pdfrwt beam="1">  1        2 0.25761453E-02 0.88899144E+02</pdfrwt>
<pdfrwt beam="2">  1       -2 0.18152569E-01 0.88899144E+02</pdfrwt>
<totfact> 0.80790064E+04</totfact>
</mgrwt>
</event>
<event>
 7    1  0.3337990E-009  0.9128267E+02  0.7818608E-02  0.1299775E+00
          2   -1    0    0  501    0  0.00000000000E+00  0.00000000000E+00  0.14979722957E+03  0.14979722959E+03  0.25500000000E-02 0.  1.
         -2   -1    0    0    0  501 -0.00000000000E+00 -0.00000000000E+00 -0.13906341792E+02  0.13906342026E+02  0.25500000000E-02 0. -1.
         23    2    1    2    0    0  0.00000000000E+00  0.00000000000E+00  0.13589088778E+03  0.16370357162E+03  0.91282670751E+02 0.  0.
    9000005    2    3    3    0    0  0.38182488681E+01 -0.34820004538E+02  0.12038608053E+03  0.12539677342E+03  0.21285344313E+01 0.  0.
         22    1    3    3    0    0 -0.38182488681E+01  0.34820004538E+02  0.15504807253E+02  0.38306798201E+02  0.00000000000E+00 0. -1.
         22    1    4    4    0    0  0.68717071369E+00 -0.32944320990E+01  0.97684049859E+01  0.10331854742E+02  0.00000000000E+00 0. -1.
         22    1    4    4    0    0  0.31310781544E+01 -0.31525572439E+02  0.11061767554E+03  0.11506491868E+03  0.00000000000E+00 0. -1.
<mgrwt>
<rscale>  0 0.91282671E+02</rscale>
<asrwt>0</asrwt>
<pdfrwt beam="1">  1        2 0.23045728E-01 0.91282671E+02</pdfrwt>
<pdfrwt beam="2">  1       -2 0.21394371E-02 0.91282671E+02</pdfrwt>
<totfact> 0.13930561E+05</totfact>
</mgrwt>
</event>
<event>
 7    1  0.3337990E-009  0.8848170E+02  0.7818608E-02  0.1306571E+00
         -2   -1    0    0    0  501 -0.00000000000E+00  0.00000000000E+00  0.70821054626E+01  0.70821059216E+01  0.25500000000E-02 0. -1.
          2   -1    0    0  501    0  0.00000000000E+00 -0.00000000000E+00 -0.27636596769E+03  0.27636596770E+03  0.25500000000E-02 0.  1.
         23    2    1    2    0    0  0.22204460493E-15  0.00000000000E+00 -0.26928386223E+03  0.28344807363E+03  0.88481704237E+02 0.  0.
    9000005    2    3    3    0    0  0.16861699689E+01  0.37195159506E+02 -0.21024112843E+03  0.21364572786E+03  0.75393560516E+01 0.  0.
         22    1    3    3    0    0 -0.16861699689E+01 -0.37195159506E+02 -0.59042733803E+02  0.69802345768E+02  0.00000000000E+00 0. -1.
         22    1    4    4    0    0 -0.18784017373E+01  0.11625707440E+02 -0.80965333500E+02  0.81817300709E+02  0.00000000000E+00 0.  1.
         22    1    4    4    0    0  0.35645717062E+01  0.25569452066E+02 -0.12927579493E+03  0.13182842715E+03  0.00000000000E+00 0.  1.
<mgrwt>
<rscale>  0 0.88481704E+02</rscale>
<asrwt>0</asrwt>
<pdfrwt beam="2">  1        2 0.42517833E-01 0.88481704E+02</pdfrwt>
<pdfrwt beam="1">  1       -2 0.10895549E-02 0.88481704E+02</pdfrwt>
<totfact> 0.18875910E+05</totfact>
</mgrwt>
</event>
<event>
 7    1  0.3337990E-009  0.9313604E+02  0.7818608E-02  0.1295430E+00
          2   -1    0    0  501    0  0.00000000000E+00  0.00000000000E+00  0.80675743392E+01  0.80675747422E+01  0.25500000000E-02 0. -1.
         -2   -1    0    0    0  501 -0.00000000000E+00 -0.00000000000E+00 -0.26880203308E+03  0.26880203310E+03  0.25500000000E-02 0.  1.
         23    2    1    2    0    0  0.00000000000E+00  0.00000000000E+00 -0.26073445875E+03  0.27686960784E+03  0.93136039038E+02 0.  0.
    9000005    2    3    3    0    0 -0.26704962361E+02  0.96458274305E+01 -0.23930122841E+03  0.24129461150E+03  0.12321307661E+02 0.  0.
         22    1    3    3    0    0  0.26704962361E+02 -0.96458274305E+01 -0.21433230340E+02  0.35574996336E+02  0.00000000000E+00 0. -1.
         22    1    4    4    0    0 -0.27639122482E+02  0.98159629766E+01 -0.21700605613E+03  0.21897922873E+03  0.00000000000E+00 0.  1.
         22    1    4    4    0    0  0.93416012172E+00 -0.17013554614E+00 -0.22295172280E+02  0.22315382771E+02  0.00000000000E+00 0.  1.
<mgrwt>
<rscale>  0 0.93136039E+02</rscale>
<asrwt>0</asrwt>
<pdfrwt beam="1">  1        2 0.12411655E-02 0.93136039E+02</pdfrwt>
<pdfrwt beam="2">  1       -2 0.41354152E-01 0.93136039E+02</pdfrwt>
<totfact> 0.51250758E+04</totfact>
</mgrwt>
</event>
<event>
 7    1  0.3337990E-009  0.9102784E+02  0.7818608E-02  0.1300382E+00
         -2   -1    0    0    0  501 -0.00000000000E+00  0.00000000000E+00  0.28940380270E+02  0.28940380383E+02  0.25500000000E-02 0.  1.
          2   -1    0    0  501    0  0.00000000000E+00 -0.00000000000E+00 -0.71578776615E+02  0.71578776661E+02  0.25500000000E-02 0. -1.
         23    2    1    2    0    0  0.00000000000E+00  0.00000000000E+00 -0.42638396345E+02  0.10051915704E+03  0.91027842388E+02 0.  0.
    9000005    2    3    3    0    0  0.55584881863E+01 -0.36115418781E+02  0.55017494935E+01  0.40081636363E+02  0.15525722571E+02 0.  0.
         22    1    3    3    0    0 -0.55584881863E+01  0.36115418781E+02 -0.48140145839E+02  0.60437520681E+02  0.00000000000E+00 0.  1.
         22    1    4    4    0    0  0.85522162857E+00 -0.29521602315E+02  0.95331632585E+01  0.31034458413E+02  0.00000000000E+00 0.  1.
         22    1    4    4    0    0  0.47032665578E+01 -0.65938164659E+01 -0.40314137650E+01  0.90471779492E+01  0.00000000000E+00 0.  1.
<mgrwt>
<rscale>  0 0.91027842E+02</rscale>
<asrwt>0</asrwt>
<pdfrwt beam="2">  1        2 0.11012119E-01 0.91027842E+02</pdfrwt>
<pdfrwt beam="1">  1       -2 0.44523662E-02 0.91027842E+02</pdfrwt>
<totfact> 0.11181721E+05</totfact>
</mgrwt>
</event>
<event>
 7    1  0.3337990E-009  0.9118212E+02  0.7818608E-02  0.1300014E+00
          2   -1    0    0  501    0  0.00000000000E+00  0.00000000000E+00  0.40214404050E+02  0.40214404131E+02  0.25500000000E-02 0. -1.
         -2   -1    0    0    0  501 -0.00000000000E+00 -0.00000000000E+00 -0.51686569521E+02  0.51686569584E+02  0.25500000000E-02 0.  1.
         23    2    1    2    0    0  0.00000000000E+00  0.00000000000E+00 -0.11472165471E+02  0.91900973714E+02  0.91182116607E+02 0.  0.
    9000005    2    3    3    0    0 -0.28238357960E+02 -0.21923972586E+02 -0.33909912988E+02  0.49692941921E+02  0.64374563020E+01 0.  0.
         22    1    3    3    0    0  0.28238357960E+02  0.21923972586E+02  0.22437747518E+02  0.42208031793E+02  0.00000000000E+00 0. -1.
         22    1    4    4    0    0 -0.92767773060E+01 -0.97017459913E+01 -0.16025071765E+02  0.20904195692E+02  0.00000000000E+00 0.  1.
         22    1    4    4    0    0 -0.18961580654E+02 -0.12222226594E+02 -0.17884841223E+02  0.28788746228E+02  0.00000000000E+00 0.  1.
<mgrwt>
<rscale>  0 0.91182117E+02</rscale>
<asrwt>0</asrwt>
<pdfrwt beam="1">  1        2 0.61868314E-02 0.91182117E+02</pdfrwt>
<pdfrwt beam="2">  1       -2 0.79517800E-02 0.91182117E+02</pdfrwt>
<totfact> 0.95504482E+04</totfact>
</mgrwt>
</event>
<event>
 7    1  0.3337990E-009  0.8690854E+02  0.7818608E-02  0.1310516E+00
          2   -1    0    0  501    0  0.00000000000E+00  0.00000000000E+00  0.74606376058E+02  0.74606376102E+02  0.25500000000E-02 0. -1.
         -2   -1    0    0    0  501 -0.00000000000E+00 -0.00000000000E+00 -0.25309817412E+02  0.25309817540E+02  0.25500000000E-02 0.  1.
         23    2    1    2    0    0  0.00000000000E+00  0.00000000000E+00  0.49296558647E+02  0.99916193642E+02  0.86908544215E+02 0.  0.
    9000005    2    3    3    0    0 -0.25800539219E+02 -0.11461312435E+02  0.61757055799E+02  0.69056940637E+02  0.12565731272E+02 0.  0.
         22    1    3    3    0    0  0.25800539219E+02  0.11461312435E+02 -0.12460497153E+02  0.30859253005E+02  0.00000000000E+00 0.  1.
         22    1    4    4    0    0 -0.24028322370E+02 -0.10248419213E+02  0.61592509786E+02  0.66903121258E+02  0.00000000000E+00 0.  1.
         22    1    4    4    0    0 -0.17722168489E+01 -0.12128932215E+01  0.16454601305E+00  0.21538193788E+01  0.00000000000E+00 0.  1.
<mgrwt>
<rscale>  0 0.86908544E+02</rscale>
<asrwt>0</asrwt>
<pdfrwt beam="1">  1        2 0.11477904E-01 0.86908544E+02</pdfrwt>
<pdfrwt beam="2">  1       -2 0.38938181E-02 0.86908544E+02</pdfrwt>
<totfact> 0.12863105E+05</totfact>
</mgrwt>
</event>
<event>
 7    1  0.3337990E-009  0.9890093E+02  0.7818608E-02  0.1282624E+00
          2   -1    0    0  501    0  0.00000000000E+00  0.00000000000E+00  0.95570043685E+03  0.95570043686E+03  0.25500000000E-02 0.  1.
         -2   -1    0    0    0  501 -0.00000000000E+00 -0.00000000000E+00 -0.25586972236E+01  0.25586984943E+01  0.25500000000E-02 0. -1.
         23    2    1    2    0    0  0.00000000000E+00  0.00000000000E+00  0.95314173963E+03  0.95825913535E+03  0.98900933561E+02 0.  0.
    9000005    2    3    3    0    0  0.36174173476E+02  0.23378038554E+02  0.71177106821E+03  0.71307572536E+03  0.19578159679E+01 0.  0.
         22    1    3    3    0    0 -0.36174173476E+02 -0.23378038554E+02  0.24137067142E+03  0.24518340999E+03  0.00000000000E+00 0. -1.
         22    1    4    4    0    0  0.16288116855E+02  0.11681443834E+02  0.32905390112E+03  0.32966381167E+03  0.00000000000E+00 0. -1.
         22    1    4    4    0    0  0.19886056621E+02  0.11696594720E+02  0.38271716709E+03  0.38341191369E+03  0.00000000000E+00 0. -1.
<mgrwt>
<rscale>  0 0.98900934E+02</rscale>
<asrwt>0</asrwt>
<pdfrwt beam="1">  1        2 0.14703115E+00 0.98900934E+02</pdfrwt>
<pdfrwt beam="2">  1       -2 0.39364499E-03 0.98900934E+02</pdfrwt>
<totfact> 0.20110394E+05</totfact>
</mgrwt>
</event>
<event>
 7    1  0.3337990E-009  0.9252529E+02  0.7818608E-02  0.1296849E+00
         -2   -1    0    0    0  501 -0.00000000000E+00  0.00000000000E+00  0.39720594002E+01  0.39720602187E+01  0.25500000000E-02 0.  1.
          2   -1    0    0  501    0  0.00000000000E+00 -0.00000000000E+00 -0.53882174600E+03  0.53882174601E+03  0.25500000000E-02 0. -1.
         23    2    1    2    0    0 -0.44408920985E-15  0.00000000000E+00 -0.53484968660E+03  0.54279380623E+03  0.92525287463E+02 0.  0.
    9000005    2    3    3    0    0 -0.26582514161E+01  0.45869206366E+02 -0.29063029248E+03  0.29428995745E+03  0.54370721588E+01 0.  0.
         22    1    3    3    0    0  0.26582514161E+01 -0.45869206366E+02 -0.24421939412E+03  0.24850384878E+03  0.00000000000E+00 0.  1.
         22    1    4    4    0    0  0.14146178817E+01  0.22493938881E+02 -0.14064624682E+03  0.14244067248E+03  0.00000000000E+00 0.  1.
         22    1    4    4    0    0 -0.40728692978E+01  0.23375267485E+02 -0.14998404566E+03  0.15184928497E+03  0.00000000000E+00 0.  1.
<mgrwt>
<rscale>  0 0.92525287E+02</rscale>
<asrwt>0</asrwt>
<pdfrwt beam="2">  1        2 0.82895595E-01 0.92525287E+02</pdfrwt>
<pdfrwt beam="1">  1       -2 0.61108655E-03 0.92525287E+02</pdfrwt>
<totfact> 0.21226219E+05</totfact>
</mgrwt>
</event>
<event>
 7    1  0.3337990E-009  0.9212936E+02  0.7818608E-02  0.1297776E+00
          2   -1    0    0  501    0  0.00000000000E+00  0.00000000000E+00  0.56067824028E+02  0.56067824086E+02  0.25500000000E-02 0. -1.
         -2   -1    0    0    0  501 -0.00000000000E+00 -0.00000000000E+00 -0.37846215636E+02  0.37846215722E+02  0.25500000000E-02 0.  1.
         23    2    1    2    0    0  0.35527136788E-14  0.00000000000E+00  0.18221608392E+02  0.93914039808E+02  0.92129364812E+02 0.  0.
    9000005    2    3    3    0    0 -0.26132082816E+02  0.10044372775E+02  0.45312488528E+02  0.54956486454E+02  0.13535826904E+02 0.  0.
         22    1    3    3    0    0  0.26132082816E+02 -0.10044372775E+02 -0.27090880137E+02  0.38957553354E+02  0.00000000000E+00 0.  1.
         22    1    4    4    0    0 -0.26830972484E+02  0.91383810599E+01  0.45675908741E+02  0.53755927414E+02  0.00000000000E+00 0. -1.
         22    1    4    4    0    0  0.69888966844E+00  0.90599171507E+00 -0.36342021267E+00  0.12005590395E+01  0.00000000000E+00 0. -1.
<mgrwt>
<rscale>  0 0.92129365E+02</rscale>
<asrwt>0</asrwt>
<pdfrwt beam="1">  1        2 0.86258191E-02 0.92129365E+02</pdfrwt>
<pdfrwt beam="2">  1       -2 0.58224947E-02 0.92129365E+02</pdfrwt>
<totfact> 0.10114276E+05</totfact>
</mgrwt>
</event>
<event>
 7    1  0.3337990E-009  0.8941592E+02  0.7818608E-02  0.1304272E+00
          2   -1    0    0  501    0  0.00000000000E+00  0.00000000000E+00  0.13858437914E+03  0.13858437917E+03  0.25500000000E-02 0. -1.
         -2   -1    0    0    0  501 -0.00000000000E+00 -0.00000000000E+00 -0.14422995193E+02  0.14422995419E+02  0.25500000000E-02 0.  1.
         23    2    1    2    0    0  0.00000000000E+00  0.00000000000E+00  0.12416138395E+03  0.15300737459E+03  0.89415923712E+02 0.  0.
    9000005    2    3    3    0    0  0.36561060383E+02 -0.15306583713E+02  0.94212580304E+02  0.10332907468E+03  0.15161950607E+02 0.  0.
         22    1    3    3    0    0 -0.36561060383E+02  0.15306583713E+02  0.29948803646E+02  0.49678299902E+02  0.00000000000E+00 0.  1.
         22    1    4    4    0    0  0.12690861437E+02  0.20398237082E+01  0.31491391551E+02  0.34013623544E+02  0.00000000000E+00 0. -1.
         22    1    4    4    0    0  0.23870198946E+02 -0.17346407421E+02  0.62721188752E+02  0.69315451139E+02  0.00000000000E+00 0. -1.
<mgrwt>
<rscale>  0 0.89415924E+02</rscale>
<asrwt>0</asrwt>
<pdfrwt beam="1">  1        2 0.21320674E-01 0.89415924E+02</pdfrwt>
<pdfrwt beam="2">  1       -2 0.22189223E-02 0.89415924E+02</pdfrwt>
<totfact> 0.14353378E+05</totfact>
</mgrwt>
</event>
<event>
 7    1  0.3337990E-009  0.8803127E+02  0.7818608E-02  0.1307691E+00
          2   -1    0    0  501    0  0.00000000000E+00  0.00000000000E+00  0.52963364851E+03  0.52963364852E+03  0.25500000000E-02 0.  1.
         -2   -1    0    0    0  501 -0.00000000000E+00 -0.00000000000E+00 -0.36579550650E+01  0.36579559538E+01  0.25500000000E-02 0. -1.
         23    2    1    2    0    0 -0.35527136788E-14  0.00000000000E+00  0.52597569345E+03  0.53329160447E+03  0.88031274575E+02 0.  0.
    9000005    2    3    3    0    0  0.24807693783E+02 -0.20549036903E+02  0.44193141139E+03  0.44328534949E+03  0.12682433352E+02 0.  0.
         22    1    3    3    0    0 -0.24807693783E+02  0.20549036903E+02  0.84044282062E+02  0.90006254981E+02  0.00000000000E+00 0. -1.
         22    1    4    4    0    0  0.26036403903E+02 -0.18566060950E+02  0.39323252926E+03  0.39453062621E+03  0.00000000000E+00 0.  1.
         22    1    4    4    0    0 -0.12287101199E+01 -0.19829759531E+01  0.48698882122E+02  0.48754723280E+02  0.00000000000E+00 0.  1.
<mgrwt>
<rscale>  0 0.88031275E+02</rscale>
<asrwt>0</asrwt>
<pdfrwt beam="1">  1        2 0.81482057E-01 0.88031275E+02</pdfrwt>
<pdfrwt beam="2">  1       -2 0.56276268E-03 0.88031275E+02</pdfrwt>
<totfact> 0.24080426E+05</totfact>
</mgrwt>
</event>
<event>
 7    1  0.3337990E-009  0.9576738E+02  0.7818608E-02  0.1289457E+00
          2   -1    0    0  501    0  0.00000000000E+00  0.00000000000E+00  0.16173927509E+03  0.16173927511E+03  0.25500000000E-02 0.  1.
         -2   -1    0    0    0  501 -0.00000000000E+00 -0.00000000000E+00 -0.14176195496E+02  0.14176195726E+02  0.25500000000E-02 0. -1.
         23    2    1    2    0    0 -0.35527136788E-14  0.22204460493E-15  0.14756307959E+03  0.17591547084E+03  0.95767376597E+02 0.  0.
    9000005    2    3    3    0    0 -0.23430405572E+02 -0.14405318221E+01  0.15022843012E+03  0.15228999453E+03  0.85206913103E+01 0.  0.
         22    1    3    3    0    0  0.23430405572E+02  0.14405318221E+01 -0.26653505269E+01  0.23625476305E+02  0.00000000000E+00 0. -1.
         22    1    4    4    0    0 -0.13690624140E+02  0.25311702063E+01  0.69646123178E+02  0.71024097922E+02  0.00000000000E+00 0.  1.
         22    1    4    4    0    0 -0.97397814326E+01 -0.39717020283E+01  0.80582306944E+02  0.81265896609E+02  0.00000000000E+00 0.  1.
<mgrwt>
<rscale>  0 0.95767377E+02</rscale>
<asrwt>0</asrwt>
<pdfrwt beam="1">  1        2 0.24882966E-01 0.95767377E+02</pdfrwt>
<pdfrwt beam="2">  1       -2 0.21809531E-02 0.95767377E+02</pdfrwt>
<totfact> 0.12553676E+05</totfact>
</mgrwt>
</event>
<event>
 7    1  0.3337990E-009  0.9108942E+02  0.7818608E-02  0.1300235E+00
          2   -1    0    0  501    0  0.00000000000E+00  0.00000000000E+00  0.11230048554E+03  0.11230048557E+03  0.25500000000E-02 0. -1.
         -2   -1    0    0    0  501 -0.00000000000E+00 -0.00000000000E+00 -0.18471162927E+02  0.18471163103E+02  0.25500000000E-02 0.  1.
         23    2    1    2    0    0  0.00000000000E+00  0.35527136788E-14  0.93829322618E+02  0.13077164868E+03  0.91089419334E+02 0.  0.
    9000005    2    3    3    0    0  0.29066250920E+02 -0.30489065116E+02  0.26544766785E+02  0.51388769616E+02  0.12718135272E+02 0.  0.
         22    1    3    3    0    0 -0.29066250920E+02  0.30489065116E+02  0.67284555834E+02  0.79382879060E+02  0.00000000000E+00 0. -1.
         22    1    4    4    0    0  0.53873386390E+01 -0.10481778692E+00  0.43943536202E+01  0.69530387687E+01  0.00000000000E+00 0. -1.
         22    1    4    4    0    0  0.23678912281E+02 -0.30384247330E+02  0.22150413165E+02  0.44435730847E+02  0.00000000000E+00 0. -1.
<mgrwt>
<rscale>  0 0.91089419E+02</rscale>
<asrwt>0</asrwt>
<pdfrwt beam="1">  1        2 0.17276998E-01 0.91089419E+02</pdfrwt>
<pdfrwt beam="2">  1       -2 0.28417173E-02 0.91089419E+02</pdfrwt>
<totfact> 0.12749533E+05</totfact>
</mgrwt>
</event>
<event>
 7    1  0.3337990E-009  0.9204470E+02  0.7818608E-02  0.1297974E+00
         -2   -1    0    0    0  501 -0.00000000000E+00  0.00000000000E+00  0.65106085395E+01  0.65106090389E+01  0.25500000000E-02 0.  1.
          2   -1    0    0  501    0  0.00000000000E+00 -0.00000000000E+00 -0.32532388946E+03  0.32532388947E+03  0.25500000000E-02 0. -1.
         23    2    1    2    0    0  0.00000000000E+00 -0.35527136788E-14 -0.31881328092E+03  0.33183449850E+03  0.92044697344E+02 0.  0.
    9000005    2    3    3    0    0  0.34795275739E+02  0.22008803692E+02 -0.23255317837E+03  0.23625257582E+03  0.62610027553E+01 0.  0.
         22    1    3    3    0    0 -0.34795275739E+02 -0.22008803692E+02 -0.86260102546E+02  0.95581922689E+02  0.00000000000E+00 0. -1.
         22    1    4    4    0    0  0.26956686207E+02  0.19281469785E+02 -0.19464635405E+03  0.19744781881E+03  0.00000000000E+00 0.  1.
         22    1    4    4    0    0  0.78385895329E+01  0.27273339072E+01 -0.37906824321E+02  0.38804757005E+02  0.00000000000E+00 0.  1.
<mgrwt>
<rscale>  0 0.92044697E+02</rscale>
<asrwt>0</asrwt>
<pdfrwt beam="2">  1        2 0.50049817E-01 0.92044697E+02</pdfrwt>
<pdfrwt beam="1">  1       -2 0.10016324E-02 0.92044697E+02</pdfrwt>
<totfact> 0.18052787E+05</totfact>
</mgrwt>
</event>
<event>
 7    1  0.3337990E-009  0.9041517E+02  0.7818608E-02  0.1301849E+00
         -2   -1    0    0    0  501 -0.00000000000E+00  0.00000000000E+00  0.30344136718E+02  0.30344136825E+02  0.25500000000E-02 0. -1.
          2   -1    0    0  501    0  0.00000000000E+00 -0.00000000000E+00 -0.67351586510E+02  0.67351586558E+02  0.25500000000E-02 0.  1.
         23    2    1    2    0    0  0.88817841970E-15  0.00000000000E+00 -0.37007449792E+02  0.97695723383E+02  0.90415170338E+02 0.  0.
    9000005    2    3    3    0    0  0.76283896331E+01  0.40275887657E+02  0.18300990491E+01  0.41227195379E+02  0.39991150665E+01 0.  0.
         22    1    3    3    0    0 -0.76283896331E+01 -0.40275887657E+02 -0.38837548841E+02  0.56468528004E+02  0.00000000000E+00 0.  1.
         22    1    4    4    0    0  0.54941860584E+01  0.30905349682E+02  0.30582150625E+01  0.31538538310E+02  0.00000000000E+00 0.  1.
         22    1    4    4    0    0  0.21342035747E+01  0.93705379757E+01 -0.12281160134E+01  0.96886570687E+01  0.00000000000E+00 0.  1.
<mgrwt>
<rscale>  0 0.90415170E+02</rscale>
<asrwt>0</asrwt>
<pdfrwt beam="2">  1        2 0.10361782E-01 0.90415170E+02</pdfrwt>
<pdfrwt beam="1">  1       -2 0.46683288E-02 0.90415170E+02</pdfrwt>
<totfact> 0.11204965E+05</totfact>
</mgrwt>
</event>
<event>
 7    1  0.3337990E-009  0.9031509E+02  0.7818608E-02  0.1302090E+00
         -2   -1    0    0    0  501 -0.00000000000E+00  0.00000000000E+00  0.10692280995E+02  0.10692281299E+02  0.25500000000E-02 0.  1.
          2   -1    0    0  501    0  0.00000000000E+00 -0.00000000000E+00 -0.19071740088E+03  0.19071740089E+03  0.25500000000E-02 0. -1.
         23    2    1    2    0    0  0.00000000000E+00  0.00000000000E+00 -0.18002511988E+03  0.20140968219E+03  0.90315094489E+02 0.  0.
    9000005    2    3    3    0    0  0.31505363909E+02 -0.26771081856E+02 -0.50802353595E+02  0.65734326635E+02  0.55537184545E+01 0.  0.
         22    1    3    3    0    0 -0.31505363909E+02  0.26771081856E+02 -0.12922276629E+03  0.13567535556E+03  0.00000000000E+00 0.  1.
         22    1    4    4    0    0  0.12805518745E+01 -0.91860817748E+00 -0.40917430480E+01  0.43847480267E+01  0.00000000000E+00 0. -1.
         22    1    4    4    0    0  0.30224812034E+02 -0.25852473679E+02 -0.46710610547E+02  0.61349578609E+02  0.00000000000E+00 0. -1.
<mgrwt>
<rscale>  0 0.90315094E+02</rscale>
<asrwt>0</asrwt>
<pdfrwt beam="2">  1        2 0.29341136E-01 0.90315094E+02</pdfrwt>
<pdfrwt beam="1">  1       -2 0.16449665E-02 0.90315094E+02</pdfrwt>
<totfact> 0.15599202E+05</totfact>
</mgrwt>
</event>
<event>
 7    1  0.3337990E-009  0.9091542E+02  0.7818608E-02  0.1300650E+00
         -2   -1    0    0    0  501 -0.00000000000E+00  0.00000000000E+00  0.29746395012E+02  0.29746395121E+02  0.25500000000E-02 0.  1.
          2   -1    0    0  501    0  0.00000000000E+00 -0.00000000000E+00 -0.69467351618E+02  0.69467351664E+02  0.25500000000E-02 0. -1.
         23    2    1    2    0    0  0.00000000000E+00  0.00000000000E+00 -0.39720956606E+02  0.99213746786E+02  0.90915417601E+02 0.  0.
    9000005    2    3    3    0    0  0.17990986482E+02  0.33454946145E+01 -0.64346783017E+02  0.68533146152E+02  0.14880043954E+02 0.  0.
         22    1    3    3    0    0 -0.17990986482E+02 -0.33454946145E+01  0.24625826411E+02  0.30680600634E+02  0.00000000000E+00 0.  1.
         22    1    4    4    0    0  0.91071627294E+01  0.26258417451E+01 -0.11327068804E+02  0.14769493747E+02  0.00000000000E+00 0. -1.
         22    1    4    4    0    0  0.88838237526E+01  0.71965286939E+00 -0.53019714213E+02  0.53763652405E+02  0.00000000000E+00 0. -1.
<mgrwt>
<rscale>  0 0.90915418E+02</rscale>
<asrwt>0</asrwt>
<pdfrwt beam="2">  1        2 0.10687285E-01 0.90915418E+02</pdfrwt>
<pdfrwt beam="1">  1       -2 0.45763685E-02 0.90915418E+02</pdfrwt>
<totfact> 0.11127640E+05</totfact>
</mgrwt>
</event>
<event>
 7    1  0.3337990E-009  0.9032242E+02  0.7818608E-02  0.1302073E+00
         -2   -1    0    0    0  501 -0.00000000000E+00  0.00000000000E+00  0.18521362357E+03  0.18521362359E+03  0.25500000000E-02 0.  1.
          2   -1    0    0  501    0  0.00000000000E+00 -0.00000000000E+00 -0.11011796172E+02  0.11011796467E+02  0.25500000000E-02 0. -1.
         23    2    1    2    0    0  0.00000000000E+00  0.00000000000E+00  0.17420182740E+03  0.19622542005E+03  0.90322415859E+02 0.  0.
    9000005    2    3    3    0    0  0.36443667529E+02  0.17899108531E+02  0.49646316735E+02  0.65219335364E+02  0.11844237030E+02 0.  0.
         22    1    3    3    0    0 -0.36443667529E+02 -0.17899108531E+02  0.12455551066E+03  0.13100608469E+03  0.00000000000E+00 0.  1.
         22    1    4    4    0    0  0.26174732147E+01  0.54867196859E+00 -0.18726720084E-01  0.26744266019E+01  0.00000000000E+00 0. -1.
         22    1    4    4    0    0  0.33826194315E+02  0.17350436563E+02  0.49665043455E+02  0.62544908762E+02  0.00000000000E+00 0. -1.
<mgrwt>
<rscale>  0 0.90322416E+02</rscale>
<asrwt>0</asrwt>
<pdfrwt beam="2">  1        2 0.16941226E-02 0.90322416E+02</pdfrwt>
<pdfrwt beam="1">  1       -2 0.28494402E-01 0.90322416E+02</pdfrwt>
<totfact> 0.65938660E+04</totfact>
</mgrwt>
</event>
<event>
 7    1  0.3337990E-009  0.9208262E+02  0.7818608E-02  0.1297885E+00
         -2   -1    0    0    0  501 -0.00000000000E+00  0.00000000000E+00  0.18016675383E+02  0.18016675563E+02  0.25500000000E-02 0. -1.
          2   -1    0    0  501    0  0.00000000000E+00 -0.00000000000E+00 -0.11765779079E+03  0.11765779081E+03  0.25500000000E-02 0.  1.
         23    2    1    2    0    0  0.00000000000E+00  0.00000000000E+00 -0.99641115405E+02  0.13567446638E+03  0.92082620227E+02 0.  0.
    9000005    2    3    3    0    0 -0.68161719018E+00 -0.18220822207E+02 -0.11189248799E+03  0.11370723865E+03  0.87717894469E+01 0.  0.
         22    1    3    3    0    0  0.68161719018E+00  0.18220822207E+02  0.12251372581E+02  0.21967227727E+02  0.00000000000E+00 0. -1.
         22    1    4    4    0    0 -0.45772479731E+01 -0.80249193776E+01 -0.56378937996E+02  0.57130860133E+02  0.00000000000E+00 0. -1.
         22    1    4    4    0    0  0.38956307829E+01 -0.10195902829E+02 -0.55513549990E+02  0.56576378518E+02  0.00000000000E+00 0. -1.
<mgrwt>
<rscale>  0 0.92082620E+02</rscale>
<asrwt>0</asrwt>
<pdfrwt beam="2">  1        2 0.18101198E-01 0.92082620E+02</pdfrwt>
<pdfrwt beam="1">  1       -2 0.27717963E-02 0.92082620E+02</pdfrwt>
<totfact> 0.12560053E+05</totfact>
</mgrwt>
</event>
<event>
 7    1  0.3337990E-009  0.9164237E+02  0.7818608E-02  0.1298923E+00
         -2   -1    0    0    0  501 -0.00000000000E+00  0.00000000000E+00  0.77543731078E+02  0.77543731120E+02  0.25500000000E-02 0.  1.
          2   -1    0    0  501    0  0.00000000000E+00 -0.00000000000E+00 -0.27076089128E+02  0.27076089248E+02  0.25500000000E-02 0. -1.
         23    2    1    2    0    0  0.00000000000E+00  0.00000000000E+00  0.50467641950E+02  0.10461982037E+03  0.91642369730E+02 0.  0.
    9000005    2    3    3    0    0 -0.25623355279E+02 -0.36170340426E+02  0.19912860303E+02  0.50782616282E+02  0.14747957444E+02 0.  0.
         22    1    3    3    0    0  0.25623355279E+02  0.36170340426E+02  0.30554781647E+02  0.53837204085E+02  0.00000000000E+00 0. -1.
         22    1    4    4    0    0 -0.19755094658E+02 -0.15172348773E+02  0.10288325784E+02  0.26950205559E+02  0.00000000000E+00 0. -1.
         22    1    4    4    0    0 -0.58682606204E+01 -0.20997991653E+02  0.96245345192E+01  0.23832410723E+02  0.00000000000E+00 0. -1.
<mgrwt>
<rscale>  0 0.91642370E+02</rscale>
<asrwt>0</asrwt>
<pdfrwt beam="2">  1        2 0.41655522E-02 0.91642370E+02</pdfrwt>
<pdfrwt beam="1">  1       -2 0.11929805E-01 0.91642370E+02</pdfrwt>
<totfact> 0.84745605E+04</totfact>
</mgrwt>
</event>
<event>
 6    1  0.3337990E-009  0.1679633E+03  0.7818608E-02  0.1179989E+00
          2   -1    0    0  501    0  0.00000000000E+00  0.00000000000E+00  0.49589508993E+02  0.49589509059E+02  0.25500000000E-02 0.  1.
         -2   -1    0    0    0  501 -0.00000000000E+00 -0.00000000000E+00 -0.14222603338E+03  0.14222603341E+03  0.25500000000E-02 0. -1.
    9000005    2    1    2    0    0 -0.64631311066E+02  0.52862825591E+02 -0.55856330546E+02  0.10057702341E+03  0.49115452689E+01 0.  0.
         22    1    1    2    0    0  0.64631311066E+02 -0.52862825591E+02 -0.36780193844E+02  0.91238519052E+02  0.00000000000E+00 0.  1.
         22    1    3    3    0    0 -0.35867629838E+02  0.26642601045E+02 -0.31396520273E+02  0.54608209510E+02  0.00000000000E+00 0. -1.
         22    1    3    3    0    0 -0.28763681228E+02  0.26220224546E+02 -0.24459810273E+02  0.45968813903E+02  0.00000000000E+00 0. -1.
<mgrwt>
<rscale>  0 0.16796332E+03</rscale>
<asrwt>0</asrwt>
<pdfrwt beam="1">  1        2 0.76291553E-02 0.16796332E+03</pdfrwt>
<pdfrwt beam="2">  1       -2 0.21880928E-01 0.16796332E+03</pdfrwt>
<totfact> 0.15419843E+04</totfact>
</mgrwt>
</event>
<event>
 7    1  0.3337990E-009  0.1107044E+03  0.7818608E-02  0.1259271E+00
          2   -1    0    0  501    0  0.00000000000E+00  0.00000000000E+00  0.54985172835E+02  0.54985172894E+02  0.25500000000E-02 0. -1.
         -2   -1    0    0    0  501 -0.00000000000E+00 -0.00000000000E+00 -0.55721708934E+02  0.55721708992E+02  0.25500000000E-02 0.  1.
         23    2    1    2    0    0  0.00000000000E+00 -0.83266726847E-16 -0.73653609889E+00  0.11070688189E+03  0.11070443176E+03 0.  0.
    9000005    2    3    3    0    0  0.53865317885E+02 -0.24732380539E+00 -0.12634620392E+02  0.55542599513E+02  0.48798656090E+01 0.  0.
         22    1    3    3    0    0 -0.53865317885E+02  0.24732380539E+00  0.11898084293E+02  0.55164282373E+02  0.00000000000E+00 0. -1.
         22    1    4    4    0    0  0.39295764461E+02  0.18250722789E+01 -0.83390723710E+01  0.40212288189E+02  0.00000000000E+00 0. -1.
         22    1    4    4    0    0  0.14569553424E+02 -0.20723960842E+01 -0.42955480207E+01  0.15330311324E+02  0.00000000000E+00 0. -1.
<mgrwt>
<rscale>  0 0.11070443E+03</rscale>
<asrwt>0</asrwt>
<pdfrwt beam="1">  1        2 0.84592573E-02 0.11070443E+03</pdfrwt>
<pdfrwt beam="2">  1       -2 0.85725706E-02 0.11070443E+03</pdfrwt>
<totfact> 0.59127727E+04</totfact>
</mgrwt>
</event>
<event>
 7    1  0.3337990E-009  0.9267718E+02  0.7818608E-02  0.1296495E+00
         -2   -1    0    0    0  501 -0.00000000000E+00  0.00000000000E+00  0.16584629488E+02  0.16584629684E+02  0.25500000000E-02 0.  1.
          2   -1    0    0  501    0  0.00000000000E+00 -0.00000000000E+00 -0.12947318904E+03  0.12947318906E+03  0.25500000000E-02 0. -1.
         23    2    1    2    0    0  0.17763568394E-14 -0.71054273576E-14 -0.11288855955E+03  0.14605781875E+03  0.92677179176E+02 0.  0.
    9000005    2    3    3    0    0  0.14304585589E+02 -0.43844457411E+02 -0.49526362462E+02  0.67688656226E+02  0.13913979882E+01 0.  0.
         22    1    3    3    0    0 -0.14304585589E+02  0.43844457411E+02 -0.63362197087E+02  0.78369162521E+02  0.00000000000E+00 0.  1.
         22    1    4    4    0    0  0.10876393741E+02 -0.31320112438E+02 -0.35570452460E+02  0.48626150086E+02  0.00000000000E+00 0.  1.
         22    1    4    4    0    0  0.34281918471E+01 -0.12524344973E+02 -0.13955910002E+02  0.19062506140E+02  0.00000000000E+00 0.  1.
<mgrwt>
<rscale>  0 0.92677179E+02</rscale>
<asrwt>0</asrwt>
<pdfrwt beam="2">  1        2 0.19918952E-01 0.92677179E+02</pdfrwt>
<pdfrwt beam="1">  1       -2 0.25514816E-02 0.92677179E+02</pdfrwt>
<totfact> 0.12729808E+05</totfact>
</mgrwt>
</event>
<event>
 7    1  0.3337990E-009  0.8970025E+02  0.7818608E-02  0.1303579E+00
         -2   -1    0    0    0  501 -0.00000000000E+00  0.00000000000E+00  0.84140236182E+02  0.84140236221E+02  0.25500000000E-02 0.  1.
          2   -1    0    0  501    0  0.00000000000E+00 -0.00000000000E+00 -0.23906919778E+02  0.23906919914E+02  0.25500000000E-02 0. -1.
         23    2    1    2    0    0  0.00000000000E+00  0.00000000000E+00  0.60233316404E+02  0.10804715614E+03  0.89700253867E+02 0.  0.
    9000005    2    3    3    0    0 -0.12333482768E+02 -0.23254492859E+02  0.72793658242E+02  0.78881278428E+02  0.15180684137E+02 0.  0.
         22    1    3    3    0    0  0.12333482768E+02  0.23254492859E+02 -0.12560341838E+02  0.29165877707E+02  0.00000000000E+00 0. -1.
         22    1    4    4    0    0 -0.12772579863E+02 -0.16707937124E+02  0.66662469832E+02  0.69901207739E+02  0.00000000000E+00 0.  1.
         22    1    4    4    0    0  0.43909709532E+00 -0.65465557355E+01  0.61311884098E+01  0.89800706887E+01  0.00000000000E+00 0.  1.
<mgrwt>
<rscale>  0 0.89700254E+02</rscale>
<asrwt>0</asrwt>
<pdfrwt beam="2">  1        2 0.36779876E-02 0.89700254E+02</pdfrwt>
<pdfrwt beam="1">  1       -2 0.12944652E-01 0.89700254E+02</pdfrwt>
<totfact> 0.87335170E+04</totfact>
</mgrwt>
</event>
<event>
 7    1  0.3337990E-009  0.8882391E+02  0.7818608E-02  0.1305725E+00
         -2   -1    0    0    0  501 -0.00000000000E+00  0.00000000000E+00  0.10176935008E+03  0.10176935011E+03  0.25500000000E-02 0.  1.
          2   -1    0    0  501    0  0.00000000000E+00 -0.00000000000E+00 -0.19381295900E+02  0.19381296068E+02  0.25500000000E-02 0. -1.
         23    2    1    2    0    0  0.00000000000E+00 -0.35527136788E-14  0.82388054180E+02  0.12115064618E+03  0.88823913438E+02 0.  0.
    9000005    2    3    3    0    0 -0.11096323746E+02  0.18686583303E+02 -0.93559200664E+01  0.26867701770E+02  0.12728839770E+02 0.  0.
         22    1    3    3    0    0  0.11096323746E+02 -0.18686583303E+02  0.91743974246E+02  0.94282944410E+02  0.00000000000E+00 0.  1.
         22    1    4    4    0    0 -0.10043519784E+02  0.49848252724E+01 -0.24046388151E+01  0.11467478384E+02  0.00000000000E+00 0.  1.
         22    1    4    4    0    0 -0.10528039616E+01  0.13701758031E+02 -0.69512812513E+01  0.15400223386E+02  0.00000000000E+00 0.  1.
<mgrwt>
<rscale>  0 0.88823913E+02</rscale>
<asrwt>0</asrwt>
<pdfrwt beam="2">  1        2 0.29817378E-02 0.88823913E+02</pdfrwt>
<pdfrwt beam="1">  1       -2 0.15656823E-01 0.88823913E+02</pdfrwt>
<totfact> 0.84726015E+04</totfact>
</mgrwt>
</event>
<event>
 7    1  0.3337990E-009  0.8783278E+02  0.7818608E-02  0.1308186E+00
         -2   -1    0    0    0  501 -0.00000000000E+00  0.00000000000E+00  0.53576540640E+01  0.53576546708E+01  0.25500000000E-02 0.  1.
          2   -1    0    0  501    0  0.00000000000E+00 -0.00000000000E+00 -0.35998013461E+03  0.35998013462E+03  0.25500000000E-02 0. -1.
         23    2    1    2    0    0  0.00000000000E+00  0.00000000000E+00 -0.35462248055E+03  0.36533778929E+03  0.87832776198E+02 0.  0.
    9000005    2    3    3    0    0 -0.14126045038E+01  0.20906195282E+02 -0.33744153211E+03  0.33824075178E+03  0.10047592836E+02 0.  0.
         22    1    3    3    0    0  0.14126045038E+01 -0.20906195282E+02 -0.17180948445E+02  0.27097037515E+02  0.00000000000E+00 0.  1.
         22    1    4    4    0    0 -0.47858214095E+01  0.14360789332E+02 -0.26320541231E+03  0.26364033346E+03  0.00000000000E+00 0. -1.
         22    1    4    4    0    0  0.33732169056E+01  0.65454059490E+01 -0.74236119795E+02  0.74600418320E+02  0.00000000000E+00 0. -1.
<mgrwt>
<rscale>  0 0.87832776E+02</rscale>
<asrwt>0</asrwt>
<pdfrwt beam="2">  1        2 0.55381540E-01 0.87832776E+02</pdfrwt>
<pdfrwt beam="1">  1       -2 0.82425480E-03 0.87832776E+02</pdfrwt>
<totfact> 0.21218202E+05</totfact>
</mgrwt>
</event>
<event>
 7    1  0.3337990E-009  0.9210866E+02  0.7818608E-02  0.1297824E+00
         -2   -1    0    0    0  501 -0.00000000000E+00  0.00000000000E+00  0.93018401677E+01  0.93018405173E+01  0.25500000000E-02 0.  1.
          2   -1    0    0  501    0  0.00000000000E+00 -0.00000000000E+00 -0.22801954085E+03  0.22801954086E+03  0.25500000000E-02 0. -1.
         23    2    1    2    0    0  0.00000000000E+00  0.00000000000E+00 -0.21871770068E+03  0.23732138138E+03  0.92108661205E+02 0.  0.
    9000005    2    3    3    0    0  0.18737787689E+02 -0.26503454961E+02 -0.27011860528E+02  0.42887158670E+02  0.74919928752E+01 0.  0.
         22    1    3    3    0    0 -0.18737787689E+02  0.26503454961E+02 -0.19170584015E+03  0.19443422271E+03  0.00000000000E+00 0. -1.
         22    1    4    4    0    0  0.14689993694E+02 -0.14581904754E+02 -0.17566955647E+02  0.27148218941E+02  0.00000000000E+00 0. -1.
         22    1    4    4    0    0  0.40477939944E+01 -0.11921550207E+02 -0.94449048819E+01  0.15738939729E+02  0.00000000000E+00 0. -1.
<mgrwt>
<rscale>  0 0.92108661E+02</rscale>
<asrwt>0</asrwt>
<pdfrwt beam="2">  1        2 0.35079925E-01 0.92108661E+02</pdfrwt>
<pdfrwt beam="1">  1       -2 0.14310525E-02 0.92108661E+02</pdfrwt>
<totfact> 0.15788389E+05</totfact>
</mgrwt>
</event>
<event>
 7    1  0.3337990E-009  0.9043110E+02  0.7818608E-02  0.1301811E+00
         -2   -1    0    0    0  501 -0.00000000000E+00  0.00000000000E+00  0.46730354592E+01  0.46730361550E+01  0.25500000000E-02 0. -1.
          2   -1    0    0  501    0  0.00000000000E+00 -0.00000000000E+00 -0.43749850259E+03  0.43749850260E+03  0.25500000000E-02 0.  1.
         23    2    1    2    0    0  0.00000000000E+00  0.17763568394E-14 -0.43282546713E+03  0.44217153876E+03  0.90431104636E+02 0.  0.
    9000005    2    3    3    0    0 -0.39642512065E+02  0.11592207269E+02 -0.29687686638E+03  0.30008730290E+03  0.14512323621E+02 0.  0.
         22    1    3    3    0    0  0.39642512065E+02 -0.11592207269E+02 -0.13594860075E+03  0.14208423585E+03  0.00000000000E+00 0. -1.
         22    1    4    4    0    0 -0.26477244949E+01  0.41862944682E+00 -0.50930672452E+01  0.57554347863E+01  0.00000000000E+00 0. -1.
         22    1    4    4    0    0 -0.36994787570E+02  0.11173577822E+02 -0.29178379914E+03  0.29433186812E+03  0.00000000000E+00 0. -1.
<mgrwt>
<rscale>  0 0.90431105E+02</rscale>
<asrwt>0</asrwt>
<pdfrwt beam="2">  1        2 0.67307430E-01 0.90431105E+02</pdfrwt>
<pdfrwt beam="1">  1       -2 0.71892893E-03 0.90431105E+02</pdfrwt>
<totfact> 0.21056096E+05</totfact>
</mgrwt>
</event>
<event>
 7    1  0.3337990E-009  0.9213802E+02  0.7818608E-02  0.1297755E+00
          2   -1    0    0  501    0  0.00000000000E+00  0.00000000000E+00  0.68840904101E+02  0.68840904149E+02  0.25500000000E-02 0. -1.
         -2   -1    0    0    0  501 -0.00000000000E+00 -0.00000000000E+00 -0.30829831283E+02  0.30829831388E+02  0.25500000000E-02 0.  1.
         23    2    1    2    0    0 -0.35527136788E-14 -0.44408920985E-15  0.38011072819E+02  0.99670735537E+02  0.92138015312E+02 0.  0.
    9000005    2    3    3    0    0 -0.29513599461E+02 -0.14713000415E+01  0.56295002862E+02  0.64921356049E+02  0.13131559204E+02 0.  0.
         22    1    3    3    0    0  0.29513599461E+02  0.14713000415E+01 -0.18283930043E+02  0.34749379488E+02  0.00000000000E+00 0.  1.
         22    1    4    4    0    0 -0.12853011479E+02 -0.40263217393E+01  0.36593456819E+02  0.38993489877E+02  0.00000000000E+00 0. -1.
         22    1    4    4    0    0 -0.16660587982E+02  0.25550216978E+01  0.19701546042E+02  0.25927866172E+02  0.00000000000E+00 0. -1.
<mgrwt>
<rscale>  0 0.92138015E+02</rscale>
<asrwt>0</asrwt>
<pdfrwt beam="1">  1        2 0.10590908E-01 0.92138015E+02</pdfrwt>
<pdfrwt beam="2">  1       -2 0.47430510E-02 0.92138015E+02</pdfrwt>
<totfact> 0.10691800E+05</totfact>
</mgrwt>
</event>
<event>
 7    1  0.3337990E-009  0.9039689E+02  0.7818608E-02  0.1301893E+00
         -2   -1    0    0    0  501 -0.00000000000E+00  0.00000000000E+00  0.26715266448E+02  0.26715266569E+02  0.25500000000E-02 0.  1.
          2   -1    0    0  501    0  0.00000000000E+00 -0.00000000000E+00 -0.76469360941E+02  0.76469360984E+02  0.25500000000E-02 0. -1.
         23    2    1    2    0    0  0.00000000000E+00  0.00000000000E+00 -0.49754094494E+02  0.10318462755E+03  0.90396888466E+02 0.  0.
    9000005    2    3    3    0    0  0.37172871330E+02 -0.11011144849E+02 -0.18177072361E+01  0.41532661671E+02  0.14784798006E+02 0.  0.
         22    1    3    3    0    0 -0.37172871330E+02  0.11011144849E+02 -0.47936387258E+02  0.61651965882E+02  0.00000000000E+00 0. -1.
         22    1    4    4    0    0  0.88334664924E+01  0.16022323167E+01  0.42376678597E+01  0.99274925111E+01  0.00000000000E+00 0.  1.
         22    1    4    4    0    0  0.28339404838E+02 -0.12613377166E+02 -0.60553750959E+01  0.31605169160E+02  0.00000000000E+00 0.  1.
<mgrwt>
<rscale>  0 0.90396888E+02</rscale>
<asrwt>0</asrwt>
<pdfrwt beam="2">  1        2 0.11764517E-01 0.90396888E+02</pdfrwt>
<pdfrwt beam="1">  1       -2 0.41100410E-02 0.90396888E+02</pdfrwt>
<totfact> 0.11613300E+05</totfact>
</mgrwt>
</event>
<event>
 7    1  0.3337990E-009  0.9225507E+02  0.7818608E-02  0.1297481E+00
          2   -1    0    0  501    0  0.00000000000E+00  0.00000000000E+00  0.40726990032E+01  0.40726998015E+01  0.25500000000E-02 0. -1.
         -2   -1    0    0    0  501 -0.00000000000E+00 -0.00000000000E+00 -0.52244202643E+03  0.52244202644E+03  0.25500000000E-02 0.  1.
         23    2    1    2    0    0  0.00000000000E+00 -0.35527136788E-14 -0.51836932743E+03  0.52651472624E+03  0.92255066681E+02 0.  0.
    9000005    2    3    3    0    0  0.15233711396E+02  0.26876021654E+02 -0.45227602715E+03  0.45355781536E+03  0.14377087346E+02 0.  0.
         22    1    3    3    0    0 -0.15233711396E+02 -0.26876021654E+02 -0.66093300284E+02  0.72956910881E+02  0.00000000000E+00 0. -1.
         22    1    4    4    0    0  0.15022437128E+02  0.27526844834E+02 -0.38399463586E+03  0.38527299565E+03  0.00000000000E+00 0. -1.
         22    1    4    4    0    0  0.21127426811E+00 -0.65082318093E+00 -0.68281391285E+02  0.68284819714E+02  0.00000000000E+00 0. -1.
<mgrwt>
<rscale>  0 0.92255067E+02</rscale>
<asrwt>0</asrwt>
<pdfrwt beam="1">  1        2 0.62656955E-03 0.92255067E+02</pdfrwt>
<pdfrwt beam="2">  1       -2 0.80375643E-01 0.92255067E+02</pdfrwt>
<totfact> 0.34016687E+04</totfact>
</mgrwt>
</event>
<event>
 7    1  0.3337990E-009  0.9023789E+02  0.7818608E-02  0.1302277E+00
         -2   -1    0    0    0  501 -0.00000000000E+00  0.00000000000E+00  0.12161991490E+02  0.12161991757E+02  0.25500000000E-02 0.  1.
          2   -1    0    0  501    0  0.00000000000E+00 -0.00000000000E+00 -0.16738370794E+03  0.16738370796E+03  0.25500000000E-02 0. -1.
         23    2    1    2    0    0  0.35527136788E-14  0.00000000000E+00 -0.15522171645E+03  0.17954569972E+03  0.90237891316E+02 0.  0.
    9000005    2    3    3    0    0  0.18605227954E+02 -0.36712939305E+02 -0.11191019301E+03  0.11979720616E+03  0.11553565880E+02 0.  0.
         22    1    3    3    0    0 -0.18605227954E+02  0.36712939305E+02 -0.43311523438E+02  0.59748493555E+02  0.00000000000E+00 0.  1.
         22    1    4    4    0    0  0.83028432275E+01 -0.27942329210E+02 -0.73196763583E+02  0.78787544487E+02  0.00000000000E+00 0. -1.
         22    1    4    4    0    0  0.10302384726E+02 -0.87706100951E+01 -0.38713429428E+02  0.41009661673E+02  0.00000000000E+00 0. -1.
<mgrwt>
<rscale>  0 0.90237891E+02</rscale>
<asrwt>0</asrwt>
<pdfrwt beam="2">  1        2 0.25751338E-01 0.90237891E+02</pdfrwt>
<pdfrwt beam="1">  1       -2 0.18710758E-02 0.90237891E+02</pdfrwt>
<totfact> 0.14930823E+05</totfact>
</mgrwt>
</event>
<event>
 7    1  0.3337990E-009  0.8928524E+02  0.7818608E-02  0.1304592E+00
         -2   -1    0    0    0  501 -0.00000000000E+00  0.00000000000E+00  0.27490523951E+03  0.27490523952E+03  0.25500000000E-02 0.  1.
          2   -1    0    0  501    0  0.00000000000E+00 -0.00000000000E+00 -0.72496379805E+01  0.72496384289E+01  0.25500000000E-02 0. -1.
         23    2    1    2    0    0  0.00000000000E+00  0.00000000000E+00  0.26765560153E+03  0.28215487795E+03  0.89285240221E+02 0.  0.
    9000005    2    3    3    0    0 -0.55568052936E+01 -0.42956911459E+02  0.14766670768E+03  0.15458721365E+03  0.14682497771E+02 0.  0.
         22    1    3    3    0    0  0.55568052936E+01  0.42956911459E+02  0.11998889385E+03  0.12756766430E+03  0.00000000000E+00 0. -1.
         22    1    4    4    0    0  0.30183989434E+01 -0.15358681617E+02  0.36280613322E+02  0.39513070448E+02  0.00000000000E+00 0.  1.
         22    1    4    4    0    0 -0.85752042370E+01 -0.27598229842E+02  0.11138609436E+03  0.11507414321E+03  0.00000000000E+00 0.  1.
<mgrwt>
<rscale>  0 0.89285240E+02</rscale>
<asrwt>0</asrwt>
<pdfrwt beam="2">  1        2 0.11153288E-02 0.89285240E+02</pdfrwt>
<pdfrwt beam="1">  1       -2 0.42293121E-01 0.89285240E+02</pdfrwt>
<totfact> 0.56455070E+04</totfact>
</mgrwt>
</event>
<event>
 7    1  0.3337990E-009  0.9210550E+02  0.7818608E-02  0.1297832E+00
          2   -1    0    0  501    0  0.00000000000E+00  0.00000000000E+00  0.60260660048E+03  0.60260660048E+03  0.25500000000E-02 0.  1.
         -2   -1    0    0    0  501 -0.00000000000E+00 -0.00000000000E+00 -0.35194692945E+01  0.35194702183E+01  0.25500000000E-02 0. -1.
         23    2    1    2    0    0  0.00000000000E+00  0.71054273576E-14  0.59908713118E+03  0.60612607070E+03  0.92105498395E+02 0.  0.
    9000005    2    3    3    0    0 -0.68575141095E+01 -0.33641662475E+02  0.49807403889E+03  0.49943759069E+03  0.13467435451E+02 0.  0.
         22    1    3    3    0    0  0.68575141095E+01  0.33641662475E+02  0.10101309229E+03  0.10668848001E+03  0.00000000000E+00 0.  1.
         22    1    4    4    0    0 -0.43457266437E+01 -0.18083825753E+02  0.17640315001E+03  0.17738089363E+03  0.00000000000E+00 0.  1.
         22    1    4    4    0    0 -0.25117874658E+01 -0.15557836722E+02  0.32167088889E+03  0.32205669706E+03  0.00000000000E+00 0.  1.
<mgrwt>
<rscale>  0 0.92105498E+02</rscale>
<asrwt>0</asrwt>
<pdfrwt beam="1">  1        2 0.92708782E-01 0.92105498E+02</pdfrwt>
<pdfrwt beam="2">  1       -2 0.54145646E-03 0.92105498E+02</pdfrwt>
<totfact> 0.22209932E+05</totfact>
</mgrwt>
</event>
<event>
 7    1  0.3337990E-009  0.9085040E+02  0.7818608E-02  0.1300805E+00
          2   -1    0    0  501    0  0.00000000000E+00  0.00000000000E+00  0.15088583200E+04  0.15088583200E+04  0.25500000000E-02 0. -1.
         -2   -1    0    0    0  501 -0.00000000000E+00 -0.00000000000E+00 -0.13675551539E+01  0.13675575313E+01  0.25500000000E-02 0.  1.
         23    2    1    2    0    0  0.00000000000E+00  0.35527136788E-14  0.15074907649E+04  0.15102258776E+04  0.90850399423E+02 0.  0.
    9000005    2    3    3    0    0  0.10250592284E+02 -0.19273683382E+02  0.14153669543E+04  0.14155509285E+04  0.66532859218E+01 0.  0.
         22    1    3    3    0    0 -0.10250592284E+02  0.19273683382E+02  0.92123810531E+02  0.94674949063E+02  0.00000000000E+00 0.  1.
         22    1    4    4    0    0  0.41014078172E+01 -0.27035408281E+01  0.39995270049E+03  0.39998286627E+03  0.00000000000E+00 0. -1.
         22    1    4    4    0    0  0.61491844668E+01 -0.16570142554E+02  0.10154142538E+04  0.10155680622E+04  0.00000000000E+00 0. -1.
<mgrwt>
<rscale>  0 0.90850399E+02</rscale>
<asrwt>0</asrwt>
<pdfrwt beam="1">  1        2 0.23213210E+00 0.90850399E+02</pdfrwt>
<pdfrwt beam="2">  1       -2 0.21039324E-03 0.90850399E+02</pdfrwt>
<totfact> 0.23766912E+05</totfact>
</mgrwt>
</event>
<event>
 7    1  0.3337990E-009  0.9026327E+02  0.7818608E-02  0.1302215E+00
          2   -1    0    0  501    0  0.00000000000E+00  0.00000000000E+00  0.95352354248E+02  0.95352354282E+02  0.25500000000E-02 0.  1.
         -2   -1    0    0    0  501 -0.00000000000E+00 -0.00000000000E+00 -0.21361449934E+02  0.21361450087E+02  0.25500000000E-02 0. -1.
         23    2    1    2    0    0  0.00000000000E+00  0.00000000000E+00  0.73990904314E+02  0.11671380437E+03  0.90263271650E+02 0.  0.
    9000005    2    3    3    0    0  0.38143036686E+02  0.11306075853E+02  0.63325749390E+02  0.75525649173E+02  0.10547727169E+02 0.  0.
         22    1    3    3    0    0 -0.38143036686E+02 -0.11306075853E+02  0.10665154924E+02  0.41188155195E+02  0.00000000000E+00 0.  1.
         22    1    4    4    0    0  0.29549520901E+02  0.85632413056E+01  0.39624133361E+02  0.50165478486E+02  0.00000000000E+00 0. -1.
         22    1    4    4    0    0  0.85935157848E+01  0.27428345479E+01  0.23701616029E+02  0.25360170687E+02  0.00000000000E+00 0. -1.
<mgrwt>
<rscale>  0 0.90263272E+02</rscale>
<asrwt>0</asrwt>
<pdfrwt beam="1">  1        2 0.14669593E-01 0.90263272E+02</pdfrwt>
<pdfrwt beam="2">  1       -2 0.32863769E-02 0.90263272E+02</pdfrwt>
<totfact> 0.12432384E+05</totfact>
</mgrwt>
</event>
<event>
 7    1  0.3337990E-009  0.9115890E+02  0.7818608E-02  0.1300069E+00
         -2   -1    0    0    0  501 -0.00000000000E+00  0.00000000000E+00  0.23939797361E+02  0.23939797496E+02  0.25500000000E-02 0.  1.
          2   -1    0    0  501    0  0.00000000000E+00 -0.00000000000E+00 -0.86779605048E+02  0.86779605085E+02  0.25500000000E-02 0. -1.
         23    2    1    2    0    0  0.00000000000E+00  0.00000000000E+00 -0.62839807687E+02  0.11071940258E+03  0.91158897963E+02 0.  0.
    9000005    2    3    3    0    0  0.76372345913E+01 -0.44365118776E+02 -0.37455478175E+02  0.59038116791E+02  0.74829989144E+01 0.  0.
         22    1    3    3    0    0 -0.76372345913E+01  0.44365118776E+02 -0.25384329512E+02  0.51681285790E+02  0.00000000000E+00 0. -1.
         22    1    4    4    0    0  0.80140101079E+01 -0.38840243010E+02 -0.29882130715E+02  0.49656123199E+02  0.00000000000E+00 0. -1.
         22    1    4    4    0    0 -0.37677551656E+00 -0.55248757658E+01 -0.75733474599E+01  0.93819935923E+01  0.00000000000E+00 0. -1.
<mgrwt>
<rscale>  0 0.91158898E+02</rscale>
<asrwt>0</asrwt>
<pdfrwt beam="2">  1        2 0.13350708E-01 0.91158898E+02</pdfrwt>
<pdfrwt beam="1">  1       -2 0.36830458E-02 0.91158898E+02</pdfrwt>
<totfact> 0.11765505E+05</totfact>
</mgrwt>
</event>
<event>
 7    1  0.3337990E-009  0.9082149E+02  0.7818608E-02  0.1300874E+00
         -2   -1    0    0    0  501 -0.00000000000E+00  0.00000000000E+00  0.78733702336E+02  0.78733702377E+02  0.25500000000E-02 0.  1.
          2   -1    0    0  501    0  0.00000000000E+00 -0.00000000000E+00 -0.26191270470E+02  0.26191270594E+02  0.25500000000E-02 0. -1.
         23    2    1    2    0    0  0.00000000000E+00  0.17763568394E-14  0.52542431866E+02  0.10492497297E+03  0.90821488683E+02 0.  0.
    9000005    2    3    3    0    0 -0.37265201195E+02 -0.94156633428E+01  0.10982474898E+01  0.40707731966E+02  0.13362760118E+02 0.  0.
         22    1    3    3    0    0  0.37265201195E+02  0.94156633428E+01  0.51444184376E+02  0.64217241006E+02  0.00000000000E+00 0.  1.
         22    1    4    4    0    0 -0.10707836475E+02 -0.73147276840E+01  0.47665122575E+01  0.13816028452E+02  0.00000000000E+00 0. -1.
         22    1    4    4    0    0 -0.26557364720E+02 -0.21009356588E+01 -0.36682647676E+01  0.26891703514E+02  0.00000000000E+00 0. -1.
<mgrwt>
<rscale>  0 0.90821489E+02</rscale>
<asrwt>0</asrwt>
<pdfrwt beam="2">  1        2 0.40294263E-02 0.90821489E+02</pdfrwt>
<pdfrwt beam="1">  1       -2 0.12112877E-01 0.90821489E+02</pdfrwt>
<totfact> 0.86276491E+04</totfact>
</mgrwt>
</event>
<event>
 7    1  0.3337990E-009  0.9097795E+02  0.7818608E-02  0.1300501E+00
         -2   -1    0    0    0  501 -0.00000000000E+00  0.00000000000E+00  0.64331225907E+02  0.64331225958E+02  0.25500000000E-02 0.  1.
          2   -1    0    0  501    0  0.00000000000E+00 -0.00000000000E+00 -0.32165510451E+02  0.32165510553E+02  0.25500000000E-02 0. -1.
         23    2    1    2    0    0  0.00000000000E+00  0.35527136788E-14  0.32165715456E+02  0.96496736510E+02  0.90977947363E+02 0.  0.
    9000005    2    3    3    0    0 -0.30846524474E+02 -0.27650989810E+02  0.35390881958E+02  0.54945719572E+02  0.71015677141E+01 0.  0.
         22    1    3    3    0    0  0.30846524474E+02  0.27650989810E+02 -0.32251665019E+01  0.41551016938E+02  0.00000000000E+00 0. -1.
         22    1    4    4    0    0 -0.28546341199E+02 -0.22498129891E+02  0.31434487608E+02  0.48053995210E+02  0.00000000000E+00 0.  1.
         22    1    4    4    0    0 -0.23001832753E+01 -0.51528599188E+01  0.39563943496E+01  0.68917243627E+01  0.00000000000E+00 0.  1.
<mgrwt>
<rscale>  0 0.90977947E+02</rscale>
<asrwt>0</asrwt>
<pdfrwt beam="2">  1        2 0.49485401E-02 0.90977947E+02</pdfrwt>
<pdfrwt beam="1">  1       -2 0.98971116E-02 0.90977947E+02</pdfrwt>
<totfact> 0.90700080E+04</totfact>
</mgrwt>
</event>
<event>
 7    1  0.3337990E-009  0.9148442E+02  0.7818608E-02  0.1299296E+00
          2   -1    0    0  501    0  0.00000000000E+00  0.00000000000E+00  0.29373629842E+01  0.29373640910E+01  0.25500000000E-02 0. -1.
         -2   -1    0    0    0  501 -0.00000000000E+00 -0.00000000000E+00 -0.71232240654E+03  0.71232240654E+03  0.25500000000E-02 0.  1.
         23    2    1    2    0    0  0.00000000000E+00  0.00000000000E+00 -0.70938504355E+03  0.71525977063E+03  0.91484422001E+02 0.  0.
    9000005    2    3    3    0    0  0.41536166668E+02 -0.53233435119E+01 -0.49352187132E+03  0.49537229883E+03  0.87341772953E+01 0.  0.
         22    1    3    3    0    0 -0.41536166668E+02  0.53233435119E+01 -0.21586317223E+03  0.21988747180E+03  0.00000000000E+00 0. -1.
         22    1    4    4    0    0  0.23607595874E+02 -0.60225522452E+01 -0.31964063524E+03  0.32056781719E+03  0.00000000000E+00 0. -1.
         22    1    4    4    0    0  0.17928570795E+02  0.69920873326E+00 -0.17388123607E+03  0.17480448164E+03  0.00000000000E+00 0. -1.
<mgrwt>
<rscale>  0 0.91484422E+02</rscale>
<asrwt>0</asrwt>
<pdfrwt beam="1">  1        2 0.45190265E-03 0.91484422E+02</pdfrwt>
<pdfrwt beam="2">  1       -2 0.10958793E+00 0.91484422E+02</pdfrwt>
<totfact> 0.26502671E+04</totfact>
</mgrwt>
</event>
<event>
 7    1  0.3337990E-009  0.9111290E+02  0.7818608E-02  0.1300179E+00
          2   -1    0    0  501    0  0.00000000000E+00  0.00000000000E+00  0.64496589080E+03  0.64496589080E+03  0.25500000000E-02 0. -1.
         -2   -1    0    0    0  501 -0.00000000000E+00 -0.00000000000E+00 -0.32178287139E+01  0.32178297243E+01  0.25500000000E-02 0.  1.
         23    2    1    2    0    0  0.00000000000E+00  0.00000000000E+00  0.64174806209E+03  0.64818372053E+03  0.91112899021E+02 0.  0.
    9000005    2    3    3    0    0  0.12764649294E+02 -0.23912756221E+02  0.58089573474E+03  0.58156719161E+03  0.67666489044E+01 0.  0.
         22    1    3    3    0    0 -0.12764649294E+02  0.23912756221E+02  0.60852327346E+02  0.66616528918E+02  0.00000000000E+00 0.  1.
         22    1    4    4    0    0  0.13463834076E+02 -0.23556448323E+02  0.56042635563E+03  0.56108277569E+03  0.00000000000E+00 0.  1.
         22    1    4    4    0    0 -0.69918478220E+00 -0.35630789768E+00  0.20469379109E+02  0.20484415925E+02  0.00000000000E+00 0.  1.
<mgrwt>
<rscale>  0 0.91112899E+02</rscale>
<asrwt>0</asrwt>
<pdfrwt beam="1">  1        2 0.99225678E-01 0.91112899E+02</pdfrwt>
<pdfrwt beam="2">  1       -2 0.49504987E-03 0.91112899E+02</pdfrwt>
<totfact> 0.23281529E+05</totfact>
</mgrwt>
</event>
<event>
 7    1  0.3337990E-009  0.9070334E+02  0.7818608E-02  0.1301157E+00
          2   -1    0    0  501    0  0.00000000000E+00  0.00000000000E+00  0.15205930173E+03  0.15205930175E+03  0.25500000000E-02 0.  1.
         -2   -1    0    0    0  501 -0.00000000000E+00 -0.00000000000E+00 -0.13526130824E+02  0.13526131065E+02  0.25500000000E-02 0. -1.
         23    2    1    2    0    0 -0.35527136788E-14  0.00000000000E+00  0.13853317090E+03  0.16558543281E+03  0.90703341281E+02 0.  0.
    9000005    2    3    3    0    0 -0.20783520962E+02  0.10662615981E+02  0.98223096340E+00  0.26065157579E+02  0.11523087209E+02 0.  0.
         22    1    3    3    0    0  0.20783520962E+02 -0.10662615981E+02  0.13755093994E+03  0.13952027523E+03  0.00000000000E+00 0.  1.
         22    1    4    4    0    0 -0.16083965279E+02  0.65073832896E+01 -0.42874621644E+01  0.17872389549E+02  0.00000000000E+00 0. -1.
         22    1    4    4    0    0 -0.46995556832E+01  0.41552326914E+01  0.52696931278E+01  0.81927680304E+01  0.00000000000E+00 0. -1.
<mgrwt>
<rscale>  0 0.90703341E+02</rscale>
<asrwt>0</asrwt>
<pdfrwt beam="1">  1        2 0.23393739E-01 0.90703341E+02</pdfrwt>
<pdfrwt beam="2">  1       -2 0.20809432E-02 0.90703341E+02</pdfrwt>
<totfact> 0.14245756E+05</totfact>
</mgrwt>
</event>
<event>
 7    1  0.3337990E-009  0.9090820E+02  0.7818608E-02  0.1300667E+00
          2   -1    0    0  501    0  0.00000000000E+00  0.00000000000E+00  0.22653471237E+03  0.22653471239E+03  0.25500000000E-02 0. -1.
         -2   -1    0    0    0  501 -0.00000000000E+00 -0.00000000000E+00 -0.91203474358E+01  0.91203477923E+01  0.25500000000E-02 0.  1.
         23    2    1    2    0    0  0.00000000000E+00 -0.17763568394E-14  0.21741436494E+03  0.23565506018E+03  0.90908202640E+02 0.  0.
    9000005    2    3    3    0    0  0.41308248801E+02  0.12632822353E+02  0.87901425960E+02  0.99128282652E+02  0.15290392936E+02 0.  0.
         22    1    3    3    0    0 -0.41308248801E+02 -0.12632822353E+02  0.12951293898E+03  0.13652677753E+03  0.00000000000E+00 0.  1.
         22    1    4    4    0    0  0.13958560175E+02  0.10098117722E+02  0.45025146897E+02  0.48208684247E+02  0.00000000000E+00 0. -1.
         22    1    4    4    0    0  0.27349688625E+02  0.25347046313E+01  0.42876279063E+02  0.50919598405E+02  0.00000000000E+00 0. -1.
<mgrwt>
<rscale>  0 0.90908203E+02</rscale>
<asrwt>0</asrwt>
<pdfrwt beam="1">  1        2 0.34851492E-01 0.90908203E+02</pdfrwt>
<pdfrwt beam="2">  1       -2 0.14031305E-02 0.90908203E+02</pdfrwt>
<totfact> 0.16315570E+05</totfact>
</mgrwt>
</event>
<event>
 7    1  0.3337990E-009  0.9040685E+02  0.7818608E-02  0.1301869E+00
          2   -1    0    0  501    0  0.00000000000E+00  0.00000000000E+00  0.18049239752E+03  0.18049239754E+03  0.25500000000E-02 0. -1.
         -2   -1    0    0    0  501 -0.00000000000E+00 -0.00000000000E+00 -0.11320974389E+02  0.11320974676E+02  0.25500000000E-02 0.  1.
         23    2    1    2    0    0  0.00000000000E+00  0.00000000000E+00  0.16917142313E+03  0.19181337221E+03  0.90406854585E+02 0.  0.
    9000005    2    3    3    0    0  0.80989175820E+01 -0.26898086046E+02  0.13424750557E+02  0.33553694732E+02  0.12511075242E+02 0.  0.
         22    1    3    3    0    0 -0.80989175820E+01  0.26898086046E+02  0.15574667257E+03  0.15825967748E+03  0.00000000000E+00 0. -1.
         22    1    4    4    0    0 -0.21210998028E+01 -0.14203372926E+02  0.49912554112E+01  0.15203535689E+02  0.00000000000E+00 0. -1.
         22    1    4    4    0    0  0.10220017385E+02 -0.12694713120E+02  0.84334951462E+01  0.18350159044E+02  0.00000000000E+00 0. -1.
<mgrwt>
<rscale>  0 0.90406855E+02</rscale>
<asrwt>0</asrwt>
<pdfrwt beam="1">  1        2 0.27768059E-01 0.90406855E+02</pdfrwt>
<pdfrwt beam="2">  1       -2 0.17416885E-02 0.90406855E+02</pdfrwt>
<totfact> 0.15254018E+05</totfact>
</mgrwt>
</event>
<event>
 7    1  0.4917685E-009  0.8968288E+02  0.7818608E-02  0.1303621E+00
         -2   -1    0    0    0  501 -0.00000000000E+00  0.00000000000E+00  0.25724793846E+02  0.25724793972E+02  0.25500000000E-02 0.  1.
          2   -1    0    0  501    0  0.00000000000E+00 -0.00000000000E+00 -0.78164077894E+02  0.78164077936E+02  0.25500000000E-02 0. -1.
         23    2    1    2    0    0  0.00000000000E+00  0.00000000000E+00 -0.52439284048E+02  0.10388887191E+03  0.89682881281E+02 0.  0.
    9000005    2    3    3    0    0  0.35671825853E+02  0.49161760196E+01  0.12896636203E+01  0.39209294266E+02  0.15461486934E+02 0.  0.
         22    1    3    3    0    0 -0.35671825853E+02 -0.49161760196E+01 -0.53728947668E+02  0.64679577642E+02  0.00000000000E+00 0. -1.
         22    1    4    4    0    0  0.19759844962E+02  0.11209157784E+01  0.82364410910E+01  0.21437044735E+02  0.00000000000E+00 0.  1.
         22    1    4    4    0    0  0.15911980891E+02  0.37952602412E+01 -0.69467774707E+01  0.17772249531E+02  0.00000000000E+00 0.  1.
<mgrwt>
<rscale>  0 0.89682881E+02</rscale>
<asrwt>0</asrwt>
<pdfrwt beam="2">  1        2 0.12025243E-01 0.89682881E+02</pdfrwt>
<pdfrwt beam="1">  1       -2 0.39576606E-02 0.89682881E+02</pdfrwt>
<totfact> 0.11945318E+05</totfact>
</mgrwt>
</event>
<event>
 7    1  0.3337990E-009  0.8933939E+02  0.7818608E-02  0.1304459E+00
          2   -1    0    0  501    0  0.00000000000E+00  0.00000000000E+00  0.14233816763E+03  0.14233816765E+03  0.25500000000E-02 0. -1.
         -2   -1    0    0    0  501 -0.00000000000E+00 -0.00000000000E+00 -0.14018598378E+02  0.14018598610E+02  0.25500000000E-02 0.  1.
         23    2    1    2    0    0  0.00000000000E+00  0.00000000000E+00  0.12831956925E+03  0.15635676626E+03  0.89339389425E+02 0.  0.
    9000005    2    3    3    0    0 -0.26945822541E+02  0.15377287602E+02  0.83036255690E+01  0.32395622897E+02  0.42412095998E+01 0.  0.
         22    1    3    3    0    0  0.26945822541E+02 -0.15377287602E+02  0.12001594368E+03  0.12396114336E+03  0.00000000000E+00 0. -1.
         22    1    4    4    0    0 -0.24300277566E+02  0.13648249076E+02  0.60660035950E+01  0.28523228994E+02  0.00000000000E+00 0. -1.
         22    1    4    4    0    0 -0.26455449745E+01  0.17290385261E+01  0.22376219740E+01  0.38723939024E+01  0.00000000000E+00 0. -1.
<mgrwt>
<rscale>  0 0.89339389E+02</rscale>
<asrwt>0</asrwt>
<pdfrwt beam="1">  1        2 0.21898180E-01 0.89339389E+02</pdfrwt>
<pdfrwt beam="2">  1       -2 0.21567074E-02 0.89339389E+02</pdfrwt>
<totfact> 0.14515361E+05</totfact>
</mgrwt>
</event>
<event>
 7    1  0.3337990E-009  0.8941434E+02  0.7818608E-02  0.1304276E+00
          2   -1    0    0  501    0  0.00000000000E+00  0.00000000000E+00  0.70727163339E+02  0.70727163385E+02  0.25500000000E-02 0. -1.
         -2   -1    0    0    0  501 -0.00000000000E+00 -0.00000000000E+00 -0.28259739669E+02  0.28259739784E+02  0.25500000000E-02 0.  1.
         23    2    1    2    0    0  0.00000000000E+00  0.00000000000E+00  0.42467423670E+02  0.98986903169E+02  0.89414344072E+02 0.  0.
    9000005    2    3    3    0    0  0.14690862180E+02  0.20146596946E+02 -0.18510641556E+02  0.33107989708E+02  0.11479909915E+02 0.  0.
         22    1    3    3    0    0 -0.14690862180E+02 -0.20146596946E+02  0.60978065225E+02  0.65878913460E+02  0.00000000000E+00 0. -1.
         22    1    4    4    0    0  0.71979960905E+01  0.29110928476E+01 -0.18249220159E+01  0.79759607352E+01  0.00000000000E+00 0.  1.
         22    1    4    4    0    0  0.74928660895E+01  0.17235504098E+02 -0.16685719540E+02  0.25132028973E+02  0.00000000000E+00 0.  1.
<mgrwt>
<rscale>  0 0.89414344E+02</rscale>
<asrwt>0</asrwt>
<pdfrwt beam="1">  1        2 0.10881102E-01 0.89414344E+02</pdfrwt>
<pdfrwt beam="2">  1       -2 0.43476523E-02 0.89414344E+02</pdfrwt>
<totfact> 0.11714490E+05</totfact>
</mgrwt>
</event>
<event>
 7    1  0.3337990E-009  0.8921320E+02  0.7818608E-02  0.1304768E+00
         -2   -1    0    0    0  501 -0.00000000000E+00  0.00000000000E+00  0.14627637018E+02  0.14627637240E+02  0.25500000000E-02 0. -1.
          2   -1    0    0  501    0  0.00000000000E+00 -0.00000000000E+00 -0.13602665545E+03  0.13602665547E+03  0.25500000000E-02 0.  1.
         23    2    1    2    0    0  0.00000000000E+00  0.44408920985E-15 -0.12139901843E+03  0.15065429271E+03  0.89213195419E+02 0.  0.
    9000005    2    3    3    0    0 -0.27395899377E+02 -0.30758868453E+01 -0.11968800384E+03  0.12303321465E+03  0.72081385307E+01 0.  0.
         22    1    3    3    0    0  0.27395899377E+02  0.30758868453E+01 -0.17110145926E+01  0.27621078066E+02  0.00000000000E+00 0. -1.
         22    1    4    4    0    0 -0.19681403750E+01 -0.10523873869E+01 -0.41412971215E+01  0.47044061895E+01  0.00000000000E+00 0. -1.
         22    1    4    4    0    0 -0.25427759002E+02 -0.20234994584E+01 -0.11554670671E+03  0.11832880846E+03  0.00000000000E+00 0. -1.
<mgrwt>
<rscale>  0 0.89213195E+02</rscale>
<asrwt>0</asrwt>
<pdfrwt beam="2">  1        2 0.20927177E-01 0.89213195E+02</pdfrwt>
<pdfrwt beam="1">  1       -2 0.22504058E-02 0.89213195E+02</pdfrwt>
<totfact> 0.14353220E+05</totfact>
</mgrwt>
</event>
<event>
 7    1  0.3337990E-009  0.9074862E+02  0.7818608E-02  0.1301049E+00
          2   -1    0    0  501    0  0.00000000000E+00  0.00000000000E+00  0.14297270284E+03  0.14297270287E+03  0.25500000000E-02 0. -1.
         -2   -1    0    0    0  501 -0.00000000000E+00 -0.00000000000E+00 -0.14400147355E+02  0.14400147581E+02  0.25500000000E-02 0.  1.
         23    2    1    2    0    0  0.00000000000E+00  0.00000000000E+00  0.12857255549E+03  0.15737285045E+03  0.90748620007E+02 0.  0.
    9000005    2    3    3    0    0  0.17292871282E+02 -0.75761014285E+00  0.13673734486E+03  0.13823437726E+03  0.10584148926E+02 0.  0.
         22    1    3    3    0    0 -0.17292871282E+02  0.75761014285E+00 -0.81647893706E+01  0.19138473183E+02  0.00000000000E+00 0.  1.
         22    1    4    4    0    0  0.18326571513E+02 -0.11758284534E+01  0.13435181276E+03  0.13560108918E+03  0.00000000000E+00 0.  1.
         22    1    4    4    0    0 -0.10337002312E+01  0.41821831053E+00  0.23855320991E+01  0.26332880813E+01  0.00000000000E+00 0.  1.
<mgrwt>
<rscale>  0 0.90748620E+02</rscale>
<asrwt>0</asrwt>
<pdfrwt beam="1">  1        2 0.21995801E-01 0.90748620E+02</pdfrwt>
<pdfrwt beam="2">  1       -2 0.22154072E-02 0.90748620E+02</pdfrwt>
<totfact> 0.13932975E+05</totfact>
</mgrwt>
</event>
<event>
 7    1  0.3337990E-009  0.9252888E+02  0.7818608E-02  0.1296841E+00
         -2   -1    0    0    0  501 -0.00000000000E+00  0.00000000000E+00  0.10580955762E+03  0.10580955765E+03  0.25500000000E-02 0.  1.
          2   -1    0    0  501    0  0.00000000000E+00 -0.00000000000E+00 -0.20228782358E+02  0.20228782519E+02  0.25500000000E-02 0. -1.
         23    2    1    2    0    0  0.00000000000E+00  0.00000000000E+00  0.85580775266E+02  0.12603834017E+03  0.92528882511E+02 0.  0.
    9000005    2    3    3    0    0  0.43261852086E+01 -0.44738868630E+02  0.34275399791E+02  0.57828928819E+02  0.12210640144E+02 0.  0.
         22    1    3    3    0    0 -0.43261852086E+01  0.44738868630E+02  0.51305375474E+02  0.68209411355E+02  0.00000000000E+00 0.  1.
         22    1    4    4    0    0  0.31982538570E+01 -0.14636259988E+02  0.18560560912E+02  0.23852533525E+02  0.00000000000E+00 0. -1.
         22    1    4    4    0    0  0.11279313515E+01 -0.30102608642E+02  0.15714838879E+02  0.33976395294E+02  0.00000000000E+00 0. -1.
<mgrwt>
<rscale>  0 0.92528883E+02</rscale>
<asrwt>0</asrwt>
<pdfrwt beam="2">  1        2 0.31121205E-02 0.92528883E+02</pdfrwt>
<pdfrwt beam="1">  1       -2 0.16278393E-01 0.92528883E+02</pdfrwt>
<totfact> 0.75625556E+04</totfact>
</mgrwt>
</event>
<event>
 7    1  0.3337990E-009  0.1020361E+03  0.7818608E-02  0.1276072E+00
          2   -1    0    0  501    0  0.00000000000E+00  0.00000000000E+00  0.27382337391E+03  0.27382337392E+03  0.25500000000E-02 0. -1.
         -2   -1    0    0    0  501 -0.00000000000E+00 -0.00000000000E+00 -0.95055438552E+01  0.95055441973E+01  0.25500000000E-02 0.  1.
         23    2    1    2    0    0  0.00000000000E+00  0.17763568394E-14  0.26431783005E+03  0.28332891812E+03  0.10203607479E+03 0.  0.
    9000005    2    3    3    0    0 -0.49196250354E+02  0.97351343251E+01  0.12656323702E+03  0.13672956003E+03  0.12715177246E+02 0.  0.
         22    1    3    3    0    0  0.49196250354E+02 -0.97351343251E+01  0.13775459303E+03  0.14659935809E+03  0.00000000000E+00 0.  1.
         22    1    4    4    0    0 -0.54308995638E+01 -0.29213312260E+01  0.16049263262E+02  0.17193245693E+02  0.00000000000E+00 0. -1.
         22    1    4    4    0    0 -0.43765350791E+02  0.12656465551E+02  0.11051397376E+03  0.11953631434E+03  0.00000000000E+00 0. -1.
<mgrwt>
<rscale>  0 0.10203607E+03</rscale>
<asrwt>0</asrwt>
<pdfrwt beam="1">  1        2 0.42126673E-01 0.10203607E+03</pdfrwt>
<pdfrwt beam="2">  1       -2 0.14623914E-02 0.10203607E+03</pdfrwt>
<totfact> 0.12827603E+05</totfact>
</mgrwt>
</event>
<event>
 7    1  0.3337990E-009  0.9096684E+02  0.7818608E-02  0.1300527E+00
          2   -1    0    0  501    0  0.00000000000E+00  0.00000000000E+00  0.14172727337E+03  0.14172727339E+03  0.25500000000E-02 0. -1.
         -2   -1    0    0    0  501 -0.00000000000E+00 -0.00000000000E+00 -0.14596634904E+02  0.14596635126E+02  0.25500000000E-02 0.  1.
         23    2    1    2    0    0  0.00000000000E+00  0.71054273576E-14  0.12713063847E+03  0.15632390852E+03  0.90966835373E+02 0.  0.
    9000005    2    3    3    0    0  0.21026447364E+01 -0.40337542698E+02  0.96930456984E+02  0.10588989790E+03  0.13624188775E+02 0.  0.
         22    1    3    3    0    0 -0.21026447364E+01  0.40337542698E+02  0.30200181482E+02  0.50434010621E+02  0.00000000000E+00 0. -1.
         22    1    4    4    0    0  0.36021485050E+01 -0.55789043745E+01  0.26711994060E+02  0.27525084460E+02  0.00000000000E+00 0. -1.
         22    1    4    4    0    0 -0.14995037686E+01 -0.34758638324E+02  0.70218462924E+02  0.78364813437E+02  0.00000000000E+00 0. -1.
<mgrwt>
<rscale>  0 0.90966835E+02</rscale>
<asrwt>0</asrwt>
<pdfrwt beam="1">  1        2 0.21804197E-01 0.90966835E+02</pdfrwt>
<pdfrwt beam="2">  1       -2 0.22456361E-02 0.90966835E+02</pdfrwt>
<totfact> 0.13801843E+05</totfact>
</mgrwt>
</event>
<event>
 7    1  0.3337990E-009  0.9005924E+02  0.7818608E-02  0.1302708E+00
         -2   -1    0    0    0  501 -0.00000000000E+00  0.00000000000E+00  0.40346376121E+01  0.40346384179E+01  0.25500000000E-02 0.  1.
          2   -1    0    0  501    0  0.00000000000E+00 -0.00000000000E+00 -0.50256475916E+03  0.50256475917E+03  0.25500000000E-02 0. -1.
         23    2    1    2    0    0  0.00000000000E+00  0.17763568394E-14 -0.49853012155E+03  0.50659939759E+03  0.90059244624E+02 0.  0.
    9000005    2    3    3    0    0  0.40920903166E+02  0.15843549808E+02 -0.26862732301E+03  0.27254633701E+03  0.13976006807E+02 0.  0.
         22    1    3    3    0    0 -0.40920903166E+02 -0.15843549808E+02 -0.22990279854E+03  0.23405306057E+03  0.00000000000E+00 0. -1.
         22    1    4    4    0    0  0.17395027167E+00  0.38229931800E+00 -0.28063944399E+02  0.28067087250E+02  0.00000000000E+00 0. -1.
         22    1    4    4    0    0  0.40746952894E+02  0.15461250490E+02 -0.24056337861E+03  0.24447924976E+03  0.00000000000E+00 0. -1.
<mgrwt>
<rscale>  0 0.90059245E+02</rscale>
<asrwt>0</asrwt>
<pdfrwt beam="2">  1        2 0.77317606E-01 0.90059245E+02</pdfrwt>
<pdfrwt beam="1">  1       -2 0.62071394E-03 0.90059245E+02</pdfrwt>
<totfact> 0.22300924E+05</totfact>
</mgrwt>
</event>
<event>
 7    1  0.3337990E-009  0.9078689E+02  0.7818608E-02  0.1300957E+00
         -2   -1    0    0    0  501 -0.00000000000E+00  0.00000000000E+00  0.16467838686E+03  0.16467838688E+03  0.25500000000E-02 0.  1.
          2   -1    0    0  501    0  0.00000000000E+00 -0.00000000000E+00 -0.12512661204E+02  0.12512661464E+02  0.25500000000E-02 0. -1.
         23    2    1    2    0    0 -0.35527136788E-14  0.00000000000E+00  0.15216572566E+03  0.17719104834E+03  0.90786890842E+02 0.  0.
    9000005    2    3    3    0    0  0.30410127567E+02  0.51344310489E+01  0.14032516831E+03  0.14415565764E+03  0.11771258521E+02 0.  0.
         22    1    3    3    0    0 -0.30410127567E+02 -0.51344310489E+01  0.11840557348E+02  0.33035390707E+02  0.00000000000E+00 0. -1.
         22    1    4    4    0    0  0.28570710676E+02  0.60251128310E+01  0.11155779144E+03  0.11531577656E+03  0.00000000000E+00 0. -1.
         22    1    4    4    0    0  0.18394168914E+01 -0.89068178206E+00  0.28767376867E+02  0.28839881073E+02  0.00000000000E+00 0. -1.
<mgrwt>
<rscale>  0 0.90786891E+02</rscale>
<asrwt>0</asrwt>
<pdfrwt beam="2">  1        2 0.19250250E-02 0.90786891E+02</pdfrwt>
<pdfrwt beam="1">  1       -2 0.25335134E-01 0.90786891E+02</pdfrwt>
<totfact> 0.68198267E+04</totfact>
</mgrwt>
</event>
<event>
 7    1  0.3337990E-009  0.1109933E+03  0.7818608E-02  0.1258741E+00
          2   -1    0    0  501    0  0.00000000000E+00  0.00000000000E+00  0.65754274590E+03  0.65754274590E+03  0.25500000000E-02 0. -1.
         -2   -1    0    0    0  501 -0.00000000000E+00 -0.00000000000E+00 -0.46839246026E+01  0.46839252968E+01  0.25500000000E-02 0.  1.
         23    2    1    2    0    0  0.35527136788E-14  0.00000000000E+00  0.65285882129E+03  0.66222667120E+03  0.11099334892E+03 0.  0.
    9000005    2    3    3    0    0  0.27232068859E+02  0.29420895518E+02  0.55341358741E+03  0.55500480211E+03  0.12512272924E+02 0.  0.
         22    1    3    3    0    0 -0.27232068859E+02 -0.29420895518E+02  0.99445233886E+02  0.10722186908E+03  0.00000000000E+00 0.  1.
         22    1    4    4    0    0  0.27704093859E+02  0.30199491959E+02  0.53422326006E+03  0.53579288696E+03  0.00000000000E+00 0.  1.
         22    1    4    4    0    0 -0.47202500026E+00 -0.77859644090E+00  0.19190327350E+02  0.19211915152E+02  0.00000000000E+00 0.  1.
<mgrwt>
<rscale>  0 0.11099335E+03</rscale>
<asrwt>0</asrwt>
<pdfrwt beam="1">  1        2 0.10116042E+00 0.11099335E+03</pdfrwt>
<pdfrwt beam="2">  1       -2 0.72060384E-03 0.11099335E+03</pdfrwt>
<totfact> 0.13826186E+05</totfact>
</mgrwt>
</event>
<event>
 7    1  0.3337990E-009  0.9003948E+02  0.7818608E-02  0.1302756E+00
         -2   -1    0    0    0  501 -0.00000000000E+00  0.00000000000E+00  0.73150598949E+02  0.73150598994E+02  0.25500000000E-02 0.  1.
          2   -1    0    0  501    0  0.00000000000E+00 -0.00000000000E+00 -0.27706908691E+02  0.27706908809E+02  0.25500000000E-02 0. -1.
         23    2    1    2    0    0  0.35527136788E-14 -0.17763568394E-14  0.45443690258E+02  0.10085750780E+03  0.90039479651E+02 0.  0.
    9000005    2    3    3    0    0 -0.26967450744E+02  0.14369156402E+02  0.58778262653E+02  0.67517938574E+02  0.13041158443E+02 0.  0.
         22    1    3    3    0    0  0.26967450744E+02 -0.14369156402E+02 -0.13334572395E+02  0.33339569228E+02  0.00000000000E+00 0. -1.
         22    1    4    4    0    0 -0.18812614712E+02  0.27457739008E+01  0.32724619595E+02  0.37846459204E+02  0.00000000000E+00 0.  1.
         22    1    4    4    0    0 -0.81548360324E+01  0.11623382501E+02  0.26053643058E+02  0.29671479371E+02  0.00000000000E+00 0.  1.
<mgrwt>
<rscale>  0 0.90039480E+02</rscale>
<asrwt>0</asrwt>
<pdfrwt beam="2">  1        2 0.42626014E-02 0.90039480E+02</pdfrwt>
<pdfrwt beam="1">  1       -2 0.11253938E-01 0.90039480E+02</pdfrwt>
<totfact> 0.89896595E+04</totfact>
</mgrwt>
</event>
<event>
 7    1  0.3337990E-009  0.9278990E+02  0.7818608E-02  0.1296233E+00
          2   -1    0    0  501    0  0.00000000000E+00  0.00000000000E+00  0.16193403703E+02  0.16193403904E+02  0.25500000000E-02 0. -1.
         -2   -1    0    0    0  501 -0.00000000000E+00 -0.00000000000E+00 -0.13292397300E+03  0.13292397302E+03  0.25500000000E-02 0.  1.
         23    2    1    2    0    0  0.35527136788E-14  0.00000000000E+00 -0.11673056930E+03  0.14911737693E+03  0.92789904050E+02 0.  0.
    9000005    2    3    3    0    0  0.29679277694E+02  0.10191288161E+02 -0.11305652330E+03  0.11752274933E+03  0.67154502495E+01 0.  0.
         22    1    3    3    0    0 -0.29679277694E+02 -0.10191288161E+02 -0.36740459996E+01  0.31594627594E+02  0.00000000000E+00 0. -1.
         22    1    4    4    0    0  0.17767885868E+02  0.26614765213E+01 -0.60706623566E+02  0.63309362422E+02  0.00000000000E+00 0. -1.
         22    1    4    4    0    0  0.11911391826E+02  0.75298116396E+01 -0.52349899731E+02  0.54213386912E+02  0.00000000000E+00 0. -1.
<mgrwt>
<rscale>  0 0.92789904E+02</rscale>
<asrwt>0</asrwt>
<pdfrwt beam="1">  1        2 0.24912930E-02 0.92789904E+02</pdfrwt>
<pdfrwt beam="2">  1       -2 0.20449841E-01 0.92789904E+02</pdfrwt>
<totfact> 0.69741121E+04</totfact>
</mgrwt>
</event>
<event>
 7    1  0.3337990E-009  0.9157922E+02  0.7818608E-02  0.1299072E+00
          2   -1    0    0  501    0  0.00000000000E+00  0.00000000000E+00  0.16262214013E+03  0.16262214015E+03  0.25500000000E-02 0. -1.
         -2   -1    0    0    0  501 -0.00000000000E+00 -0.00000000000E+00 -0.12893007568E+02  0.12893007820E+02  0.25500000000E-02 0.  1.
         23    2    1    2    0    0  0.71054273576E-14  0.00000000000E+00  0.14972913256E+03  0.17551514797E+03  0.91579222694E+02 0.  0.
    9000005    2    3    3    0    0 -0.34766613435E+02  0.14919721340E+02  0.12212398605E+03  0.12868183068E+03  0.14609246502E+02 0.  0.
         22    1    3    3    0    0  0.34766613435E+02 -0.14919721340E+02  0.27605146509E+02  0.46833317290E+02  0.00000000000E+00 0. -1.
         22    1    4    4    0    0 -0.25070340740E+02  0.88923994536E+01  0.61719047123E+02  0.67207421692E+02  0.00000000000E+00 0. -1.
         22    1    4    4    0    0 -0.96962726951E+01  0.60273218859E+01  0.60404938926E+02  0.61474408985E+02  0.00000000000E+00 0. -1.
<mgrwt>
<rscale>  0 0.91579223E+02</rscale>
<asrwt>0</asrwt>
<pdfrwt beam="1">  1        2 0.25018790E-01 0.91579223E+02</pdfrwt>
<pdfrwt beam="2">  1       -2 0.19835397E-02 0.91579223E+02</pdfrwt>
<totfact> 0.14203647E+05</totfact>
</mgrwt>
</event>
<event>
 7    1  0.3337990E-009  0.9350744E+02  0.7818608E-02  0.1294574E+00
         -2   -1    0    0    0  501 -0.00000000000E+00  0.00000000000E+00  0.52298044710E+01  0.52298050927E+01  0.25500000000E-02 0.  1.
          2   -1    0    0  501    0  0.00000000000E+00 -0.00000000000E+00 -0.41797173110E+03  0.41797173110E+03  0.25500000000E-02 0. -1.
         23    2    1    2    0    0  0.00000000000E+00  0.71054273576E-14 -0.41274192662E+03  0.42320153620E+03  0.93507444864E+02 0.  0.
    9000005    2    3    3    0    0  0.16104469936E+01  0.33293746083E+02 -0.35351748759E+03  0.35524124450E+03  0.10519538884E+02 0.  0.
         22    1    3    3    0    0 -0.16104469936E+01 -0.33293746083E+02 -0.59224439038E+02  0.67960291694E+02  0.00000000000E+00 0.  1.
         22    1    4    4    0    0 -0.42952660671E+01  0.11809710107E+02 -0.11452257885E+03  0.11520998060E+03  0.00000000000E+00 0. -1.
         22    1    4    4    0    0  0.59057130607E+01  0.21484035976E+02 -0.23899490874E+03  0.24003126391E+03  0.00000000000E+00 0. -1.
<mgrwt>
<rscale>  0 0.93507445E+02</rscale>
<asrwt>0</asrwt>
<pdfrwt beam="2">  1        2 0.64303317E-01 0.93507445E+02</pdfrwt>
<pdfrwt beam="1">  1       -2 0.80458569E-03 0.93507445E+02</pdfrwt>
<totfact> 0.18960822E+05</totfact>
</mgrwt>
</event>
<event>
 7    1  0.3337990E-009  0.9286429E+02  0.7818608E-02  0.1296060E+00
          2   -1    0    0  501    0  0.00000000000E+00  0.00000000000E+00  0.90185644859E+02  0.90185644895E+02  0.25500000000E-02 0. -1.
         -2   -1    0    0    0  501 -0.00000000000E+00 -0.00000000000E+00 -0.23905625911E+02  0.23905626047E+02  0.25500000000E-02 0.  1.
         23    2    1    2    0    0  0.00000000000E+00  0.00000000000E+00  0.66280018947E+02  0.11409127094E+03  0.92864294503E+02 0.  0.
    9000005    2    3    3    0    0 -0.44383511768E+02 -0.11411836660E+02  0.27163770014E+02  0.53840071257E+02  0.77946609130E+01 0.  0.
         22    1    3    3    0    0  0.44383511768E+02  0.11411836660E+02  0.39116248934E+02  0.60251199685E+02  0.00000000000E+00 0. -1.
         22    1    4    4    0    0 -0.24709712511E+02 -0.43998641636E+01  0.18724377962E+02  0.31313432056E+02  0.00000000000E+00 0. -1.
         22    1    4    4    0    0 -0.19673799257E+02 -0.70119724965E+01  0.84393920518E+01  0.22526639201E+02  0.00000000000E+00 0. -1.
<mgrwt>
<rscale>  0 0.92864295E+02</rscale>
<asrwt>0</asrwt>
<pdfrwt beam="1">  1        2 0.13874714E-01 0.92864295E+02</pdfrwt>
<pdfrwt beam="2">  1       -2 0.36777887E-02 0.92864295E+02</pdfrwt>
<totfact> 0.11303826E+05</totfact>
</mgrwt>
</event>
<event>
 7    1  0.3337990E-009  0.9207329E+02  0.7818608E-02  0.1297907E+00
         -2   -1    0    0    0  501 -0.00000000000E+00  0.00000000000E+00  0.22189933458E+02  0.22189933604E+02  0.25500000000E-02 0. -1.
          2   -1    0    0  501    0  0.00000000000E+00 -0.00000000000E+00 -0.95510539351E+02  0.95510539385E+02  0.25500000000E-02 0.  1.
         23    2    1    2    0    0  0.17763568394E-14  0.00000000000E+00 -0.73320605893E+02  0.11770047299E+03  0.92073286535E+02 0.  0.
    9000005    2    3    3    0    0 -0.15861875670E+02  0.10867469806E+02 -0.90129022674E+02  0.92161798896E+02  0.92490422715E+00 0.  0.
         22    1    3    3    0    0  0.15861875670E+02 -0.10867469806E+02  0.16808416781E+02  0.25538674093E+02  0.00000000000E+00 0. -1.
         22    1    4    4    0    0 -0.11109809958E+02  0.80980991859E+01 -0.63815040794E+02  0.65279143065E+02  0.00000000000E+00 0. -1.
         22    1    4    4    0    0 -0.47520657122E+01  0.27693706196E+01 -0.26313981880E+02  0.26882655831E+02  0.00000000000E+00 0. -1.
<mgrwt>
<rscale>  0 0.92073287E+02</rscale>
<asrwt>0</asrwt>
<pdfrwt beam="2">  1        2 0.14693929E-01 0.92073287E+02</pdfrwt>
<pdfrwt beam="1">  1       -2 0.34138360E-02 0.92073287E+02</pdfrwt>
<totfact> 0.11775677E+05</totfact>
</mgrwt>
</event>
<event>
 7    1  0.3337990E-009  0.8927586E+02  0.7818608E-02  0.1304615E+00
          2   -1    0    0  501    0  0.00000000000E+00  0.00000000000E+00  0.25235400996E+03  0.25235400997E+03  0.25500000000E-02 0. -1.
         -2   -1    0    0    0  501 -0.00000000000E+00 -0.00000000000E+00 -0.78958320376E+01  0.78958324494E+01  0.25500000000E-02 0.  1.
         23    2    1    2    0    0  0.00000000000E+00 -0.35527136788E-14  0.24445817792E+03  0.26024984242E+03  0.89275863074E+02 0.  0.
    9000005    2    3    3    0    0  0.55122773388E+01  0.25298785672E+02  0.22779773978E+03  0.22946049431E+03  0.94812680638E+01 0.  0.
         22    1    3    3    0    0 -0.55122773388E+01 -0.25298785672E+02  0.16660438147E+02  0.30789348112E+02  0.00000000000E+00 0.  1.
         22    1    4    4    0    0  0.10186141624E+01 -0.29142114961E-02  0.27788830244E+02  0.27807493048E+02  0.00000000000E+00 0.  1.
         22    1    4    4    0    0  0.44936631765E+01  0.25301699884E+02  0.20000890953E+03  0.20165300126E+03  0.00000000000E+00 0.  1.
<mgrwt>
<rscale>  0 0.89275863E+02</rscale>
<asrwt>0</asrwt>
<pdfrwt beam="1">  1        2 0.38823687E-01 0.89275863E+02</pdfrwt>
<pdfrwt beam="2">  1       -2 0.12147436E-02 0.89275863E+02</pdfrwt>
<totfact> 0.17820157E+05</totfact>
</mgrwt>
</event>
<event>
 7    1  0.3337990E-009  0.1172849E+03  0.7818608E-02  0.1247644E+00
         -2   -1    0    0    0  501 -0.00000000000E+00  0.00000000000E+00  0.12148839954E+03  0.12148839957E+03  0.25500000000E-02 0.  1.
          2   -1    0    0  501    0  0.00000000000E+00 -0.00000000000E+00 -0.28306722357E+02  0.28306722472E+02  0.25500000000E-02 0. -1.
         23    2    1    2    0    0  0.00000000000E+00  0.00000000000E+00  0.93181677181E+02  0.14979512204E+03  0.11728492496E+03 0.  0.
    9000005    2    3    3    0    0 -0.13294575321E+02 -0.49319519614E+01  0.11898902381E+03  0.12034874665E+03  0.11151822733E+02 0.  0.
         22    1    3    3    0    0  0.13294575321E+02  0.49319519614E+01 -0.25807346631E+02  0.29446375384E+02  0.00000000000E+00 0. -1.
         22    1    4    4    0    0 -0.98019756928E+01 -0.76180261515E+01  0.64631545573E+02  0.65812990611E+02  0.00000000000E+00 0. -1.
         22    1    4    4    0    0 -0.34925996286E+01  0.26860741901E+01  0.54357478238E+02  0.54535756043E+02  0.00000000000E+00 0. -1.
<mgrwt>
<rscale>  0 0.11728492E+03</rscale>
<asrwt>0</asrwt>
<pdfrwt beam="2">  1        2 0.43548803E-02 0.11728492E+03</pdfrwt>
<pdfrwt beam="1">  1       -2 0.18690523E-01 0.11728492E+03</pdfrwt>
<totfact> 0.39966460E+04</totfact>
</mgrwt>
</event>
<event>
 7    1  0.3337990E-009  0.8711664E+02  0.7818608E-02  0.1309988E+00
          2   -1    0    0  501    0  0.00000000000E+00  0.00000000000E+00  0.49342462126E+02  0.49342462192E+02  0.25500000000E-02 0. -1.
         -2   -1    0    0    0  501 -0.00000000000E+00 -0.00000000000E+00 -0.38452220365E+02  0.38452220450E+02  0.25500000000E-02 0.  1.
         23    2    1    2    0    0  0.17763568394E-14 -0.35527136788E-14  0.10890241761E+02  0.87794682642E+02  0.87116639826E+02 0.  0.
    9000005    2    3    3    0    0 -0.86875492659E+01  0.25352845314E+02  0.38467306042E+02  0.49340362311E+02  0.15378473300E+02 0.  0.
         22    1    3    3    0    0  0.86875492659E+01 -0.25352845314E+02 -0.27577064281E+02  0.38454320331E+02  0.00000000000E+00 0.  1.
         22    1    4    4    0    0  0.13550507727E+01  0.18733068150E+02  0.21602768548E+02  0.28625925555E+02  0.00000000000E+00 0. -1.
         22    1    4    4    0    0 -0.10042600039E+02  0.66197771639E+01  0.16864537494E+02  0.20714436756E+02  0.00000000000E+00 0. -1.
<mgrwt>
<rscale>  0 0.87116640E+02</rscale>
<asrwt>0</asrwt>
<pdfrwt beam="1">  1        2 0.75911481E-02 0.87116640E+02</pdfrwt>
<pdfrwt beam="2">  1       -2 0.59157262E-02 0.87116640E+02</pdfrwt>
<totfact> 0.11463715E+05</totfact>
</mgrwt>
</event>
<event>
 7    1  0.3337990E-009  0.8890242E+02  0.7818608E-02  0.1305532E+00
         -2   -1    0    0    0  501 -0.00000000000E+00  0.00000000000E+00  0.52151655932E+02  0.52151655994E+02  0.25500000000E-02 0.  1.
          2   -1    0    0  501    0  0.00000000000E+00 -0.00000000000E+00 -0.37887769587E+02  0.37887769673E+02  0.25500000000E-02 0. -1.
         23    2    1    2    0    0  0.00000000000E+00 -0.17763568394E-14  0.14263886345E+02  0.90039425667E+02  0.88902416844E+02 0.  0.
    9000005    2    3    3    0    0 -0.20813284550E+02  0.12358533437E+02 -0.28703068860E+02  0.40723247772E+02  0.15766755678E+02 0.  0.
         22    1    3    3    0    0  0.20813284550E+02 -0.12358533437E+02  0.42966955205E+02  0.49316177894E+02  0.00000000000E+00 0.  1.
         22    1    4    4    0    0  0.10699406110E+01  0.78742027583E+00 -0.89658852042E+01  0.90637685924E+01  0.00000000000E+00 0.  1.
         22    1    4    4    0    0 -0.21883225161E+02  0.11571113161E+02 -0.19737183656E+02  0.31659479180E+02  0.00000000000E+00 0.  1.
<mgrwt>
<rscale>  0 0.88902417E+02</rscale>
<asrwt>0</asrwt>
<pdfrwt beam="2">  1        2 0.58288877E-02 0.88902417E+02</pdfrwt>
<pdfrwt beam="1">  1       -2 0.80233317E-02 0.88902417E+02</pdfrwt>
<totfact> 0.10120190E+05</totfact>
</mgrwt>
</event>
<event>
 7    1  0.3337990E-009  0.9658506E+02  0.7818608E-02  0.1287646E+00
         -2   -1    0    0    0  501 -0.00000000000E+00  0.00000000000E+00  0.69476095867E+02  0.69476095914E+02  0.25500000000E-02 0.  1.
          2   -1    0    0  501    0  0.00000000000E+00 -0.00000000000E+00 -0.33567924926E+02  0.33567925023E+02  0.25500000000E-02 0. -1.
         23    2    1    2    0    0  0.00000000000E+00  0.00000000000E+00  0.35908170941E+02  0.10304402094E+03  0.96585058422E+02 0.  0.
    9000005    2    3    3    0    0 -0.23153245713E+02 -0.38540121045E+02  0.10532555808E+01  0.46155719485E+02  0.10383996180E+02 0.  0.
         22    1    3    3    0    0  0.23153245713E+02  0.38540121045E+02  0.34854915360E+02  0.56888301451E+02  0.00000000000E+00 0. -1.
         22    1    4    4    0    0 -0.63249844230E+01 -0.19527232587E+02 -0.18027068079E+01  0.20605047738E+02  0.00000000000E+00 0.  1.
         22    1    4    4    0    0 -0.16828261290E+02 -0.19012888458E+02  0.28559623887E+01  0.25550671747E+02  0.00000000000E+00 0.  1.
<mgrwt>
<rscale>  0 0.96585058E+02</rscale>
<asrwt>0</asrwt>
<pdfrwt beam="2">  1        2 0.51642962E-02 0.96585058E+02</pdfrwt>
<pdfrwt beam="1">  1       -2 0.10688630E-01 0.96585058E+02</pdfrwt>
<totfact> 0.76839020E+04</totfact>
</mgrwt>
</event>
<event>
 7    1  0.3337990E-009  0.9104054E+02  0.7818608E-02  0.1300351E+00
          2   -1    0    0  501    0  0.00000000000E+00  0.00000000000E+00  0.65160350024E+01  0.65160355013E+01  0.25500000000E-02 0.  1.
         -2   -1    0    0    0  501 -0.00000000000E+00 -0.00000000000E+00 -0.31799933047E+03  0.31799933048E+03  0.25500000000E-02 0. -1.
         23    2    1    2    0    0  0.17763568394E-14  0.00000000000E+00 -0.31148329547E+03  0.32451536599E+03  0.91040537141E+02 0.  0.
    9000005    2    3    3    0    0  0.13177644032E+02  0.55722103562E+01 -0.30973467490E+03  0.31010157036E+03  0.47660539988E+01 0.  0.
         22    1    3    3    0    0 -0.13177644032E+02 -0.55722103562E+01 -0.17486205683E+01  0.14413795627E+02  0.00000000000E+00 0.  1.
         22    1    4    4    0    0  0.10723469519E+02  0.29372599229E+01 -0.25945547478E+03  0.25969359577E+03  0.00000000000E+00 0.  1.
         22    1    4    4    0    0  0.24541745132E+01  0.26349504333E+01 -0.50279200127E+02  0.50407974584E+02  0.00000000000E+00 0.  1.
<mgrwt>
<rscale>  0 0.91040537E+02</rscale>
<asrwt>0</asrwt>
<pdfrwt beam="1">  1        2 0.10024672E-02 0.91040537E+02</pdfrwt>
<pdfrwt beam="2">  1       -2 0.48922962E-01 0.91040537E+02</pdfrwt>
<totfact> 0.49516922E+04</totfact>
</mgrwt>
</event>
<event>
 7    1  0.3337990E-009  0.9029793E+02  0.7818608E-02  0.1302132E+00
          2   -1    0    0  501    0  0.00000000000E+00  0.00000000000E+00  0.73338990573E+02  0.73338990617E+02  0.25500000000E-02 0. -1.
         -2   -1    0    0    0  501 -0.00000000000E+00 -0.00000000000E+00 -0.27794617423E+02  0.27794617540E+02  0.25500000000E-02 0.  1.
         23    2    1    2    0    0  0.00000000000E+00  0.00000000000E+00  0.45544373150E+02  0.10113360816E+03  0.90297933383E+02 0.  0.
    9000005    2    3    3    0    0  0.10244953194E+02 -0.39803663551E+02  0.65414653716E+01  0.44472179361E+02  0.15674605894E+02 0.  0.
         22    1    3    3    0    0 -0.10244953194E+02  0.39803663551E+02  0.39002907779E+02  0.56661428796E+02  0.00000000000E+00 0.  1.
         22    1    4    4    0    0  0.79721421291E+01 -0.26405427500E+02 -0.31771298634E+01  0.27765010458E+02  0.00000000000E+00 0. -1.
         22    1    4    4    0    0  0.22728110645E+01 -0.13398236051E+02  0.97185952350E+01  0.16707168903E+02  0.00000000000E+00 0. -1.
<mgrwt>
<rscale>  0 0.90297933E+02</rscale>
<asrwt>0</asrwt>
<pdfrwt beam="1">  1        2 0.11282922E-01 0.90297933E+02</pdfrwt>
<pdfrwt beam="2">  1       -2 0.42760950E-02 0.90297933E+02</pdfrwt>
<totfact> 0.11513128E+05</totfact>
</mgrwt>
</event>
<event>
 7    1  0.3337990E-009  0.9027760E+02  0.7818608E-02  0.1302181E+00
         -2   -1    0    0    0  501 -0.00000000000E+00  0.00000000000E+00  0.17427764583E+03  0.17427764585E+03  0.25500000000E-02 0.  1.
          2   -1    0    0  501    0  0.00000000000E+00 -0.00000000000E+00 -0.11691180770E+02  0.11691181048E+02  0.25500000000E-02 0. -1.
         23    2    1    2    0    0  0.00000000000E+00  0.00000000000E+00  0.16258646506E+03  0.18596882689E+03  0.90277604956E+02 0.  0.
    9000005    2    3    3    0    0  0.24169455730E+02 -0.36661350840E+02  0.93382837442E+02  0.10400932890E+03  0.13014182063E+02 0.  0.
         22    1    3    3    0    0 -0.24169455730E+02  0.36661350840E+02  0.69203627615E+02  0.81959497989E+02  0.00000000000E+00 0.  1.
         22    1    4    4    0    0  0.66505636908E+01 -0.19737029553E+02  0.51596886054E+02  0.55641881560E+02  0.00000000000E+00 0.  1.
         22    1    4    4    0    0  0.17518892039E+02 -0.16924321287E+02  0.41785951388E+02  0.48367447345E+02  0.00000000000E+00 0.  1.
<mgrwt>
<rscale>  0 0.90277605E+02</rscale>
<asrwt>0</asrwt>
<pdfrwt beam="2">  1        2 0.17986431E-02 0.90277605E+02</pdfrwt>
<pdfrwt beam="1">  1       -2 0.26811947E-01 0.90277605E+02</pdfrwt>
<totfact> 0.67667491E+04</totfact>
</mgrwt>
</event>
<event>
 7    1  0.3337990E-009  0.9049834E+02  0.7818608E-02  0.1301649E+00
          2   -1    0    0  501    0  0.00000000000E+00  0.00000000000E+00  0.11994854794E+03  0.11994854797E+03  0.25500000000E-02 0. -1.
         -2   -1    0    0    0  501 -0.00000000000E+00 -0.00000000000E+00 -0.17069712861E+02  0.17069713051E+02  0.25500000000E-02 0.  1.
         23    2    1    2    0    0  0.00000000000E+00  0.00000000000E+00  0.10287883508E+03  0.13701826102E+03  0.90498337803E+02 0.  0.
    9000005    2    3    3    0    0 -0.33539514986E+01  0.10037590934E+02  0.11803239943E+03  0.11853495138E+03  0.26239588749E+01 0.  0.
         22    1    3    3    0    0  0.33539514986E+01 -0.10037590934E+02 -0.15153564356E+02  0.18483309636E+02  0.00000000000E+00 0.  1.
         22    1    4    4    0    0  0.22493114548E+00  0.43317735649E-01  0.12312655970E+01  0.12523918783E+01  0.00000000000E+00 0.  1.
         22    1    4    4    0    0 -0.35788826440E+01  0.99942731982E+01  0.11680113384E+03  0.11728255950E+03  0.00000000000E+00 0.  1.
<mgrwt>
<rscale>  0 0.90498338E+02</rscale>
<asrwt>0</asrwt>
<pdfrwt beam="1">  1        2 0.18453622E-01 0.90498338E+02</pdfrwt>
<pdfrwt beam="2">  1       -2 0.26261098E-02 0.90498338E+02</pdfrwt>
<totfact> 0.13252237E+05</totfact>
</mgrwt>
</event>
<event>
 7    1  0.3337990E-009  0.9217794E+02  0.7818608E-02  0.1297662E+00
         -2   -1    0    0    0  501 -0.00000000000E+00  0.00000000000E+00  0.32881315258E+02  0.32881315357E+02  0.25500000000E-02 0.  1.
          2   -1    0    0  501    0  0.00000000000E+00 -0.00000000000E+00 -0.64601828713E+02  0.64601828764E+02  0.25500000000E-02 0. -1.
         23    2    1    2    0    0  0.00000000000E+00  0.00000000000E+00 -0.31720513455E+02  0.97483144121E+02  0.92177938867E+02 0.  0.
    9000005    2    3    3    0    0  0.43683195933E+02 -0.14776148594E+01 -0.51008494990E+01  0.46306865811E+02  0.14418814204E+02 0.  0.
         22    1    3    3    0    0 -0.43683195933E+02  0.14776148594E+01 -0.26619663956E+02  0.51176278310E+02  0.00000000000E+00 0. -1.
         22    1    4    4    0    0  0.41211995090E+02 -0.74005875133E-01 -0.88378659734E+00  0.41221536785E+02  0.00000000000E+00 0.  1.
         22    1    4    4    0    0  0.24712008429E+01 -0.14036089842E+01 -0.42170629016E+01  0.50853290260E+01  0.00000000000E+00 0.  1.
<mgrwt>
<rscale>  0 0.92177939E+02</rscale>
<asrwt>0</asrwt>
<pdfrwt beam="2">  1        2 0.99387428E-02 0.92177939E+02</pdfrwt>
<pdfrwt beam="1">  1       -2 0.50586639E-02 0.92177939E+02</pdfrwt>
<totfact> 0.10493331E+05</totfact>
</mgrwt>
</event>
<event>
 7    1  0.3337990E-009  0.9056324E+02  0.7818608E-02  0.1301493E+00
         -2   -1    0    0    0  501 -0.00000000000E+00  0.00000000000E+00  0.28318117018E+01  0.28318128499E+01  0.25500000000E-02 0.  1.
          2   -1    0    0  501    0  0.00000000000E+00 -0.00000000000E+00 -0.72406808459E+03  0.72406808460E+03  0.25500000000E-02 0. -1.
         23    2    1    2    0    0  0.35527136788E-14  0.00000000000E+00 -0.72123627289E+03  0.72689989745E+03  0.90563235228E+02 0.  0.
    9000005    2    3    3    0    0 -0.26627458551E+02 -0.33246384860E+02 -0.47540903558E+03  0.47740966866E+03  0.95862905287E+01 0.  0.
         22    1    3    3    0    0  0.26627458551E+02  0.33246384860E+02 -0.24582723731E+03  0.24949022879E+03  0.00000000000E+00 0.  1.
         22    1    4    4    0    0 -0.27232419083E+02 -0.33122353548E+02 -0.46176616377E+03  0.46375282743E+03  0.00000000000E+00 0. -1.
         22    1    4    4    0    0  0.60496053173E+00 -0.12403131211E+00 -0.13642871810E+02  0.13656841225E+02  0.00000000000E+00 0. -1.
<mgrwt>
<rscale>  0 0.90563235E+02</rscale>
<asrwt>0</asrwt>
<pdfrwt beam="2">  1        2 0.11139494E+00 0.90563235E+02</pdfrwt>
<pdfrwt beam="1">  1       -2 0.43566400E-03 0.90563235E+02</pdfrwt>
<totfact> 0.24325609E+05</totfact>
</mgrwt>
</event>
<event>
 7    1  0.3337990E-009  0.9157993E+02  0.7818608E-02  0.1299070E+00
         -2   -1    0    0    0  501 -0.00000000000E+00  0.00000000000E+00  0.10389079696E+02  0.10389080009E+02  0.25500000000E-02 0.  1.
          2   -1    0    0  501    0  0.00000000000E+00 -0.00000000000E+00 -0.20181967506E+03  0.20181967508E+03  0.25500000000E-02 0. -1.
         23    2    1    2    0    0  0.71054273576E-14  0.00000000000E+00 -0.19143059537E+03  0.21220875509E+03  0.91579926257E+02 0.  0.
    9000005    2    3    3    0    0  0.41592585421E+02  0.39167600754E+01 -0.59741217101E+02  0.74051683174E+02  0.13013630883E+02 0.  0.
         22    1    3    3    0    0 -0.41592585421E+02 -0.39167600754E+01 -0.13168937827E+03  0.13815707191E+03  0.00000000000E+00 0. -1.
         22    1    4    4    0    0  0.37014259829E+02  0.12151446674E+01 -0.44412552900E+02  0.57827388514E+02  0.00000000000E+00 0.  1.
         22    1    4    4    0    0  0.45783255918E+01  0.27016154080E+01 -0.15328664201E+02  0.16224294660E+02  0.00000000000E+00 0.  1.
<mgrwt>
<rscale>  0 0.91579926E+02</rscale>
<asrwt>0</asrwt>
<pdfrwt beam="2">  1        2 0.31049178E-01 0.91579926E+02</pdfrwt>
<pdfrwt beam="1">  1       -2 0.15983201E-02 0.91579926E+02</pdfrwt>
<totfact> 0.15335373E+05</totfact>
</mgrwt>
</event>
<event>
 6    1  0.3337990E-009  0.1323629E+03  0.7818608E-02  0.1223991E+00
         -2   -1    0    0    0  501 -0.00000000000E+00  0.00000000000E+00  0.17072369910E+03  0.17072369911E+03  0.25500000000E-02 0.  1.
          2   -1    0    0  501    0  0.00000000000E+00 -0.00000000000E+00 -0.25655388289E+02  0.25655388416E+02  0.25500000000E-02 0. -1.
    9000005    2    1    2    0    0  0.14328525067E+02  0.60535453515E+02  0.10289391704E+03  0.12122240285E+03  0.15422873461E+02 0.  0.
         22    1    1    2    0    0 -0.14328525067E+02 -0.60535453515E+02  0.42174393769E+02  0.75156684684E+02  0.00000000000E+00 0.  1.
         22    1    3    3    0    0 -0.32785143268E+01  0.10428454750E+02  0.19405810370E+02  0.22273006101E+02  0.00000000000E+00 0.  1.
         22    1    3    3    0    0  0.17607039393E+02  0.50106998764E+02  0.83488106667E+02  0.98949396745E+02  0.00000000000E+00 0.  1.
<mgrwt>
<rscale>  0 0.13236288E+03</rscale>
<asrwt>0</asrwt>
<pdfrwt beam="2">  1        2 0.39469828E-02 0.13236288E+03</pdfrwt>
<pdfrwt beam="1">  1       -2 0.26265184E-01 0.13236288E+03</pdfrwt>
<totfact> 0.25779961E+04</totfact>
</mgrwt>
</event>
<event>
 7    1  0.3337990E-009  0.9277401E+02  0.7818608E-02  0.1296270E+00
         -2   -1    0    0    0  501 -0.00000000000E+00  0.00000000000E+00  0.38147939536E+01  0.38147948059E+01  0.25500000000E-02 0.  1.
          2   -1    0    0  501    0  0.00000000000E+00 -0.00000000000E+00 -0.56405510647E+03  0.56405510648E+03  0.25500000000E-02 0. -1.
         23    2    1    2    0    0  0.00000000000E+00  0.00000000000E+00 -0.56024031252E+03  0.56786990128E+03  0.92774010440E+02 0.  0.
    9000005    2    3    3    0    0 -0.34744256966E+02 -0.13650111418E+02 -0.44265062216E+03  0.44449719680E+03  0.15642753190E+02 0.  0.
         22    1    3    3    0    0  0.34744256966E+02  0.13650111418E+02 -0.11758969035E+03  0.12337270448E+03  0.00000000000E+00 0.  1.
         22    1    4    4    0    0 -0.35780335665E+02 -0.14934446945E+02 -0.42855713766E+03  0.43030743703E+03  0.00000000000E+00 0. -1.
         22    1    4    4    0    0  0.10360786989E+01  0.12843355267E+01 -0.14093484502E+02  0.14189759767E+02  0.00000000000E+00 0. -1.
<mgrwt>
<rscale>  0 0.92774010E+02</rscale>
<asrwt>0</asrwt>
<pdfrwt beam="2">  1        2 0.86777642E-01 0.92774010E+02</pdfrwt>
<pdfrwt beam="1">  1       -2 0.58689189E-03 0.92774010E+02</pdfrwt>
<totfact> 0.21372852E+05</totfact>
</mgrwt>
</event>
<event>
 7    1  0.3337990E-009  0.9441850E+02  0.7818608E-02  0.1292491E+00
         -2   -1    0    0    0  501 -0.00000000000E+00  0.00000000000E+00  0.22408240906E+02  0.22408241051E+02  0.25500000000E-02 0. -1.
          2   -1    0    0  501    0  0.00000000000E+00 -0.00000000000E+00 -0.99459530623E+02  0.99459530656E+02  0.25500000000E-02 0.  1.
         23    2    1    2    0    0  0.00000000000E+00  0.11102230246E-15 -0.77051289717E+02  0.12186777171E+03  0.94418496778E+02 0.  0.
    9000005    2    3    3    0    0 -0.24075117504E+02  0.77416114949E+00  0.13331996861E+02  0.28329816304E+02  0.66802502337E+01 0.  0.
         22    1    3    3    0    0  0.24075117504E+02 -0.77416114949E+00 -0.90383286578E+02  0.93537955403E+02  0.00000000000E+00 0.  1.
         22    1    4    4    0    0 -0.18082488665E+02 -0.16118764957E+01  0.75292472061E+01  0.19653602867E+02  0.00000000000E+00 0.  1.
         22    1    4    4    0    0 -0.59926288394E+01  0.23860376452E+01  0.58027496548E+01  0.86762134372E+01  0.00000000000E+00 0.  1.
<mgrwt>
<rscale>  0 0.94418497E+02</rscale>
<asrwt>0</asrwt>
<pdfrwt beam="2">  1        2 0.15301466E-01 0.94418497E+02</pdfrwt>
<pdfrwt beam="1">  1       -2 0.34474218E-02 0.94418497E+02</pdfrwt>
<totfact> 0.11120434E+05</totfact>
</mgrwt>
</event>
<event>
 7    1  0.3337990E-009  0.8910898E+02  0.7818608E-02  0.1305024E+00
         -2   -1    0    0    0  501 -0.00000000000E+00  0.00000000000E+00  0.12518632547E+02  0.12518632807E+02  0.25500000000E-02 0.  1.
          2   -1    0    0  501    0  0.00000000000E+00 -0.00000000000E+00 -0.15857184744E+03  0.15857184746E+03  0.25500000000E-02 0. -1.
         23    2    1    2    0    0  0.00000000000E+00  0.35527136788E-14 -0.14605321489E+03  0.17109048027E+03  0.89108983034E+02 0.  0.
    9000005    2    3    3    0    0 -0.14213371886E+02  0.17217257945E+02 -0.14677756887E+03  0.14875265136E+03  0.92326947988E+01 0.  0.
         22    1    3    3    0    0  0.14213371886E+02 -0.17217257945E+02  0.72435397343E+00  0.22337828905E+02  0.00000000000E+00 0.  1.
         22    1    4    4    0    0 -0.24389707871E+01  0.80181539790E+01 -0.72827907584E+02  0.73308549944E+02  0.00000000000E+00 0.  1.
         22    1    4    4    0    0 -0.11774401099E+02  0.91991039660E+01 -0.73949661281E+02  0.75444101416E+02  0.00000000000E+00 0.  1.
<mgrwt>
<rscale>  0 0.89108983E+02</rscale>
<asrwt>0</asrwt>
<pdfrwt beam="2">  1        2 0.24395667E-01 0.89108983E+02</pdfrwt>
<pdfrwt beam="1">  1       -2 0.19259436E-02 0.89108983E+02</pdfrwt>
<totfact> 0.15161260E+05</totfact>
</mgrwt>
</event>
<event>
 7    1  0.3337990E-009  0.9228472E+02  0.7818608E-02  0.1297411E+00
          2   -1    0    0  501    0  0.00000000000E+00  0.00000000000E+00  0.11836262626E+03  0.11836262629E+03  0.25500000000E-02 0. -1.
         -2   -1    0    0    0  501 -0.00000000000E+00 -0.00000000000E+00 -0.17988088325E+02  0.17988088506E+02  0.25500000000E-02 0.  1.
         23    2    1    2    0    0 -0.17763568394E-14  0.00000000000E+00  0.10037453794E+03  0.13635071480E+03  0.92284720074E+02 0.  0.
    9000005    2    3    3    0    0  0.13002241618E+02 -0.37715152490E+02  0.83455945090E+02  0.93017935075E+02  0.97954305868E+01 0.  0.
         22    1    3    3    0    0 -0.13002241618E+02  0.37715152490E+02  0.16918592850E+02  0.43332779722E+02  0.00000000000E+00 0.  1.
         22    1    4    4    0    0  0.85985079570E+01 -0.25303427350E+02  0.65565805917E+02  0.70803055586E+02  0.00000000000E+00 0. -1.
         22    1    4    4    0    0  0.44037336606E+01 -0.12411725140E+02  0.17890139173E+02  0.22214879489E+02  0.00000000000E+00 0. -1.
<mgrwt>
<rscale>  0 0.92284720E+02</rscale>
<asrwt>0</asrwt>
<pdfrwt beam="1">  1        2 0.18209635E-01 0.92284720E+02</pdfrwt>
<pdfrwt beam="2">  1       -2 0.27673981E-02 0.92284720E+02</pdfrwt>
<totfact> 0.12508644E+05</totfact>
</mgrwt>
</event>
<event>
 7    1  0.3337990E-009  0.8866855E+02  0.7818608E-02  0.1306108E+00
          2   -1    0    0  501    0  0.00000000000E+00  0.00000000000E+00  0.41249796153E+03  0.41249796154E+03  0.25500000000E-02 0.  1.
         -2   -1    0    0    0  501 -0.00000000000E+00 -0.00000000000E+00 -0.47649398038E+01  0.47649404862E+01  0.25500000000E-02 0. -1.
         23    2    1    2    0    0  0.35527136788E-14 -0.35527136788E-14  0.40773302173E+03  0.41726290203E+03  0.88668553612E+02 0.  0.
    9000005    2    3    3    0    0  0.30559372762E+02 -0.27684620891E+02  0.27682812805E+03  0.28001711999E+03  0.86868585265E+01 0.  0.
         22    1    3    3    0    0 -0.30559372762E+02  0.27684620891E+02  0.13090489368E+03  0.13724578204E+03  0.00000000000E+00 0. -1.
         22    1    4    4    0    0  0.44898033629E+01 -0.85755595524E+01  0.54764045432E+02  0.55612941191E+02  0.00000000000E+00 0.  1.
         22    1    4    4    0    0  0.26069569399E+02 -0.19109061338E+02  0.22206408261E+03  0.22440417880E+03  0.00000000000E+00 0.  1.
<mgrwt>
<rscale>  0 0.88668554E+02</rscale>
<asrwt>0</asrwt>
<pdfrwt beam="1">  1        2 0.63461220E-01 0.88668554E+02</pdfrwt>
<pdfrwt beam="2">  1       -2 0.73306778E-03 0.88668554E+02</pdfrwt>
<totfact> 0.21729846E+05</totfact>
</mgrwt>
</event>
<event>
 7    1  0.3337990E-009  0.8960626E+02  0.7818608E-02  0.1303808E+00
         -2   -1    0    0    0  501 -0.00000000000E+00  0.00000000000E+00  0.38546729694E+01  0.38546738128E+01  0.25500000000E-02 0.  1.
          2   -1    0    0  501    0  0.00000000000E+00 -0.00000000000E+00 -0.52074986164E+03  0.52074986165E+03  0.25500000000E-02 0. -1.
         23    2    1    2    0    0  0.00000000000E+00  0.00000000000E+00 -0.51689518867E+03  0.52460453546E+03  0.89606264030E+02 0.  0.
    9000005    2    3    3    0    0  0.13292749449E+02  0.39447779351E+02 -0.34188026243E+03  0.34470720671E+03  0.14426365987E+02 0.  0.
         22    1    3    3    0    0 -0.13292749449E+02 -0.39447779351E+02 -0.17501492624E+03  0.17989732874E+03  0.00000000000E+00 0.  1.
         22    1    4    4    0    0  0.95692864298E+00 -0.12070727848E+01 -0.98112150368E+01  0.99313985739E+01  0.00000000000E+00 0.  1.
         22    1    4    4    0    0  0.12335820806E+02  0.40654852136E+02 -0.33206904740E+03  0.33477580814E+03  0.00000000000E+00 0.  1.
<mgrwt>
<rscale>  0 0.89606264E+02</rscale>
<asrwt>0</asrwt>
<pdfrwt beam="2">  1        2 0.80115308E-01 0.89606264E+02</pdfrwt>
<pdfrwt beam="1">  1       -2 0.59302709E-03 0.89606264E+02</pdfrwt>
<totfact> 0.22858424E+05</totfact>
</mgrwt>
</event>
<event>
 7    1  0.3337990E-009  0.9202648E+02  0.7818608E-02  0.1298017E+00
          2   -1    0    0  501    0  0.00000000000E+00  0.00000000000E+00  0.75133423927E+03  0.75133423928E+03  0.25500000000E-02 0. -1.
         -2   -1    0    0    0  501 -0.00000000000E+00 -0.00000000000E+00 -0.28179438022E+01  0.28179449560E+01  0.25500000000E-02 0.  1.
         23    2    1    2    0    0  0.00000000000E+00  0.00000000000E+00  0.74851629547E+03  0.75415218423E+03  0.92026476617E+02 0.  0.
    9000005    2    3    3    0    0  0.30332803961E+02  0.22816020960E+02  0.58307899674E+03  0.58441665577E+03  0.11002786153E+02 0.  0.
         22    1    3    3    0    0 -0.30332803961E+02 -0.22816020960E+02  0.16543729874E+03  0.16973552846E+03  0.00000000000E+00 0.  1.
         22    1    4    4    0    0  0.19573491370E+02  0.19544076193E+02  0.36414511327E+03  0.36519413467E+03  0.00000000000E+00 0. -1.
         22    1    4    4    0    0  0.10759312591E+02  0.32719447672E+01  0.21893388347E+03  0.21922252111E+03  0.00000000000E+00 0. -1.
<mgrwt>
<rscale>  0 0.92026477E+02</rscale>
<asrwt>0</asrwt>
<pdfrwt beam="1">  1        2 0.11559013E+00 0.92026477E+02</pdfrwt>
<pdfrwt beam="2">  1       -2 0.43352898E-03 0.92026477E+02</pdfrwt>
<totfact> 0.23502454E+05</totfact>
</mgrwt>
</event>
<event>
 7    1  0.3337990E-009  0.9192621E+02  0.7818608E-02  0.1298253E+00
         -2   -1    0    0    0  501 -0.00000000000E+00  0.00000000000E+00  0.22779030608E+02  0.22779030751E+02  0.25500000000E-02 0.  1.
          2   -1    0    0  501    0  0.00000000000E+00 -0.00000000000E+00 -0.92743502343E+02  0.92743502378E+02  0.25500000000E-02 0. -1.
         23    2    1    2    0    0 -0.35527136788E-14  0.00000000000E+00 -0.69964471735E+02  0.11552253313E+03  0.91926211471E+02 0.  0.
    9000005    2    3    3    0    0  0.22866504963E+02  0.17024114636E+02  0.87570898680E+01  0.31798093510E+02  0.11033340363E+02 0.  0.
         22    1    3    3    0    0 -0.22866504963E+02 -0.17024114636E+02 -0.78721561603E+02  0.83724439619E+02  0.00000000000E+00 0. -1.
         22    1    4    4    0    0  0.20160219178E+01  0.62958711819E+01  0.44185798506E+01  0.79514895591E+01  0.00000000000E+00 0. -1.
         22    1    4    4    0    0  0.20850483045E+02  0.10728243454E+02  0.43385100174E+01  0.23846603951E+02  0.00000000000E+00 0. -1.
<mgrwt>
<rscale>  0 0.91926211E+02</rscale>
<asrwt>0</asrwt>
<pdfrwt beam="2">  1        2 0.14268231E-01 0.91926211E+02</pdfrwt>
<pdfrwt beam="1">  1       -2 0.35044663E-02 0.91926211E+02</pdfrwt>
<totfact> 0.11723857E+05</totfact>
</mgrwt>
</event>
<event>
 7    1  0.3337990E-009  0.8980433E+02  0.7818608E-02  0.1303326E+00
         -2   -1    0    0    0  501 -0.00000000000E+00  0.00000000000E+00  0.22863659048E+01  0.22863673268E+01  0.25500000000E-02 0. -1.
          2   -1    0    0  501    0  0.00000000000E+00 -0.00000000000E+00 -0.88183784774E+03  0.88183784775E+03  0.25500000000E-02 0.  1.
         23    2    1    2    0    0  0.00000000000E+00  0.35527136788E-14 -0.87955148184E+03  0.88412421507E+03  0.89804334392E+02 0.  0.
    9000005    2    3    3    0    0  0.10060593456E+02  0.27201415153E+02 -0.77528204446E+03  0.77589645478E+03  0.10579581794E+02 0.  0.
         22    1    3    3    0    0 -0.10060593456E+02 -0.27201415153E+02 -0.10426943738E+03  0.10822776029E+03  0.00000000000E+00 0. -1.
         22    1    4    4    0    0  0.80031062848E+01  0.76095129248E+01 -0.31337244729E+03  0.31356697070E+03  0.00000000000E+00 0.  1.
         22    1    4    4    0    0  0.20574871714E+01  0.19591902228E+02 -0.46190959718E+03  0.46232948408E+03  0.00000000000E+00 0.  1.
<mgrwt>
<rscale>  0 0.89804334E+02</rscale>
<asrwt>0</asrwt>
<pdfrwt beam="2">  1        2 0.13566709E+00 0.89804334E+02</pdfrwt>
<pdfrwt beam="1">  1       -2 0.35174941E-03 0.89804334E+02</pdfrwt>
<totfact> 0.25741726E+05</totfact>
</mgrwt>
</event>
<event>
 7    1  0.3337990E-009  0.9164029E+02  0.7818608E-02  0.1298927E+00
         -2   -1    0    0    0  501 -0.00000000000E+00  0.00000000000E+00  0.10331730612E+01  0.10331762081E+01  0.25500000000E-02 0.  1.
          2   -1    0    0  501    0  0.00000000000E+00 -0.00000000000E+00 -0.20320723764E+04  0.20320723764E+04  0.25500000000E-02 0. -1.
         23    2    1    2    0    0 -0.88817841970E-15  0.00000000000E+00 -0.20310392034E+04  0.20331055526E+04  0.91640288920E+02 0.  0.
    9000005    2    3    3    0    0 -0.64902666807E+01  0.17502697217E+02 -0.19423364885E+04  0.19424598710E+04  0.11438880497E+02 0.  0.
         22    1    3    3    0    0  0.64902666807E+01 -0.17502697217E+02 -0.88702714861E+02  0.90645681613E+02  0.00000000000E+00 0.  1.
         22    1    4    4    0    0 -0.34793490291E+01  0.77032940848E+00 -0.67430617555E+03  0.67431559204E+03  0.00000000000E+00 0.  1.
         22    1    4    4    0    0 -0.30109176517E+01  0.16732367809E+02 -0.12680303129E+04  0.12681442790E+04  0.00000000000E+00 0.  1.
<mgrwt>
<rscale>  0 0.91640289E+02</rscale>
<asrwt>0</asrwt>
<pdfrwt beam="2">  1        2 0.31262332E+00 0.91640289E+02</pdfrwt>
<pdfrwt beam="1">  1       -2 0.15895157E-03 0.91640289E+02</pdfrwt>
<totfact> 0.19126641E+05</totfact>
</mgrwt>
</event>
<event>
 7    1  0.3337990E-009  0.9165938E+02  0.7818608E-02  0.1298882E+00
         -2   -1    0    0    0  501 -0.00000000000E+00  0.00000000000E+00  0.48883037018E+01  0.48883043669E+01  0.25500000000E-02 0.  1.
          2   -1    0    0  501    0  0.00000000000E+00 -0.00000000000E+00 -0.42967055641E+03  0.42967055642E+03  0.25500000000E-02 0. -1.
         23    2    1    2    0    0 -0.88817841970E-15  0.00000000000E+00 -0.42478225271E+03  0.43455886079E+03  0.91659376337E+02 0.  0.
    9000005    2    3    3    0    0 -0.61355677782E+01  0.43813906255E+02 -0.24948851294E+03  0.25376837770E+03  0.14020265919E+02 0.  0.
         22    1    3    3    0    0  0.61355677782E+01 -0.43813906255E+02 -0.17529373977E+03  0.18079048309E+03  0.00000000000E+00 0.  1.
         22    1    4    4    0    0 -0.52727661562E+01  0.52926375504E+01 -0.29518457801E+02  0.30449194178E+02  0.00000000000E+00 0.  1.
         22    1    4    4    0    0 -0.86280162204E+00  0.38521268705E+02 -0.21997005514E+03  0.22331918352E+03  0.00000000000E+00 0.  1.
<mgrwt>
<rscale>  0 0.91659376E+02</rscale>
<asrwt>0</asrwt>
<pdfrwt beam="2">  1        2 0.66103133E-01 0.91659376E+02</pdfrwt>
<pdfrwt beam="1">  1       -2 0.75204711E-03 0.91659376E+02</pdfrwt>
<totfact> 0.20189027E+05</totfact>
</mgrwt>
</event>
<event>
 7    1  0.3337990E-009  0.9181300E+02  0.7818608E-02  0.1298520E+00
          2   -1    0    0  501    0  0.00000000000E+00  0.00000000000E+00  0.38107300131E+03  0.38107300132E+03  0.25500000000E-02 0. -1.
         -2   -1    0    0    0  501 -0.00000000000E+00 -0.00000000000E+00 -0.55301909472E+01  0.55301915351E+01  0.25500000000E-02 0.  1.
         23    2    1    2    0    0  0.00000000000E+00 -0.35527136788E-14  0.37554281036E+03  0.38660319285E+03  0.91812996408E+02 0.  0.
    9000005    2    3    3    0    0 -0.33210643422E+02 -0.29245687003E+02  0.22623401139E+03  0.23087466465E+03  0.12768156649E+02 0.  0.
         22    1    3    3    0    0  0.33210643422E+02  0.29245687003E+02  0.14930879897E+03  0.15572852820E+03  0.00000000000E+00 0.  1.
         22    1    4    4    0    0 -0.28789702311E+02 -0.29760493600E+02  0.19708030056E+03  0.20138316416E+03  0.00000000000E+00 0. -1.
         22    1    4    4    0    0 -0.44209411109E+01  0.51480659663E+00  0.29153710833E+02  0.29491500496E+02  0.00000000000E+00 0. -1.
<mgrwt>
<rscale>  0 0.91812996E+02</rscale>
<asrwt>0</asrwt>
<pdfrwt beam="1">  1        2 0.58626587E-01 0.91812996E+02</pdfrwt>
<pdfrwt beam="2">  1       -2 0.85079907E-03 0.91812996E+02</pdfrwt>
<totfact> 0.19257906E+05</totfact>
</mgrwt>
</event>
<event>
 7    1  0.3337990E-009  0.1116142E+03  0.7818608E-02  0.1257609E+00
          2   -1    0    0  501    0  0.00000000000E+00  0.00000000000E+00  0.25098056529E+03  0.25098056530E+03  0.25500000000E-02 0. -1.
         -2   -1    0    0    0  501 -0.00000000000E+00 -0.00000000000E+00 -0.12409059843E+02  0.12409060105E+02  0.25500000000E-02 0.  1.
         23    2    1    2    0    0 -0.88817841970E-15  0.00000000000E+00  0.23857150544E+03  0.26338962540E+03  0.11161420860E+03 0.  0.
    9000005    2    3    3    0    0  0.71366065334E+01  0.16523687122E+02  0.24376386008E+03  0.24465666153E+03  0.10587688958E+02 0.  0.
         22    1    3    3    0    0 -0.71366065334E+01 -0.16523687122E+02 -0.51923546398E+01  0.18732963877E+02  0.00000000000E+00 0.  1.
         22    1    4    4    0    0  0.80897742404E+01  0.11634842946E+02  0.21485715696E+03  0.21532396967E+03  0.00000000000E+00 0.  1.
         22    1    4    4    0    0 -0.95316770701E+00  0.48888441760E+01  0.28906703129E+02  0.29332691861E+02  0.00000000000E+00 0.  1.
<mgrwt>
<rscale>  0 0.11161421E+03</rscale>
<asrwt>0</asrwt>
<pdfrwt beam="1">  1        2 0.38612394E-01 0.11161421E+03</pdfrwt>
<pdfrwt beam="2">  1       -2 0.19090862E-02 0.11161421E+03</pdfrwt>
<totfact> 0.97162040E+04</totfact>
</mgrwt>
</event>
<event>
 7    1  0.3337990E-009  0.9135664E+02  0.7818608E-02  0.1299599E+00
          2   -1    0    0  501    0  0.00000000000E+00  0.00000000000E+00  0.26580913020E+03  0.26580913021E+03  0.25500000000E-02 0. -1.
         -2   -1    0    0    0  501 -0.00000000000E+00 -0.00000000000E+00 -0.78496504228E+01  0.78496508370E+01  0.25500000000E-02 0.  1.
         23    2    1    2    0    0  0.00000000000E+00  0.00000000000E+00  0.25795947978E+03  0.27365878105E+03  0.91356637626E+02 0.  0.
    9000005    2    3    3    0    0  0.18991686840E+02  0.38856868549E+02  0.98423461765E+02  0.10836425166E+03  0.13604881836E+02 0.  0.
         22    1    3    3    0    0 -0.18991686840E+02 -0.38856868549E+02  0.15953601801E+03  0.16529452939E+03  0.00000000000E+00 0.  1.
         22    1    4    4    0    0  0.10262871404E+02  0.13996951378E+02  0.25671422033E+02  0.30988112020E+02  0.00000000000E+00 0.  1.
         22    1    4    4    0    0  0.87288154363E+01  0.24859917171E+02  0.72752039732E+02  0.77376139641E+02  0.00000000000E+00 0.  1.
<mgrwt>
<rscale>  0 0.91356638E+02</rscale>
<asrwt>0</asrwt>
<pdfrwt beam="1">  1        2 0.40893702E-01 0.91356638E+02</pdfrwt>
<pdfrwt beam="2">  1       -2 0.12076389E-02 0.91356638E+02</pdfrwt>
<totfact> 0.17082802E+05</totfact>
</mgrwt>
</event>
<event>
 7    1  0.3337990E-009  0.9154831E+02  0.7818608E-02  0.1299145E+00
          2   -1    0    0  501    0  0.00000000000E+00  0.00000000000E+00  0.13683045650E+03  0.13683045653E+03  0.25500000000E-02 0. -1.
         -2   -1    0    0    0  501 -0.00000000000E+00 -0.00000000000E+00 -0.15312915706E+02  0.15312915918E+02  0.25500000000E-02 0.  1.
         23    2    1    2    0    0  0.00000000000E+00  0.00000000000E+00  0.12151754080E+03  0.15214337244E+03  0.91548309965E+02 0.  0.
    9000005    2    3    3    0    0 -0.23196848130E+02 -0.14194217741E+02  0.34515749257E+01  0.30985863897E+02  0.14444404159E+02 0.  0.
         22    1    3    3    0    0  0.23196848130E+02  0.14194217741E+02  0.11806596587E+03  0.12115750855E+03  0.00000000000E+00 0. -1.
         22    1    4    4    0    0 -0.19315423998E+02 -0.13032417062E+02  0.82385848539E+01  0.24714444746E+02  0.00000000000E+00 0. -1.
         22    1    4    4    0    0 -0.38814241327E+01 -0.11618006788E+01 -0.47870099283E+01  0.62714191511E+01  0.00000000000E+00 0. -1.
<mgrwt>
<rscale>  0 0.91548310E+02</rscale>
<asrwt>0</asrwt>
<pdfrwt beam="1">  1        2 0.21050839E-01 0.91548310E+02</pdfrwt>
<pdfrwt beam="2">  1       -2 0.23558332E-02 0.91548310E+02</pdfrwt>
<totfact> 0.13406059E+05</totfact>
</mgrwt>
</event>
<event>
 7    1  0.3337990E-009  0.9145496E+02  0.7818608E-02  0.1299366E+00
          2   -1    0    0  501    0  0.00000000000E+00  0.00000000000E+00  0.12393483784E+04  0.12393483784E+04  0.25500000000E-02 0. -1.
         -2   -1    0    0    0  501 -0.00000000000E+00 -0.00000000000E+00 -0.16871778229E+01  0.16871797499E+01  0.25500000000E-02 0.  1.
         23    2    1    2    0    0  0.00000000000E+00  0.00000000000E+00  0.12376612006E+04  0.12410355582E+04  0.91454957138E+02 0.  0.
    9000005    2    3    3    0    0 -0.30237303441E+02 -0.11851058546E+02  0.10537936972E+04  0.10543218712E+04  0.76622232268E+01 0.  0.
         22    1    3    3    0    0  0.30237303441E+02  0.11851058546E+02  0.18386750342E+03  0.18671368703E+03  0.00000000000E+00 0.  1.
         22    1    4    4    0    0 -0.17852251748E+02 -0.54315384093E+01  0.71020951076E+03  0.71045461057E+03  0.00000000000E+00 0. -1.
         22    1    4    4    0    0 -0.12385051692E+02 -0.64195201370E+01  0.34358418643E+03  0.34386726059E+03  0.00000000000E+00 0. -1.
<mgrwt>
<rscale>  0 0.91454957E+02</rscale>
<asrwt>0</asrwt>
<pdfrwt beam="1">  1        2 0.19066903E+00 0.91454957E+02</pdfrwt>
<pdfrwt beam="2">  1       -2 0.25956590E-03 0.91454957E+02</pdfrwt>
<totfact> 0.24569607E+05</totfact>
</mgrwt>
</event>
<event>
 7    1  0.3337990E-009  0.9095090E+02  0.7818608E-02  0.1300565E+00
         -2   -1    0    0    0  501 -0.00000000000E+00  0.00000000000E+00  0.40204341347E+02  0.40204341428E+02  0.25500000000E-02 0.  1.
          2   -1    0    0  501    0  0.00000000000E+00 -0.00000000000E+00 -0.51437639049E+02  0.51437639112E+02  0.25500000000E-02 0. -1.
         23    2    1    2    0    0  0.00000000000E+00 -0.71054273576E-14 -0.11233297702E+02  0.91641980540E+02  0.90950896752E+02 0.  0.
    9000005    2    3    3    0    0 -0.93153591800E+01 -0.37237239115E+02 -0.29961408666E+02  0.48932145210E+02  0.48250318182E+01 0.  0.
         22    1    3    3    0    0  0.93153591800E+01  0.37237239115E+02  0.18728110964E+02  0.42709835330E+02  0.00000000000E+00 0.  1.
         22    1    4    4    0    0 -0.79618141676E+01 -0.34868296340E+02 -0.26441058379E+02  0.44478288442E+02  0.00000000000E+00 0. -1.
         22    1    4    4    0    0 -0.13535450125E+01 -0.23689427756E+01 -0.35203502870E+01  0.44538567689E+01  0.00000000000E+00 0. -1.
<mgrwt>
<rscale>  0 0.90950897E+02</rscale>
<asrwt>0</asrwt>
<pdfrwt beam="2">  1        2 0.79134830E-02 0.90950897E+02</pdfrwt>
<pdfrwt beam="1">  1       -2 0.61852833E-02 0.90950897E+02</pdfrwt>
<totfact> 0.10255222E+05</totfact>
</mgrwt>
</event>
<event>
 7    1  0.3337990E-009  0.9144785E+02  0.7818608E-02  0.1299383E+00
          2   -1    0    0  501    0  0.00000000000E+00  0.00000000000E+00  0.12490986885E+02  0.12490987145E+02  0.25500000000E-02 0. -1.
         -2   -1    0    0    0  501 -0.00000000000E+00 -0.00000000000E+00 -0.16737488551E+03  0.16737488553E+03  0.25500000000E-02 0.  1.
         23    2    1    2    0    0  0.35527136788E-14  0.00000000000E+00 -0.15488389863E+03  0.17986587267E+03  0.91447854537E+02 0.  0.
    9000005    2    3    3    0    0  0.25657203032E+02  0.36318359722E+02 -0.66658562213E+02  0.81067971353E+02  0.12301899962E+02 0.  0.
         22    1    3    3    0    0 -0.25657203032E+02 -0.36318359722E+02 -0.88225336412E+02  0.98797901321E+02  0.00000000000E+00 0.  1.
         22    1    4    4    0    0  0.62160004874E+01  0.11159322227E+02 -0.10508822406E+02  0.16540994015E+02  0.00000000000E+00 0.  1.
         22    1    4    4    0    0  0.19441202545E+02  0.25159037495E+02 -0.56149739807E+02  0.64526977339E+02  0.00000000000E+00 0.  1.
<mgrwt>
<rscale>  0 0.91447855E+02</rscale>
<asrwt>0</asrwt>
<pdfrwt beam="1">  1        2 0.19216904E-02 0.91447855E+02</pdfrwt>
<pdfrwt beam="2">  1       -2 0.25749981E-01 0.91447855E+02</pdfrwt>
<totfact> 0.66534699E+04</totfact>
</mgrwt>
</event>
<event>
 7    1  0.3337990E-009  0.9802225E+02  0.7818608E-02  0.1284511E+00
         -2   -1    0    0    0  501 -0.00000000000E+00  0.00000000000E+00  0.15352987464E+02  0.15352987676E+02  0.25500000000E-02 0.  1.
          2   -1    0    0  501    0  0.00000000000E+00 -0.00000000000E+00 -0.15645752467E+03  0.15645752469E+03  0.25500000000E-02 0. -1.
         23    2    1    2    0    0  0.00000000000E+00  0.00000000000E+00 -0.14110453721E+03  0.17181051237E+03  0.98022251249E+02 0.  0.
    9000005    2    3    3    0    0  0.20070869178E+02 -0.37371443713E+02 -0.11108618556E+03  0.11984354180E+03  0.14928807499E+02 0.  0.
         22    1    3    3    0    0 -0.20070869178E+02  0.37371443713E+02 -0.30018351646E+02  0.51966970571E+02  0.00000000000E+00 0. -1.
         22    1    4    4    0    0  0.65105120849E+01 -0.22866558630E+02 -0.74695836354E+02  0.78388355256E+02  0.00000000000E+00 0.  1.
         22    1    4    4    0    0  0.13560357093E+02 -0.14504885083E+02 -0.36390349207E+02  0.41455186541E+02  0.00000000000E+00 0.  1.
<mgrwt>
<rscale>  0 0.98022251E+02</rscale>
<asrwt>0</asrwt>
<pdfrwt beam="2">  1        2 0.24070387E-01 0.98022251E+02</pdfrwt>
<pdfrwt beam="1">  1       -2 0.23619982E-02 0.98022251E+02</pdfrwt>
<totfact> 0.11644285E+05</totfact>
</mgrwt>
</event>
<event>
 7    1  0.3337990E-009  0.9371815E+02  0.7818608E-02  0.1294090E+00
         -2   -1    0    0    0  501 -0.00000000000E+00  0.00000000000E+00  0.88851103598E+01  0.88851107257E+01  0.25500000000E-02 0.  1.
          2   -1    0    0  501    0  0.00000000000E+00 -0.00000000000E+00 -0.24712948559E+03  0.24712948561E+03  0.25500000000E-02 0. -1.
         23    2    1    2    0    0  0.00000000000E+00  0.17763568394E-14 -0.23824437523E+03  0.25601459633E+03  0.93718147681E+02 0.  0.
    9000005    2    3    3    0    0  0.13608683239E+02 -0.91441957213E+01 -0.23860596812E+03  0.23961510475E+03  0.14621143116E+02 0.  0.
         22    1    3    3    0    0 -0.13608683239E+02  0.91441957213E+01  0.36159288388E+00  0.16399491587E+02  0.00000000000E+00 0.  1.
         22    1    4    4    0    0  0.49708211302E+01 -0.11290583638E+02 -0.10706896639E+03  0.10777731629E+03  0.00000000000E+00 0. -1.
         22    1    4    4    0    0  0.86378621089E+01  0.21463879172E+01 -0.13153700172E+03  0.13183778846E+03  0.00000000000E+00 0. -1.
<mgrwt>
<rscale>  0 0.93718148E+02</rscale>
<asrwt>0</asrwt>
<pdfrwt beam="2">  1        2 0.38019916E-01 0.93718148E+02</pdfrwt>
<pdfrwt beam="1">  1       -2 0.13669403E-02 0.93718148E+02</pdfrwt>
<totfact> 0.15525275E+05</totfact>
</mgrwt>
</event>
<event>
 7    1  0.3337990E-009  0.9194918E+02  0.7818608E-02  0.1298199E+00
         -2   -1    0    0    0  501 -0.00000000000E+00  0.00000000000E+00  0.60890498812E+01  0.60890504152E+01  0.25500000000E-02 0.  1.
          2   -1    0    0  501    0  0.00000000000E+00 -0.00000000000E+00 -0.34712522654E+03  0.34712522655E+03  0.25500000000E-02 0. -1.
         23    2    1    2    0    0  0.00000000000E+00  0.00000000000E+00 -0.34103617666E+03  0.35321427696E+03  0.91949179776E+02 0.  0.
    9000005    2    3    3    0    0  0.43522821618E+02  0.95145980276E+01 -0.21061100692E+03  0.21539015542E+03  0.71525687929E+01 0.  0.
         22    1    3    3    0    0 -0.43522821618E+02 -0.95145980276E+01 -0.13042516974E+03  0.13782412154E+03  0.00000000000E+00 0.  1.
         22    1    4    4    0    0  0.33293249169E+02  0.43041247234E+01 -0.15152224264E+03  0.15519650752E+03  0.00000000000E+00 0. -1.
         22    1    4    4    0    0  0.10229572449E+02  0.52104733042E+01 -0.59088764275E+02  0.60193647905E+02  0.00000000000E+00 0. -1.
<mgrwt>
<rscale>  0 0.91949180E+02</rscale>
<asrwt>0</asrwt>
<pdfrwt beam="2">  1        2 0.53403866E-01 0.91949180E+02</pdfrwt>
<pdfrwt beam="1">  1       -2 0.93677722E-03 0.91949180E+02</pdfrwt>
<totfact> 0.18541012E+05</totfact>
</mgrwt>
</event>
<event>
 7    1  0.3337990E-009  0.9056316E+02  0.7818608E-02  0.1301494E+00
          2   -1    0    0  501    0  0.00000000000E+00  0.00000000000E+00  0.93491356776E+03  0.93491356776E+03  0.25500000000E-02 0. -1.
         -2   -1    0    0    0  501 -0.00000000000E+00 -0.00000000000E+00 -0.21931663912E+01  0.21931678737E+01  0.25500000000E-02 0.  1.
         23    2    1    2    0    0  0.00000000000E+00  0.00000000000E+00  0.93272040137E+03  0.93710673564E+03  0.90563164957E+02 0.  0.
    9000005    2    3    3    0    0  0.32635540794E+02  0.20496907897E+02  0.70017457377E+03  0.70138918498E+03  0.14736121968E+02 0.  0.
         22    1    3    3    0    0 -0.32635540794E+02 -0.20496907897E+02  0.23254582760E+03  0.23571755066E+03  0.00000000000E+00 0.  1.
         22    1    4    4    0    0  0.16274057892E+02  0.18473367288E+01  0.29890162125E+03  0.29935002388E+03  0.00000000000E+00 0.  1.
         22    1    4    4    0    0  0.16361482902E+02  0.18649571168E+02  0.40127295252E+03  0.40203916110E+03  0.00000000000E+00 0.  1.
<mgrwt>
<rscale>  0 0.90563165E+02</rscale>
<asrwt>0</asrwt>
<pdfrwt beam="1">  1        2 0.14383284E+00 0.90563165E+02</pdfrwt>
<pdfrwt beam="2">  1       -2 0.33741036E-03 0.90563165E+02</pdfrwt>
<totfact> 0.25335922E+05</totfact>
</mgrwt>
</event>
<event>
 7    1  0.3337990E-009  0.8949196E+02  0.7818608E-02  0.1304087E+00
         -2   -1    0    0    0  501 -0.00000000000E+00  0.00000000000E+00  0.18462578016E+02  0.18462578192E+02  0.25500000000E-02 0.  1.
          2   -1    0    0  501    0  0.00000000000E+00 -0.00000000000E+00 -0.10844653869E+03  0.10844653872E+03  0.25500000000E-02 0. -1.
         23    2    1    2    0    0  0.71054273576E-14  0.00000000000E+00 -0.89983960676E+02  0.12690911691E+03  0.89491959286E+02 0.  0.
    9000005    2    3    3    0    0 -0.40419342441E+02  0.43407475175E+01 -0.21869576857E+02  0.47586140322E+02  0.11558417990E+02 0.  0.
         22    1    3    3    0    0  0.40419342441E+02 -0.43407475175E+01 -0.68114383818E+02  0.79322976591E+02  0.00000000000E+00 0. -1.
         22    1    4    4    0    0 -0.32470448765E+02 -0.11093879645E+01 -0.15225396419E+02  0.35879987190E+02  0.00000000000E+00 0. -1.
         22    1    4    4    0    0 -0.79488936761E+01  0.54501354819E+01 -0.66441804383E+01  0.11706153132E+02  0.00000000000E+00 0. -1.
<mgrwt>
<rscale>  0 0.89491959E+02</rscale>
<asrwt>0</asrwt>
<pdfrwt beam="2">  1        2 0.16684082E-01 0.89491959E+02</pdfrwt>
<pdfrwt beam="1">  1       -2 0.28403967E-02 0.89491959E+02</pdfrwt>
<totfact> 0.13236977E+05</totfact>
</mgrwt>
</event>
<event>
 7    1  0.3337990E-009  0.9268402E+02  0.7818608E-02  0.1296479E+00
         -2   -1    0    0    0  501 -0.00000000000E+00  0.00000000000E+00  0.16065362980E+03  0.16065362982E+03  0.25500000000E-02 0.  1.
          2   -1    0    0  501    0  0.00000000000E+00 -0.00000000000E+00 -0.13367776529E+02  0.13367776773E+02  0.25500000000E-02 0. -1.
         23    2    1    2    0    0 -0.35527136788E-14  0.17763568394E-14  0.14728585327E+03  0.17402140659E+03  0.92684019005E+02 0.  0.
    9000005    2    3    3    0    0 -0.29289766005E+02  0.98007386829E+01  0.13798887379E+03  0.14176650466E+03  0.10142370610E+02 0.  0.
         22    1    3    3    0    0  0.29289766005E+02 -0.98007386829E+01  0.92969794795E+01  0.32254901934E+02  0.00000000000E+00 0. -1.
         22    1    4    4    0    0 -0.16727262123E+02  0.84487733321E+01  0.99725410674E+02  0.10147088549E+03  0.00000000000E+00 0.  1.
         22    1    4    4    0    0 -0.12562503882E+02  0.13519653508E+01  0.38263463119E+02  0.40295619166E+02  0.00000000000E+00 0.  1.
<mgrwt>
<rscale>  0 0.92684019E+02</rscale>
<asrwt>0</asrwt>
<pdfrwt beam="2">  1        2 0.20565813E-02 0.92684019E+02</pdfrwt>
<pdfrwt beam="1">  1       -2 0.24715940E-01 0.92684019E+02</pdfrwt>
<totfact> 0.65322089E+04</totfact>
</mgrwt>
</event>
<event>
 7    1  0.3337990E-009  0.8769756E+02  0.7818608E-02  0.1308525E+00
          2   -1    0    0  501    0  0.00000000000E+00  0.00000000000E+00  0.12967771757E+04  0.12967771757E+04  0.25500000000E-02 0.  1.
         -2   -1    0    0    0  501 -0.00000000000E+00 -0.00000000000E+00 -0.14826866646E+01  0.14826888574E+01  0.25500000000E-02 0. -1.
         23    2    1    2    0    0  0.22204460493E-15  0.00000000000E+00  0.12952944890E+04  0.12982598646E+04  0.87697563260E+02 0.  0.
    9000005    2    3    3    0    0 -0.11459299693E+01  0.25748476468E+02  0.11674471009E+04  0.11678403421E+04  0.15938442447E+02 0.  0.
         22    1    3    3    0    0  0.11459299693E+01 -0.25748476468E+02  0.12784738812E+03  0.13041952248E+03  0.00000000000E+00 0. -1.
         22    1    4    4    0    0 -0.26396825368E+01 -0.27737302361E+00  0.38067655724E+02  0.38160074319E+02  0.00000000000E+00 0. -1.
         22    1    4    4    0    0  0.14937525675E+01  0.26025849491E+02  0.11293794452E+04  0.11296802678E+04  0.00000000000E+00 0. -1.
<mgrwt>
<rscale>  0 0.87697563E+02</rscale>
<asrwt>0</asrwt>
<pdfrwt beam="1">  1        2 0.19950471E+00 0.87697563E+02</pdfrwt>
<pdfrwt beam="2">  1       -2 0.22810521E-03 0.87697563E+02</pdfrwt>
<totfact> 0.27228302E+05</totfact>
</mgrwt>
</event>
<event>
 7    1  0.3337990E-009  0.8765335E+02  0.7818608E-02  0.1308636E+00
         -2   -1    0    0    0  501 -0.00000000000E+00  0.00000000000E+00  0.64441642686E+01  0.64441647731E+01  0.25500000000E-02 0.  1.
          2   -1    0    0  501    0  0.00000000000E+00 -0.00000000000E+00 -0.29806460579E+03  0.29806460580E+03  0.25500000000E-02 0. -1.
         23    2    1    2    0    0  0.00000000000E+00  0.00000000000E+00 -0.29162044152E+03  0.30450877057E+03  0.87653348158E+02 0.  0.
    9000005    2    3    3    0    0  0.34547673815E+02 -0.74753694885E+01 -0.23307426920E+03  0.23611961055E+03  0.13395245772E+02 0.  0.
         22    1    3    3    0    0 -0.34547673815E+02  0.74753694885E+01 -0.58546172323E+02  0.68389160023E+02  0.00000000000E+00 0.  1.
         22    1    4    4    0    0  0.14536793162E+01 -0.42091544608E+01 -0.22618696964E+02  0.23052887393E+02  0.00000000000E+00 0.  1.
         22    1    4    4    0    0  0.33093994498E+02 -0.32662150276E+01 -0.21045557223E+03  0.21306672316E+03  0.00000000000E+00 0.  1.
<mgrwt>
<rscale>  0 0.87653348E+02</rscale>
<asrwt>0</asrwt>
<pdfrwt beam="2">  1        2 0.45856082E-01 0.87653348E+02</pdfrwt>
<pdfrwt beam="1">  1       -2 0.99141016E-03 0.87653348E+02</pdfrwt>
<totfact> 0.19904665E+05</totfact>
</mgrwt>
</event>
<event>
 7    1  0.3337990E-009  0.9036351E+02  0.7818608E-02  0.1301974E+00
         -2   -1    0    0    0  501 -0.00000000000E+00  0.00000000000E+00  0.41038707287E+01  0.41038715210E+01  0.25500000000E-02 0. -1.
          2   -1    0    0  501    0  0.00000000000E+00 -0.00000000000E+00 -0.49743058860E+03  0.49743058860E+03  0.25500000000E-02 0.  1.
         23    2    1    2    0    0  0.00000000000E+00  0.35527136788E-14 -0.49332671787E+03  0.50153446012E+03  0.90363511052E+02 0.  0.
    9000005    2    3    3    0    0 -0.14571075527E+02  0.31936490263E+02 -0.40406444028E+03  0.40561777830E+03  0.50452472831E+01 0.  0.
         22    1    3    3    0    0  0.14571075527E+02 -0.31936490263E+02 -0.89262277586E+02  0.95916681824E+02  0.00000000000E+00 0. -1.
         22    1    4    4    0    0 -0.12898738496E+02  0.29911337130E+02 -0.35814266932E+03  0.35962096314E+03  0.00000000000E+00 0.  1.
         22    1    4    4    0    0 -0.16723370306E+01  0.20251531337E+01 -0.45921770964E+02  0.45996815159E+02  0.00000000000E+00 0.  1.
<mgrwt>
<rscale>  0 0.90363511E+02</rscale>
<asrwt>0</asrwt>
<pdfrwt beam="2">  1        2 0.76527735E-01 0.90363511E+02</pdfrwt>
<pdfrwt beam="1">  1       -2 0.63136518E-03 0.90363511E+02</pdfrwt>
<totfact> 0.22029493E+05</totfact>
</mgrwt>
</event>
<event>
 7    1  0.3337990E-009  0.9307612E+02  0.7818608E-02  0.1295569E+00
          2   -1    0    0  501    0  0.00000000000E+00  0.00000000000E+00  0.33920945643E+03  0.33920945644E+03  0.25500000000E-02 0. -1.
         -2   -1    0    0    0  501 -0.00000000000E+00 -0.00000000000E+00 -0.63848192853E+01  0.63848197945E+01  0.25500000000E-02 0.  1.
         23    2    1    2    0    0 -0.71054273576E-14  0.00000000000E+00  0.33282463714E+03  0.34559427623E+03  0.93076123014E+02 0.  0.
    9000005    2    3    3    0    0 -0.33606142238E+02  0.27685043701E+02  0.12580372726E+03  0.13404406572E+03  0.15665226466E+02 0.  0.
         22    1    3    3    0    0  0.33606142238E+02 -0.27685043701E+02  0.20702090988E+03  0.21155021051E+03  0.00000000000E+00 0.  1.
         22    1    4    4    0    0 -0.89697804511E+01  0.30389669140E+00  0.32984871116E+02  0.34184075782E+02  0.00000000000E+00 0.  1.
         22    1    4    4    0    0 -0.24636361787E+02  0.27381147010E+02  0.92818856148E+02  0.99859989938E+02  0.00000000000E+00 0.  1.
<mgrwt>
<rscale>  0 0.93076123E+02</rscale>
<asrwt>0</asrwt>
<pdfrwt beam="1">  1        2 0.52186079E-01 0.93076123E+02</pdfrwt>
<pdfrwt beam="2">  1       -2 0.98227976E-03 0.93076123E+02</pdfrwt>
<totfact> 0.17796596E+05</totfact>
</mgrwt>
</event>
<event>
 7    1  0.3337990E-009  0.9415025E+02  0.7818608E-02  0.1293101E+00
         -2   -1    0    0    0  501 -0.00000000000E+00  0.00000000000E+00  0.35376488482E+02  0.35376488574E+02  0.25500000000E-02 0.  1.
          2   -1    0    0  501    0  0.00000000000E+00 -0.00000000000E+00 -0.62642385282E+02  0.62642385334E+02  0.25500000000E-02 0. -1.
         23    2    1    2    0    0  0.00000000000E+00 -0.17763568394E-14 -0.27265896801E+02  0.98018873908E+02  0.94150254986E+02 0.  0.
    9000005    2    3    3    0    0  0.43223810985E+02  0.11904270540E+02 -0.27262809155E+02  0.53185744387E+02  0.86863772550E+01 0.  0.
         22    1    3    3    0    0 -0.43223810985E+02 -0.11904270540E+02 -0.30876451359E-02  0.44833129521E+02  0.00000000000E+00 0. -1.
         22    1    4    4    0    0  0.37548296977E+02  0.92234209171E+01 -0.26473985541E+02  0.46859556227E+02  0.00000000000E+00 0. -1.
         22    1    4    4    0    0  0.56755140073E+01  0.26808496225E+01 -0.78882361439E+00  0.63261881604E+01  0.00000000000E+00 0. -1.
<mgrwt>
<rscale>  0 0.94150255E+02</rscale>
<asrwt>0</asrwt>
<pdfrwt beam="2">  1        2 0.96372901E-02 0.94150255E+02</pdfrwt>
<pdfrwt beam="1">  1       -2 0.54425367E-02 0.94150255E+02</pdfrwt>
<totfact> 0.98009241E+04</totfact>
</mgrwt>
</event>
<event>
 7    1  0.3337990E-009  0.8958568E+02  0.7818608E-02  0.1303858E+00
         -2   -1    0    0    0  501 -0.00000000000E+00  0.00000000000E+00  0.32544735517E+02  0.32544735617E+02  0.25500000000E-02 0. -1.
          2   -1    0    0  501    0  0.00000000000E+00 -0.00000000000E+00 -0.61650479224E+02  0.61650479276E+02  0.25500000000E-02 0.  1.
         23    2    1    2    0    0  0.71054273576E-14  0.17763568394E-14 -0.29105743707E+02  0.94195214893E+02  0.89585680731E+02 0.  0.
    9000005    2    3    3    0    0 -0.42762222195E+02 -0.67662182770E+01 -0.66714679665E+01  0.45433692308E+02  0.12054980509E+02 0.  0.
         22    1    3    3    0    0  0.42762222195E+02  0.67662182770E+01 -0.22434275740E+02  0.48761522585E+02  0.00000000000E+00 0.  1.
         22    1    4    4    0    0 -0.20193905945E+02  0.26622477108E+01 -0.46427602907E+01  0.20891065633E+02  0.00000000000E+00 0.  1.
         22    1    4    4    0    0 -0.22568316250E+02 -0.94284659878E+01 -0.20287076758E+01  0.24542626675E+02  0.00000000000E+00 0.  1.
<mgrwt>
<rscale>  0 0.89585681E+02</rscale>
<asrwt>0</asrwt>
<pdfrwt beam="2">  1        2 0.94846891E-02 0.89585681E+02</pdfrwt>
<pdfrwt beam="1">  1       -2 0.50068824E-02 0.89585681E+02</pdfrwt>
<totfact> 0.11226474E+05</totfact>
</mgrwt>
</event>
<event>
 7    1  0.3801368E-009  0.9211321E+02  0.7818608E-02  0.1297813E+00
          2   -1    0    0  501    0  0.00000000000E+00  0.00000000000E+00  0.45556955129E+03  0.45556955130E+03  0.25500000000E-02 0. -1.
         -2   -1    0    0    0  501 -0.00000000000E+00 -0.00000000000E+00 -0.46561733953E+01  0.46561740936E+01  0.25500000000E-02 0.  1.
         23    2    1    2    0    0  0.17763568394E-14  0.00000000000E+00  0.45091337790E+03  0.46022572539E+03  0.92113212663E+02 0.  0.
    9000005    2    3    3    0    0 -0.15610507976E+02  0.31079088698E+02  0.37324045060E+03  0.37512178102E+03  0.14082574874E+02 0.  0.
         22    1    3    3    0    0  0.15610507976E+02 -0.31079088698E+02  0.77672927293E+02  0.85103944373E+02  0.00000000000E+00 0.  1.
         22    1    4    4    0    0 -0.14346421726E+02  0.24054406565E+02  0.33844027692E+03  0.33959719571E+03  0.00000000000E+00 0.  1.
         22    1    4    4    0    0 -0.12640862501E+01  0.70246821327E+01  0.34800173686E+02  0.35524585313E+02  0.00000000000E+00 0.  1.
<mgrwt>
<rscale>  0 0.92113213E+02</rscale>
<asrwt>0</asrwt>
<pdfrwt beam="1">  1        2 0.70087625E-01 0.92113213E+02</pdfrwt>
<pdfrwt beam="2">  1       -2 0.71633440E-03 0.92113213E+02</pdfrwt>
<totfact> 0.20333051E+05</totfact>
</mgrwt>
</event>
<event>
 7    1  0.3337990E-009  0.8675449E+02  0.7818608E-02  0.1310907E+00
         -2   -1    0    0    0  501 -0.00000000000E+00  0.00000000000E+00  0.83200990167E+01  0.83200994075E+01  0.25500000000E-02 0.  1.
          2   -1    0    0  501    0  0.00000000000E+00 -0.00000000000E+00 -0.22614940254E+03  0.22614940255E+03  0.25500000000E-02 0. -1.
         23    2    1    2    0    0  0.00000000000E+00 -0.17763568394E-14 -0.21782930352E+03  0.23446950196E+03  0.86754491968E+02 0.  0.
    9000005    2    3    3    0    0  0.40379169521E+02 -0.13084035682E+02 -0.92591487313E+02  0.10223418168E+03  0.87735431783E+01 0.  0.
         22    1    3    3    0    0 -0.40379169521E+02  0.13084035682E+02 -0.12523781621E+03  0.13223532028E+03  0.00000000000E+00 0.  1.
         22    1    4    4    0    0  0.47544198524E+01 -0.22237195587E+01 -0.19593517513E+02  0.20284362582E+02  0.00000000000E+00 0.  1.
         22    1    4    4    0    0  0.35624749669E+02 -0.10860316124E+02 -0.72997969799E+02  0.81949819097E+02  0.00000000000E+00 0.  1.
<mgrwt>
<rscale>  0 0.86754492E+02</rscale>
<asrwt>0</asrwt>
<pdfrwt beam="2">  1        2 0.34792211E-01 0.86754492E+02</pdfrwt>
<pdfrwt beam="1">  1       -2 0.12800154E-02 0.86754492E+02</pdfrwt>
<totfact> 0.18477626E+05</totfact>
</mgrwt>
</event>
<event>
 7    1  0.3337990E-009  0.9406103E+02  0.7818608E-02  0.1293305E+00
         -2   -1    0    0    0  501 -0.00000000000E+00  0.00000000000E+00  0.98937958335E+01  0.98937961622E+01  0.25500000000E-02 0.  1.
          2   -1    0    0  501    0  0.00000000000E+00 -0.00000000000E+00 -0.22356123159E+03  0.22356123160E+03  0.25500000000E-02 0. -1.
         23    2    1    2    0    0  0.00000000000E+00  0.55511151231E-15 -0.21366743576E+03  0.23345502777E+03  0.94061027460E+02 0.  0.
    9000005    2    3    3    0    0  0.46103467911E+02 -0.38799644104E+00 -0.92305391919E+02  0.10363043079E+03  0.96592191523E+01 0.  0.
         22    1    3    3    0    0 -0.46103467911E+02  0.38799644104E+00 -0.12136204384E+03  0.12982459697E+03  0.00000000000E+00 0.  1.
         22    1    4    4    0    0  0.12420452763E+02  0.39104453787E+01 -0.22272902283E+02  0.25800027248E+02  0.00000000000E+00 0.  1.
         22    1    4    4    0    0  0.33683015148E+02 -0.42984418197E+01 -0.70032489636E+02  0.77830403546E+02  0.00000000000E+00 0.  1.
<mgrwt>
<rscale>  0 0.94061027E+02</rscale>
<asrwt>0</asrwt>
<pdfrwt beam="2">  1        2 0.34394032E-01 0.94061027E+02</pdfrwt>
<pdfrwt beam="1">  1       -2 0.15221226E-02 0.94061027E+02</pdfrwt>
<totfact> 0.14813186E+05</totfact>
</mgrwt>
</event>
<event>
 7    1  0.3337990E-009  0.8766994E+02  0.7818608E-02  0.1308594E+00
          2   -1    0    0  501    0  0.00000000000E+00  0.00000000000E+00  0.32226389731E+03  0.32226389732E+03  0.25500000000E-02 0. -1.
         -2   -1    0    0    0  501 -0.00000000000E+00 -0.00000000000E+00 -0.59625189511E+01  0.59625194964E+01  0.25500000000E-02 0.  1.
         23    2    1    2    0    0  0.00000000000E+00  0.00000000000E+00  0.31630137836E+03  0.32822641681E+03  0.87669942080E+02 0.  0.
    9000005    2    3    3    0    0 -0.31491008805E+02 -0.28605863638E+02  0.15001486831E+03  0.15658381577E+03  0.14284662287E+02 0.  0.
         22    1    3    3    0    0  0.31491008805E+02  0.28605863638E+02  0.16628651005E+03  0.17164260104E+03  0.00000000000E+00 0. -1.
         22    1    4    4    0    0 -0.64484584010E+01 -0.12335942682E+02  0.65073886025E+02  0.66545989661E+02  0.00000000000E+00 0. -1.
         22    1    4    4    0    0 -0.25042550404E+02 -0.16269920956E+02  0.84940982285E+02  0.90037826108E+02  0.00000000000E+00 0. -1.
<mgrwt>
<rscale>  0 0.87669942E+02</rscale>
<asrwt>0</asrwt>
<pdfrwt beam="1">  1        2 0.49579070E-01 0.87669942E+02</pdfrwt>
<pdfrwt beam="2">  1       -2 0.91731048E-03 0.87669942E+02</pdfrwt>
<totfact> 0.20476944E+05</totfact>
</mgrwt>
</event>
<event>
 7    1  0.3337990E-009  0.1171887E+03  0.7818608E-02  0.1247808E+00
          2   -1    0    0  501    0  0.00000000000E+00  0.00000000000E+00  0.45909035915E+01  0.45909042997E+01  0.25500000000E-02 0. -1.
         -2   -1    0    0    0  501 -0.00000000000E+00 -0.00000000000E+00 -0.74784792395E+03  0.74784792396E+03  0.25500000000E-02 0.  1.
         23    2    1    2    0    0  0.00000000000E+00  0.00000000000E+00 -0.74325702036E+03  0.75243882826E+03  0.11718870232E+03 0.  0.
    9000005    2    3    3    0    0  0.50594255375E+02  0.11611654206E+02 -0.54513781358E+03  0.54763201859E+03  0.55662194960E+01 0.  0.
         22    1    3    3    0    0 -0.50594255375E+02 -0.11611654206E+02 -0.19811920678E+03  0.20480680967E+03  0.00000000000E+00 0. -1.
         22    1    4    4    0    0  0.49191814795E+02  0.12195543371E+02 -0.52768974524E+03  0.53011794268E+03  0.00000000000E+00 0. -1.
         22    1    4    4    0    0  0.14024405799E+01 -0.58388916415E+00 -0.17448068340E+02  0.17514075909E+02  0.00000000000E+00 0. -1.
<mgrwt>
<rscale>  0 0.11718870E+03</rscale>
<asrwt>0</asrwt>
<pdfrwt beam="1">  1        2 0.70629351E-03 0.11718870E+03</pdfrwt>
<pdfrwt beam="2">  1       -2 0.11505343E+00 0.11718870E+03</pdfrwt>
<totfact> 0.13218307E+04</totfact>
</mgrwt>
</event>
<event>
 6    1  0.3337990E-009  0.1317721E+03  0.7818608E-02  0.1224850E+00
          2   -1    0    0  501    0  0.00000000000E+00  0.00000000000E+00  0.30799344757E+03  0.30799344758E+03  0.25500000000E-02 0.  1.
         -2   -1    0    0    0  501 -0.00000000000E+00 -0.00000000000E+00 -0.14094367381E+02  0.14094367611E+02  0.25500000000E-02 0. -1.
    9000005    2    1    2    0    0  0.15275032204E+02  0.62386026402E+02  0.17699977419E+03  0.18870569254E+03  0.12472988241E+02 0.  0.
         22    1    1    2    0    0 -0.15275032204E+02 -0.62386026402E+02  0.11689930600E+03  0.13338212265E+03  0.00000000000E+00 0. -1.
         22    1    3    3    0    0  0.11353730297E+02  0.50767256207E+02  0.15529305170E+03  0.16377470318E+03  0.00000000000E+00 0.  1.
         22    1    3    3    0    0  0.39213019073E+01  0.11618770195E+02  0.21706722489E+02  0.24930989365E+02  0.00000000000E+00 0.  1.
<mgrwt>
<rscale>  0 0.13177212E+03</rscale>
<asrwt>0</asrwt>
<pdfrwt beam="1">  1        2 0.47383604E-01 0.13177212E+03</pdfrwt>
<pdfrwt beam="2">  1       -2 0.21683644E-02 0.13177212E+03</pdfrwt>
<totfact> 0.66526566E+04</totfact>
</mgrwt>
</event>
<event>
 7    1  0.3337990E-009  0.8997473E+02  0.7818608E-02  0.1302913E+00
          2   -1    0    0  501    0  0.00000000000E+00  0.00000000000E+00  0.69346923667E+02  0.69346923714E+02  0.25500000000E-02 0. -1.
         -2   -1    0    0    0  501 -0.00000000000E+00 -0.00000000000E+00 -0.29184608216E+02  0.29184608328E+02  0.25500000000E-02 0.  1.
         23    2    1    2    0    0 -0.71054273576E-14  0.17763568394E-14  0.40162315451E+02  0.98531532041E+02  0.89974725473E+02 0.  0.
    9000005    2    3    3    0    0  0.32182556809E+02 -0.15905668202E+02 -0.83995273953E+01  0.38141468088E+02  0.97730386124E+01 0.  0.
         22    1    3    3    0    0 -0.32182556809E+02  0.15905668202E+02  0.48561842846E+02  0.60390063953E+02  0.00000000000E+00 0. -1.
         22    1    4    4    0    0  0.11175995780E+02 -0.71743982299E+01 -0.77643153408E+01  0.15383740258E+02  0.00000000000E+00 0.  1.
         22    1    4    4    0    0  0.21006561029E+02 -0.87312699721E+01 -0.63521205450E+00  0.22757727829E+02  0.00000000000E+00 0.  1.
<mgrwt>
<rscale>  0 0.89974725E+02</rscale>
<asrwt>0</asrwt>
<pdfrwt beam="1">  1        2 0.10668757E-01 0.89974725E+02</pdfrwt>
<pdfrwt beam="2">  1       -2 0.44899398E-02 0.89974725E+02</pdfrwt>
<totfact> 0.11450080E+05</totfact>
</mgrwt>
</event>
<event>
 7    1  0.3337990E-009  0.9114937E+02  0.7818608E-02  0.1300092E+00
         -2   -1    0    0    0  501 -0.00000000000E+00  0.00000000000E+00  0.10422481548E+02  0.10422481860E+02  0.25500000000E-02 0.  1.
          2   -1    0    0  501    0  0.00000000000E+00 -0.00000000000E+00 -0.19928573526E+03  0.19928573528E+03  0.25500000000E-02 0. -1.
         23    2    1    2    0    0  0.00000000000E+00 -0.22204460493E-15 -0.18886325371E+03  0.20970821714E+03  0.91149370443E+02 0.  0.
    9000005    2    3    3    0    0  0.42977795685E+02 -0.18434347618E+01 -0.69638706336E+02  0.82960507608E+02  0.13505822035E+02 0.  0.
         22    1    3    3    0    0 -0.42977795685E+02  0.18434347618E+01 -0.11922454738E+03  0.12674770953E+03  0.00000000000E+00 0. -1.
         22    1    4    4    0    0  0.19662427994E+02 -0.32514909153E+01 -0.43848377762E+02  0.48164961332E+02  0.00000000000E+00 0. -1.
         22    1    4    4    0    0  0.23315367691E+02  0.14080561535E+01 -0.25790328574E+02  0.34795546276E+02  0.00000000000E+00 0. -1.
<mgrwt>
<rscale>  0 0.91149370E+02</rscale>
<asrwt>0</asrwt>
<pdfrwt beam="2">  1        2 0.30659341E-01 0.91149370E+02</pdfrwt>
<pdfrwt beam="1">  1       -2 0.16034589E-02 0.91149370E+02</pdfrwt>
<totfact> 0.15460518E+05</totfact>
</mgrwt>
</event>
<event>
 7    1  0.3337990E-009  0.9219326E+02  0.7818608E-02  0.1297626E+00
          2   -1    0    0  501    0  0.00000000000E+00  0.00000000000E+00  0.39393713414E+03  0.39393713415E+03  0.25500000000E-02 0.  1.
         -2   -1    0    0    0  501 -0.00000000000E+00 -0.00000000000E+00 -0.53940054514E+01  0.53940060541E+01  0.25500000000E-02 0. -1.
         23    2    1    2    0    0  0.00000000000E+00  0.00000000000E+00  0.38854312869E+03  0.39933114021E+03  0.92193257260E+02 0.  0.
    9000005    2    3    3    0    0 -0.12006048372E+02  0.10570495330E+02  0.38135787161E+03  0.38179522026E+03  0.88251575248E+01 0.  0.
         22    1    3    3    0    0  0.12006048372E+02 -0.10570495330E+02  0.71852570831E+01  0.17535919947E+02  0.00000000000E+00 0. -1.
         22    1    4    4    0    0 -0.50029936518E+01  0.40221872284E+01  0.25232306969E+03  0.25240471357E+03  0.00000000000E+00 0. -1.
         22    1    4    4    0    0 -0.70030547206E+01  0.65483081014E+01  0.12903480192E+03  0.12939050669E+03  0.00000000000E+00 0. -1.
<mgrwt>
<rscale>  0 0.92193257E+02</rscale>
<asrwt>0</asrwt>
<pdfrwt beam="1">  1        2 0.60605706E-01 0.92193257E+02</pdfrwt>
<pdfrwt beam="2">  1       -2 0.82984713E-03 0.92193257E+02</pdfrwt>
<totfact> 0.19276972E+05</totfact>
</mgrwt>
</event>
<event>
 7    1  0.3337990E-009  0.9425563E+02  0.7818608E-02  0.1292861E+00
          2   -1    0    0  501    0  0.00000000000E+00  0.00000000000E+00  0.19375904453E+04  0.19375904453E+04  0.25500000000E-02 0.  1.
         -2   -1    0    0    0  501 -0.00000000000E+00 -0.00000000000E+00 -0.11462837021E+01  0.11462865385E+01  0.25500000000E-02 0. -1.
         23    2    1    2    0    0  0.00000000000E+00  0.17763568394E-14  0.19364441616E+04  0.19387367318E+04  0.94255633251E+02 0.  0.
    9000005    2    3    3    0    0  0.21155597435E+02 -0.98030153410E+01  0.18066186491E+04  0.18068340325E+04  0.15317281335E+02 0.  0.
         22    1    3    3    0    0 -0.21155597435E+02  0.98030153410E+01  0.12982551245E+03  0.13190269935E+03  0.00000000000E+00 0. -1.
         22    1    4    4    0    0 -0.17274814542E+01 -0.29844390859E+01  0.13145427286E+03  0.13149949399E+03  0.00000000000E+00 0. -1.
         22    1    4    4    0    0  0.22883078889E+02 -0.68185762551E+01  0.16751643763E+04  0.16753345385E+04  0.00000000000E+00 0. -1.
<mgrwt>
<rscale>  0 0.94255633E+02</rscale>
<asrwt>0</asrwt>
<pdfrwt beam="1">  1        2 0.29808552E+00 0.94255633E+02</pdfrwt>
<pdfrwt beam="2">  1       -2 0.17635471E-03 0.94255633E+02</pdfrwt>
<totfact> 0.18544388E+05</totfact>
</mgrwt>
</event>
<event>
 7    1  0.3337990E-009  0.8066610E+02  0.7818608E-02  0.1327172E+00
          2   -1    0    0  501    0  0.00000000000E+00  0.00000000000E+00  0.14784899574E+03  0.14784899576E+03  0.25500000000E-02 0. -1.
         -2   -1    0    0    0  501 -0.00000000000E+00 -0.00000000000E+00 -0.11002813061E+02  0.11002813356E+02  0.25500000000E-02 0.  1.
         23    2    1    2    0    0  0.00000000000E+00  0.00000000000E+00  0.13684618267E+03  0.15885180911E+03  0.80666099113E+02 0.  0.
    9000005    2    3    3    0    0  0.12765954012E+02 -0.24294349421E+02  0.16961695828E+02  0.35866138476E+02  0.15668304574E+02 0.  0.
         22    1    3    3    0    0 -0.12765954012E+02  0.24294349421E+02  0.11988448685E+03  0.12298567064E+03  0.00000000000E+00 0. -1.
         22    1    4    4    0    0 -0.14322554851E+01 -0.34952375649E+01 -0.20635899722E+01  0.43042357026E+01  0.00000000000E+00 0.  1.
         22    1    4    4    0    0  0.14198209497E+02 -0.20799111856E+02  0.19025285800E+02  0.31561902774E+02  0.00000000000E+00 0.  1.
<mgrwt>
<rscale>  0 0.80666099E+02</rscale>
<asrwt>0</asrwt>
<pdfrwt beam="1">  1        2 0.22746000E-01 0.80666099E+02</pdfrwt>
<pdfrwt beam="2">  1       -2 0.16927405E-02 0.80666099E+02</pdfrwt>
<totfact> 0.19347817E+05</totfact>
</mgrwt>
</event>
<event>
 7    1  0.3337990E-009  0.9292205E+02  0.7818608E-02  0.1295926E+00
         -2   -1    0    0    0  501 -0.00000000000E+00  0.00000000000E+00  0.28560071769E+01  0.28560083153E+01  0.25500000000E-02 0.  1.
          2   -1    0    0  501    0  0.00000000000E+00 -0.00000000000E+00 -0.75581963123E+03  0.75581963123E+03  0.25500000000E-02 0. -1.
         23    2    1    2    0    0  0.00000000000E+00  0.00000000000E+00 -0.75296362405E+03  0.75867563955E+03  0.92922047431E+02 0.  0.
    9000005    2    3    3    0    0  0.25300073252E+02 -0.10531861241E+02 -0.68116178040E+03  0.68182176157E+03  0.12187274991E+02 0.  0.
         22    1    3    3    0    0 -0.25300073252E+02  0.10531861241E+02 -0.71801843656E+02  0.76853877977E+02  0.00000000000E+00 0.  1.
         22    1    4    4    0    0  0.23370193632E+02 -0.10418752008E+02 -0.67037333759E+03  0.67086148205E+03  0.00000000000E+00 0.  1.
         22    1    4    4    0    0  0.19298796203E+01 -0.11310923317E+00 -0.10788442805E+02  0.10960279522E+02  0.00000000000E+00 0.  1.
<mgrwt>
<rscale>  0 0.92922047E+02</rscale>
<asrwt>0</asrwt>
<pdfrwt beam="2">  1        2 0.11627978E+00 0.92922047E+02</pdfrwt>
<pdfrwt beam="1">  1       -2 0.43938641E-03 0.92922047E+02</pdfrwt>
<totfact> 0.22936791E+05</totfact>
</mgrwt>
</event>
<event>
 7    1  0.3337990E-009  0.9300710E+02  0.7818608E-02  0.1295729E+00
          2   -1    0    0  501    0  0.00000000000E+00  0.00000000000E+00  0.83577921555E+02  0.83577921594E+02  0.25500000000E-02 0. -1.
         -2   -1    0    0    0  501 -0.00000000000E+00 -0.00000000000E+00 -0.25875016635E+02  0.25875016761E+02  0.25500000000E-02 0.  1.
         23    2    1    2    0    0  0.17763568394E-14  0.00000000000E+00  0.57702904920E+02  0.10945293835E+03  0.93007099074E+02 0.  0.
    9000005    2    3    3    0    0 -0.11944617781E+02  0.34130386651E+02 -0.51395249612E+01  0.36949640635E+02  0.55950012794E+01 0.  0.
         22    1    3    3    0    0  0.11944617781E+02 -0.34130386651E+02  0.62842429881E+02  0.72503297720E+02  0.00000000000E+00 0. -1.
         22    1    4    4    0    0 -0.15610186019E+01  0.36955919404E+01 -0.24022243511E+01  0.46759876709E+01  0.00000000000E+00 0.  1.
         22    1    4    4    0    0 -0.10383599179E+02  0.30434794711E+02 -0.27373006101E+01  0.32273652964E+02  0.00000000000E+00 0.  1.
<mgrwt>
<rscale>  0 0.93007099E+02</rscale>
<asrwt>0</asrwt>
<pdfrwt beam="1">  1        2 0.12858142E-01 0.93007099E+02</pdfrwt>
<pdfrwt beam="2">  1       -2 0.39807719E-02 0.93007099E+02</pdfrwt>
<totfact> 0.11005712E+05</totfact>
</mgrwt>
</event>
<event>
 7    1  0.3337990E-009  0.9075459E+02  0.7818608E-02  0.1301035E+00
         -2   -1    0    0    0  501 -0.00000000000E+00  0.00000000000E+00  0.19581981950E+02  0.19581982116E+02  0.25500000000E-02 0.  1.
          2   -1    0    0  501    0  0.00000000000E+00 -0.00000000000E+00 -0.10515272254E+03  0.10515272257E+03  0.25500000000E-02 0. -1.
         23    2    1    2    0    0  0.00000000000E+00  0.00000000000E+00 -0.85570740591E+02  0.12473470469E+03  0.90754586156E+02 0.  0.
    9000005    2    3    3    0    0 -0.18485745210E+02 -0.23246018964E+01  0.12592074555E+02  0.24819416432E+02  0.10503168117E+02 0.  0.
         22    1    3    3    0    0  0.18485745210E+02  0.23246018964E+01 -0.98162815146E+02  0.99915288256E+02  0.00000000000E+00 0. -1.
         22    1    4    4    0    0 -0.54364733123E+01 -0.35011138436E+01 -0.25269293217E+00  0.64712358896E+01  0.00000000000E+00 0.  1.
         22    1    4    4    0    0 -0.13049271898E+02  0.11765119473E+01  0.12844767487E+02  0.18348180543E+02  0.00000000000E+00 0.  1.
<mgrwt>
<rscale>  0 0.90754586E+02</rscale>
<asrwt>0</asrwt>
<pdfrwt beam="2">  1        2 0.16177342E-01 0.90754586E+02</pdfrwt>
<pdfrwt beam="1">  1       -2 0.30126127E-02 0.90754586E+02</pdfrwt>
<totfact> 0.12617905E+05</totfact>
</mgrwt>
</event>
<event>
 7    1  0.3337990E-009  0.8987346E+02  0.7818608E-02  0.1303158E+00
          2   -1    0    0  501    0  0.00000000000E+00  0.00000000000E+00  0.57410308385E+03  0.57410308386E+03  0.25500000000E-02 0. -1.
         -2   -1    0    0    0  501 -0.00000000000E+00 -0.00000000000E+00 -0.35173291404E+01  0.35173300648E+01  0.25500000000E-02 0.  1.
         23    2    1    2    0    0 -0.17763568394E-14  0.00000000000E+00  0.57058575471E+03  0.57762041392E+03  0.89873461601E+02 0.  0.
    9000005    2    3    3    0    0  0.12301489359E+02 -0.24587779958E+02  0.51312105075E+03  0.51391737032E+03  0.78717992177E+01 0.  0.
         22    1    3    3    0    0 -0.12301489359E+02  0.24587779958E+02  0.57464703959E+02  0.63703043607E+02  0.00000000000E+00 0.  1.
         22    1    4    4    0    0  0.69938132369E+01 -0.14872709557E+02  0.37194934563E+03  0.37231227032E+03  0.00000000000E+00 0.  1.
         22    1    4    4    0    0  0.53076761221E+01 -0.97150704006E+01  0.14117170512E+03  0.14160510000E+03  0.00000000000E+00 0.  1.
<mgrwt>
<rscale>  0 0.89873462E+02</rscale>
<asrwt>0</asrwt>
<pdfrwt beam="1">  1        2 0.88323491E-01 0.89873462E+02</pdfrwt>
<pdfrwt beam="2">  1       -2 0.54112800E-03 0.89873462E+02</pdfrwt>
<totfact> 0.23367302E+05</totfact>
</mgrwt>
</event>
<event>
 7    1  0.3337990E-009  0.8958307E+02  0.7818608E-02  0.1303865E+00
          2   -1    0    0  501    0  0.00000000000E+00  0.00000000000E+00  0.32687894044E+03  0.32687894045E+03  0.25500000000E-02 0.  1.
         -2   -1    0    0    0  501 -0.00000000000E+00 -0.00000000000E+00 -0.61376890792E+01  0.61376896090E+01  0.25500000000E-02 0. -1.
         23    2    1    2    0    0 -0.17763568394E-14  0.35527136788E-14  0.32074125136E+03  0.33301663006E+03  0.89583065204E+02 0.  0.
    9000005    2    3    3    0    0  0.15805651469E+02  0.19542229256E+02  0.29686513306E+03  0.29834983950E+03  0.15874575894E+02 0.  0.
         22    1    3    3    0    0 -0.15805651469E+02 -0.19542229256E+02  0.23876118304E+02  0.34666790563E+02  0.00000000000E+00 0. -1.
         22    1    4    4    0    0 -0.12386325866E+01 -0.17074165176E+01  0.11886148590E+02  0.12071868545E+02  0.00000000000E+00 0.  1.
         22    1    4    4    0    0  0.17044284056E+02  0.21249645773E+02  0.28497898447E+03  0.28627797095E+03  0.00000000000E+00 0.  1.
<mgrwt>
<rscale>  0 0.89583065E+02</rscale>
<asrwt>0</asrwt>
<pdfrwt beam="1">  1        2 0.50289059E-01 0.89583065E+02</pdfrwt>
<pdfrwt beam="2">  1       -2 0.94426006E-03 0.89583065E+02</pdfrwt>
<totfact> 0.19438162E+05</totfact>
</mgrwt>
</event>
<event>
 7    1  0.3337990E-009  0.8605825E+02  0.7818608E-02  0.1312688E+00
          2   -1    0    0  501    0  0.00000000000E+00  0.00000000000E+00  0.19530560855E+01  0.19530577502E+01  0.25500000000E-02 0. -1.
         -2   -1    0    0    0  501 -0.00000000000E+00 -0.00000000000E+00 -0.94800388747E+03  0.94800388747E+03  0.25500000000E-02 0.  1.
         23    2    1    2    0    0 -0.17763568394E-14  0.88817841970E-15 -0.94605083139E+03  0.94995694522E+03  0.86058248968E+02 0.  0.
    9000005    2    3    3    0    0 -0.81758268212E+01 -0.68206889967E+01 -0.93289139589E+03  0.93302955071E+03  0.12017488185E+02 0.  0.
         22    1    3    3    0    0  0.81758268212E+01  0.68206889967E+01 -0.13159435491E+02  0.16927394514E+02  0.00000000000E+00 0. -1.
         22    1    4    4    0    0 -0.40386845053E+01  0.19985128837E+01 -0.12815312231E+03  0.12823231958E+03  0.00000000000E+00 0.  1.
         22    1    4    4    0    0 -0.41371423160E+01 -0.88192018804E+01 -0.80473827358E+03  0.80479723113E+03  0.00000000000E+00 0.  1.
<mgrwt>
<rscale>  0 0.86058249E+02</rscale>
<asrwt>0</asrwt>
<pdfrwt beam="1">  1        2 0.30047105E-03 0.86058249E+02</pdfrwt>
<pdfrwt beam="2">  1       -2 0.14584638E+00 0.86058249E+02</pdfrwt>
<totfact> 0.23080862E+04</totfact>
</mgrwt>
</event>
<event>
 7    1  0.3337990E-009  0.9616004E+02  0.7818608E-02  0.1288585E+00
         -2   -1    0    0    0  501 -0.00000000000E+00  0.00000000000E+00  0.17358494144E+01  0.17358512874E+01  0.25500000000E-02 0.  1.
          2   -1    0    0  501    0  0.00000000000E+00 -0.00000000000E+00 -0.13317324616E+04  0.13317324616E+04  0.25500000000E-02 0. -1.
         23    2    1    2    0    0  0.00000000000E+00  0.00000000000E+00 -0.13299966122E+04  0.13334683129E+04  0.96160038771E+02 0.  0.
    9000005    2    3    3    0    0  0.17442594365E+02  0.24206131424E+02 -0.11842742045E+04  0.11847228894E+04  0.13143531331E+02 0.  0.
         22    1    3    3    0    0 -0.17442594365E+02 -0.24206131424E+02 -0.14572240773E+03  0.14874542350E+03  0.00000000000E+00 0.  1.
         22    1    4    4    0    0 -0.50270295913E+00 -0.50455402326E+00 -0.14099705376E+03  0.14099885267E+03  0.00000000000E+00 0. -1.
         22    1    4    4    0    0  0.17945297324E+02  0.24710685447E+02 -0.10432771507E+04  0.10437240368E+04  0.00000000000E+00 0. -1.
<mgrwt>
<rscale>  0 0.96160039E+02</rscale>
<asrwt>0</asrwt>
<pdfrwt beam="2">  1        2 0.20488110E+00 0.96160039E+02</pdfrwt>
<pdfrwt beam="1">  1       -2 0.26705497E-03 0.96160039E+02</pdfrwt>
<totfact> 0.21242556E+05</totfact>
</mgrwt>
</event>
<event>
 7    1  0.3337990E-009  0.9139702E+02  0.7818608E-02  0.1299503E+00
         -2   -1    0    0    0  501 -0.00000000000E+00  0.00000000000E+00  0.68597478545E+01  0.68597483284E+01  0.25500000000E-02 0. -1.
          2   -1    0    0  501    0  0.00000000000E+00 -0.00000000000E+00 -0.30443593910E+03  0.30443593911E+03  0.25500000000E-02 0.  1.
         23    2    1    2    0    0  0.17763568394E-14  0.00000000000E+00 -0.29757619124E+03  0.31129568744E+03  0.91397020859E+02 0.  0.
    9000005    2    3    3    0    0  0.95797925697E+01 -0.32183533281E+02 -0.25310857925E+03  0.25557387163E+03  0.11247165499E+02 0.  0.
         22    1    3    3    0    0 -0.95797925697E+01  0.32183533281E+02 -0.44467611997E+02  0.55721815807E+02  0.00000000000E+00 0. -1.
         22    1    4    4    0    0  0.61344128782E+01 -0.26269926575E+02 -0.22643292663E+03  0.22803423060E+03  0.00000000000E+00 0. -1.
         22    1    4    4    0    0  0.34453796915E+01 -0.59136067057E+01 -0.26675652613E+02  0.27539641025E+02  0.00000000000E+00 0. -1.
<mgrwt>
<rscale>  0 0.91397021E+02</rscale>
<asrwt>0</asrwt>
<pdfrwt beam="2">  1        2 0.46836288E-01 0.91397021E+02</pdfrwt>
<pdfrwt beam="1">  1       -2 0.10553461E-02 0.91397021E+02</pdfrwt>
<totfact> 0.17948498E+05</totfact>
</mgrwt>
</event>
<event>
 7    1  0.3337990E-009  0.8861518E+02  0.7818608E-02  0.1306240E+00
         -2   -1    0    0    0  501 -0.00000000000E+00  0.00000000000E+00  0.33232549499E+02  0.33232549597E+02  0.25500000000E-02 0.  1.
          2   -1    0    0  501    0  0.00000000000E+00 -0.00000000000E+00 -0.59073488315E+02  0.59073488370E+02  0.25500000000E-02 0. -1.
         23    2    1    2    0    0  0.00000000000E+00 -0.17763568394E-14 -0.25840938815E+02  0.92306037967E+02  0.88615182256E+02 0.  0.
    9000005    2    3    3    0    0 -0.25372597808E+02  0.15649094335E+02  0.21010586648E+02  0.36774710670E+02  0.47192923773E+01 0.  0.
         22    1    3    3    0    0  0.25372597808E+02 -0.15649094335E+02 -0.46851525463E+02  0.55531327296E+02  0.00000000000E+00 0. -1.
         22    1    4    4    0    0 -0.14159669995E+02  0.10170980503E+02  0.98022277315E+01  0.20000719168E+02  0.00000000000E+00 0.  1.
         22    1    4    4    0    0 -0.11212927814E+02  0.54781138327E+01  0.11208358916E+02  0.16773991502E+02  0.00000000000E+00 0.  1.
<mgrwt>
<rscale>  0 0.88615182E+02</rscale>
<asrwt>0</asrwt>
<pdfrwt beam="2">  1        2 0.90882290E-02 0.88615182E+02</pdfrwt>
<pdfrwt beam="1">  1       -2 0.51126999E-02 0.88615182E+02</pdfrwt>
<totfact> 0.11444602E+05</totfact>
</mgrwt>
</event>
<event>
 7    1  0.3337990E-009  0.9193551E+02  0.7818608E-02  0.1298231E+00
         -2   -1    0    0    0  501 -0.00000000000E+00  0.00000000000E+00  0.60755710489E+01  0.60755715840E+01  0.25500000000E-02 0.  1.
          2   -1    0    0  501    0  0.00000000000E+00 -0.00000000000E+00 -0.34779187468E+03  0.34779187469E+03  0.25500000000E-02 0. -1.
         23    2    1    2    0    0  0.00000000000E+00  0.00000000000E+00 -0.34171630363E+03  0.35386744628E+03  0.91935506551E+02 0.  0.
    9000005    2    3    3    0    0 -0.18260810447E+02  0.41048280987E+02 -0.18536837835E+03  0.19119264088E+03  0.13220123458E+02 0.  0.
         22    1    3    3    0    0  0.18260810447E+02 -0.41048280987E+02 -0.15634792528E+03  0.16267480540E+03  0.00000000000E+00 0. -1.
         22    1    4    4    0    0 -0.13863529709E+02  0.31783208711E+02 -0.11604833100E+03  0.12111806199E+03  0.00000000000E+00 0. -1.
         22    1    4    4    0    0 -0.43972807384E+01  0.92650722756E+01 -0.69320047348E+02  0.70074578889E+02  0.00000000000E+00 0. -1.
<mgrwt>
<rscale>  0 0.91935507E+02</rscale>
<asrwt>0</asrwt>
<pdfrwt beam="2">  1        2 0.53506427E-01 0.91935507E+02</pdfrwt>
<pdfrwt beam="1">  1       -2 0.93470355E-03 0.91935507E+02</pdfrwt>
<totfact> 0.18561420E+05</totfact>
</mgrwt>
</event>
<event>
 7    1  0.3337990E-009  0.9024449E+02  0.7818608E-02  0.1302261E+00
         -2   -1    0    0    0  501 -0.00000000000E+00  0.00000000000E+00  0.59899617446E+02  0.59899617501E+02  0.25500000000E-02 0.  1.
          2   -1    0    0  501    0  0.00000000000E+00 -0.00000000000E+00 -0.33990485391E+02  0.33990485487E+02  0.25500000000E-02 0. -1.
         23    2    1    2    0    0  0.00000000000E+00 -0.88817841970E-15  0.25909132055E+02  0.93890102988E+02  0.90244491883E+02 0.  0.
    9000005    2    3    3    0    0 -0.24283432232E+02  0.75100942139E+01 -0.25314242385E+02  0.36706882676E+02  0.77780313824E+01 0.  0.
         22    1    3    3    0    0  0.24283432232E+02 -0.75100942139E+01  0.51223374441E+02  0.57183220311E+02  0.00000000000E+00 0.  1.
         22    1    4    4    0    0 -0.11765666310E+02 -0.32897305688E+00 -0.10210752980E+02  0.15581996130E+02  0.00000000000E+00 0.  1.
         22    1    4    4    0    0 -0.12517765923E+02  0.78390672707E+01 -0.15103489406E+02  0.21124886546E+02  0.00000000000E+00 0.  1.
<mgrwt>
<rscale>  0 0.90244492E+02</rscale>
<asrwt>0</asrwt>
<pdfrwt beam="2">  1        2 0.52293055E-02 0.90244492E+02</pdfrwt>
<pdfrwt beam="1">  1       -2 0.92153258E-02 0.90244492E+02</pdfrwt>
<totfact> 0.94230216E+04</totfact>
</mgrwt>
</event>
<event>
 7    1  0.3337990E-009  0.9142803E+02  0.7818608E-02  0.1299430E+00
         -2   -1    0    0    0  501 -0.00000000000E+00  0.00000000000E+00  0.84174419697E+01  0.84174423559E+01  0.25500000000E-02 0.  1.
          2   -1    0    0  501    0  0.00000000000E+00 -0.00000000000E+00 -0.24826676307E+03  0.24826676308E+03  0.25500000000E-02 0. -1.
         23    2    1    2    0    0  0.00000000000E+00  0.71054273576E-14 -0.23984932110E+03  0.25668420544E+03  0.91428029014E+02 0.  0.
    9000005    2    3    3    0    0 -0.26227560108E+02 -0.35276048597E+02 -0.14313241767E+03  0.15044652887E+03  0.14662351340E+02 0.  0.
         22    1    3    3    0    0  0.26227560108E+02  0.35276048597E+02 -0.96716903430E+02  0.10623767657E+03  0.00000000000E+00 0. -1.
         22    1    4    4    0    0 -0.25816510396E+02 -0.31812142802E+02 -0.13957739098E+03  0.14546598472E+03  0.00000000000E+00 0. -1.
         22    1    4    4    0    0 -0.41104971149E+00 -0.34639057953E+01 -0.35550266907E+01  0.49805441465E+01  0.00000000000E+00 0. -1.
<mgrwt>
<rscale>  0 0.91428029E+02</rscale>
<asrwt>0</asrwt>
<pdfrwt beam="2">  1        2 0.38194881E-01 0.91428029E+02</pdfrwt>
<pdfrwt beam="1">  1       -2 0.12949913E-02 0.91428029E+02</pdfrwt>
<totfact> 0.16619856E+05</totfact>
</mgrwt>
</event>
<event>
 7    1  0.3337990E-009  0.9238395E+02  0.7818608E-02  0.1297179E+00
          2   -1    0    0  501    0  0.00000000000E+00  0.00000000000E+00  0.17299438618E+03  0.17299438620E+03  0.25500000000E-02 0. -1.
         -2   -1    0    0    0  501 -0.00000000000E+00 -0.00000000000E+00 -0.12333917623E+02  0.12333917887E+02  0.25500000000E-02 0.  1.
         23    2    1    2    0    0  0.00000000000E+00  0.00000000000E+00  0.16066046855E+03  0.18532830408E+03  0.92383949571E+02 0.  0.
    9000005    2    3    3    0    0 -0.17626714959E+02  0.42104343595E+02  0.70424987300E+02  0.84205018401E+02  0.68796408335E+01 0.  0.
         22    1    3    3    0    0  0.17626714959E+02 -0.42104343595E+02  0.90235481253E+02  0.10112328568E+03  0.00000000000E+00 0.  1.
         22    1    4    4    0    0 -0.13191755961E+02  0.26628185395E+02  0.50431056281E+02  0.58535238278E+02  0.00000000000E+00 0.  1.
         22    1    4    4    0    0 -0.44349589982E+01  0.15476158201E+02  0.19993931019E+02  0.25669780123E+02  0.00000000000E+00 0.  1.
<mgrwt>
<rscale>  0 0.92383950E+02</rscale>
<asrwt>0</asrwt>
<pdfrwt beam="1">  1        2 0.26614521E-01 0.92383950E+02</pdfrwt>
<pdfrwt beam="2">  1       -2 0.18975258E-02 0.92383950E+02</pdfrwt>
<totfact> 0.14173678E+05</totfact>
</mgrwt>
</event>
<event>
 7    1  0.3337990E-009  0.9062795E+02  0.7818608E-02  0.1301338E+00
         -2   -1    0    0    0  501 -0.00000000000E+00  0.00000000000E+00  0.19563759938E+02  0.19563760104E+02  0.25500000000E-02 0. -1.
          2   -1    0    0  501    0  0.00000000000E+00 -0.00000000000E+00 -0.10495714677E+03  0.10495714680E+03  0.25500000000E-02 0.  1.
         23    2    1    2    0    0  0.71054273576E-14  0.00000000000E+00 -0.85393386836E+02  0.12452090691E+03  0.90627952321E+02 0.  0.
    9000005    2    3    3    0    0 -0.34524353089E+02  0.22313036174E+02 -0.16925479371E+02  0.44660673424E+02  0.42780087916E+01 0.  0.
         22    1    3    3    0    0  0.34524353089E+02 -0.22313036174E+02 -0.68467907465E+02  0.79860233484E+02  0.00000000000E+00 0. -1.
         22    1    4    4    0    0 -0.11332499823E+02  0.77616299470E+01 -0.35382201540E+01  0.14184056314E+02  0.00000000000E+00 0.  1.
         22    1    4    4    0    0 -0.23191853266E+02  0.14551406227E+02 -0.13387259217E+02  0.30476617110E+02  0.00000000000E+00 0.  1.
<mgrwt>
<rscale>  0 0.90627952E+02</rscale>
<asrwt>0</asrwt>
<pdfrwt beam="2">  1        2 0.16147253E-01 0.90627952E+02</pdfrwt>
<pdfrwt beam="1">  1       -2 0.30098093E-02 0.90627952E+02</pdfrwt>
<totfact> 0.12659061E+05</totfact>
</mgrwt>
</event>
<event>
 7    1  0.3378675E-009  0.8305830E+02  0.7818608E-02  0.1320590E+00
          2   -1    0    0  501    0  0.00000000000E+00  0.00000000000E+00  0.73982929962E+03  0.73982929963E+03  0.25500000000E-02 0. -1.
         -2   -1    0    0    0  501 -0.00000000000E+00 -0.00000000000E+00 -0.23311725244E+01  0.23311739190E+01  0.25500000000E-02 0.  1.
         23    2    1    2    0    0  0.00000000000E+00 -0.17763568394E-14  0.73749812710E+03  0.74216047355E+03  0.83058298927E+02 0.  0.
    9000005    2    3    3    0    0 -0.39747145447E+01 -0.11557117818E+02  0.72289214074E+03  0.72311578490E+03  0.13191887892E+02 0.  0.
         22    1    3    3    0    0  0.39747145447E+01  0.11557117818E+02  0.14605986359E+02  0.19044688642E+02  0.00000000000E+00 0.  1.
         22    1    4    4    0    0 -0.10860676555E+01  0.24022603468E+01  0.23677616479E+03  0.23679084148E+03  0.00000000000E+00 0.  1.
         22    1    4    4    0    0 -0.28886468892E+01 -0.13959378165E+02  0.48611597595E+03  0.48632494342E+03  0.00000000000E+00 0.  1.
<mgrwt>
<rscale>  0 0.83058299E+02</rscale>
<asrwt>0</asrwt>
<pdfrwt beam="1">  1        2 0.11381988E+00 0.83058299E+02</pdfrwt>
<pdfrwt beam="2">  1       -2 0.35864209E-03 0.83058299E+02</pdfrwt>
<totfact> 0.30663248E+05</totfact>
</mgrwt>
</event>
<event>
 6    1  0.3337990E-009  0.1849864E+03  0.7818608E-02  0.1163063E+00
         -2   -1    0    0    0  501 -0.00000000000E+00  0.00000000000E+00  0.20564079752E+02  0.20564079911E+02  0.25500000000E-02 0.  1.
          2   -1    0    0  501    0  0.00000000000E+00 -0.00000000000E+00 -0.41601648582E+03  0.41601648583E+03  0.25500000000E-02 0. -1.
    9000005    2    1    2    0    0 -0.86229517818E+02  0.47615735375E+01 -0.12040851560E+03  0.14829712187E+03  0.59685341556E+01 0.  0.
         22    1    1    2    0    0  0.86229517818E+02 -0.47615735375E+01 -0.27504389047E+03  0.28828344387E+03  0.00000000000E+00 0. -1.
         22    1    3    3    0    0 -0.70690527635E+02  0.15949353455E+01 -0.98344083577E+02  0.12112494908E+03  0.00000000000E+00 0.  1.
         22    1    3    3    0    0 -0.15538990183E+02  0.31666381920E+01 -0.22064432022E+02  0.27172172784E+02  0.00000000000E+00 0.  1.
<mgrwt>
<rscale>  0 0.18498645E+03</rscale>
<asrwt>0</asrwt>
<pdfrwt beam="2">  1        2 0.64002530E-01 0.18498645E+03</pdfrwt>
<pdfrwt beam="1">  1       -2 0.31637049E-02 0.18498645E+03</pdfrwt>
<totfact> 0.28712450E+04</totfact>
</mgrwt>
</event>
<event>
 7    1  0.3337990E-009  0.9064203E+02  0.7818608E-02  0.1301304E+00
          2   -1    0    0  501    0  0.00000000000E+00  0.00000000000E+00  0.38341231026E+02  0.38341231111E+02  0.25500000000E-02 0.  1.
         -2   -1    0    0    0  501 -0.00000000000E+00 -0.00000000000E+00 -0.53571425961E+02  0.53571426022E+02  0.25500000000E-02 0. -1.
         23    2    1    2    0    0  0.00000000000E+00  0.00000000000E+00 -0.15230194935E+02  0.91912657133E+02  0.90642030557E+02 0.  0.
    9000005    2    3    3    0    0 -0.25188659005E+02  0.32795071551E+02  0.77652681499E+01  0.44596945334E+02  0.14785225166E+02 0.  0.
         22    1    3    3    0    0  0.25188659005E+02 -0.32795071551E+02 -0.22995463085E+02  0.47315711798E+02  0.00000000000E+00 0.  1.
         22    1    4    4    0    0 -0.23299656570E+02  0.33056608272E+02  0.99984379880E+01  0.41660318157E+02  0.00000000000E+00 0. -1.
         22    1    4    4    0    0 -0.18890024344E+01 -0.26153672055E+00 -0.22331698381E+01  0.29366271774E+01  0.00000000000E+00 0. -1.
<mgrwt>
<rscale>  0 0.90642031E+02</rscale>
<asrwt>0</asrwt>
<pdfrwt beam="1">  1        2 0.58986509E-02 0.90642031E+02</pdfrwt>
<pdfrwt beam="2">  1       -2 0.82417579E-02 0.90642031E+02</pdfrwt>
<totfact> 0.95972859E+04</totfact>
</mgrwt>
</event>
<event>
 7    1  0.3337990E-009  0.8963965E+02  0.7818608E-02  0.1303727E+00
          2   -1    0    0  501    0  0.00000000000E+00  0.00000000000E+00  0.14250696716E+02  0.14250696945E+02  0.25500000000E-02 0. -1.
         -2   -1    0    0    0  501 -0.00000000000E+00 -0.00000000000E+00 -0.14096270218E+03  0.14096270220E+03  0.25500000000E-02 0.  1.
         23    2    1    2    0    0  0.00000000000E+00  0.00000000000E+00 -0.12671200546E+03  0.15521339915E+03  0.89639650526E+02 0.  0.
    9000005    2    3    3    0    0  0.43395592232E+02 -0.12188408868E+01 -0.58263001794E+02  0.74158299977E+02  0.14839578132E+02 0.  0.
         22    1    3    3    0    0 -0.43395592232E+02  0.12188408868E+01 -0.68449003671E+02  0.81055099172E+02  0.00000000000E+00 0.  1.
         22    1    4    4    0    0  0.22575116250E+02  0.13057784500E+01 -0.41689195239E+02  0.47427101226E+02  0.00000000000E+00 0. -1.
         22    1    4    4    0    0  0.20820475982E+02 -0.25246193369E+01 -0.16573806555E+02  0.26731198750E+02  0.00000000000E+00 0. -1.
<mgrwt>
<rscale>  0 0.89639651E+02</rscale>
<asrwt>0</asrwt>
<pdfrwt beam="1">  1        2 0.21924150E-02 0.89639651E+02</pdfrwt>
<pdfrwt beam="2">  1       -2 0.21686569E-01 0.89639651E+02</pdfrwt>
<totfact> 0.74559468E+04</totfact>
</mgrwt>
</event>
<event>
 7    1  0.3337990E-009  0.9194411E+02  0.7818608E-02  0.1298211E+00
          2   -1    0    0  501    0  0.00000000000E+00  0.00000000000E+00  0.36694649587E+02  0.36694649676E+02  0.25500000000E-02 0.  1.
         -2   -1    0    0    0  501 -0.00000000000E+00 -0.00000000000E+00 -0.57595036087E+02  0.57595036144E+02  0.25500000000E-02 0. -1.
         23    2    1    2    0    0  0.00000000000E+00  0.35527136788E-14 -0.20900386500E+02  0.94289685819E+02  0.91944106369E+02 0.  0.
    9000005    2    3    3    0    0 -0.16146636605E+02  0.20807427564E+02 -0.47856485493E+02  0.56602895184E+02  0.14831777509E+02 0.  0.
         22    1    3    3    0    0  0.16146636605E+02 -0.20807427564E+02  0.26956098992E+02  0.37686790635E+02  0.00000000000E+00 0.  1.
         22    1    4    4    0    0  0.72909451816E+00  0.99025512493E+00  0.76806004150E+00  0.14498621508E+01  0.00000000000E+00 0. -1.
         22    1    4    4    0    0 -0.16875731123E+02  0.19817172439E+02 -0.48624545534E+02  0.55153033034E+02  0.00000000000E+00 0. -1.
<mgrwt>
<rscale>  0 0.91944106E+02</rscale>
<asrwt>0</asrwt>
<pdfrwt beam="1">  1        2 0.56453307E-02 0.91944106E+02</pdfrwt>
<pdfrwt beam="2">  1       -2 0.88607747E-02 0.91944106E+02</pdfrwt>
<totfact> 0.91023519E+04</totfact>
</mgrwt>
</event>
<event>
 7    1  0.3337990E-009  0.9675190E+02  0.7818608E-02  0.1287278E+00
          2   -1    0    0  501    0  0.00000000000E+00  0.00000000000E+00  0.81253364402E+03  0.81253364402E+03  0.25500000000E-02 0. -1.
         -2   -1    0    0    0  501 -0.00000000000E+00 -0.00000000000E+00 -0.28801665607E+01  0.28801676896E+01  0.25500000000E-02 0.  1.
         23    2    1    2    0    0  0.00000000000E+00 -0.35527136788E-14  0.80965347746E+03  0.81541381171E+03  0.96751903192E+02 0.  0.
    9000005    2    3    3    0    0 -0.26897160614E+02 -0.31000128592E+02  0.61359612072E+03  0.61510666667E+03  0.13097587710E+02 0.  0.
         22    1    3    3    0    0  0.26897160614E+02  0.31000128592E+02  0.19605735674E+03  0.20030714504E+03  0.00000000000E+00 0.  1.
         22    1    4    4    0    0 -0.26895254551E+02 -0.31999180087E+02  0.58419118406E+03  0.58568476314E+03  0.00000000000E+00 0. -1.
         22    1    4    4    0    0 -0.19060633557E-02  0.99905149494E+00  0.29404936659E+02  0.29421903532E+02  0.00000000000E+00 0. -1.
<mgrwt>
<rscale>  0 0.96751903E+02</rscale>
<asrwt>0</asrwt>
<pdfrwt beam="1">  1        2 0.12500518E+00 0.96751903E+02</pdfrwt>
<pdfrwt beam="2">  1       -2 0.44310261E-03 0.96751903E+02</pdfrwt>
<totfact> 0.20890884E+05</totfact>
</mgrwt>
</event>
<event>
 7    1  0.3337990E-009  0.9042923E+02  0.7818608E-02  0.1301816E+00
          2   -1    0    0  501    0  0.00000000000E+00  0.00000000000E+00  0.41610684806E+03  0.41610684806E+03  0.25500000000E-02 0. -1.
         -2   -1    0    0    0  501 -0.00000000000E+00 -0.00000000000E+00 -0.49130684451E+01  0.49130691068E+01  0.25500000000E-02 0.  1.
         23    2    1    2    0    0  0.00000000000E+00  0.00000000000E+00  0.41119377961E+03  0.42101991717E+03  0.90429233457E+02 0.  0.
    9000005    2    3    3    0    0 -0.27296402459E+02  0.15608176163E+02  0.35624109654E+03  0.35770715284E+03  0.76144323497E+01 0.  0.
         22    1    3    3    0    0  0.27296402459E+02 -0.15608176163E+02  0.54952683075E+02  0.63312764333E+02  0.00000000000E+00 0.  1.
         22    1    4    4    0    0 -0.17383684578E+02  0.59448370309E+01  0.18666799458E+03  0.18756991704E+03  0.00000000000E+00 0. -1.
         22    1    4    4    0    0 -0.99127178804E+01  0.96633391317E+01  0.16957310196E+03  0.17013723580E+03  0.00000000000E+00 0. -1.
<mgrwt>
<rscale>  0 0.90429233E+02</rscale>
<asrwt>0</asrwt>
<pdfrwt beam="1">  1        2 0.64016426E-01 0.90429233E+02</pdfrwt>
<pdfrwt beam="2">  1       -2 0.75585687E-03 0.90429233E+02</pdfrwt>
<totfact> 0.20691289E+05</totfact>
</mgrwt>
</event>
<event>
 6    1  0.3337990E-009  0.1885220E+03  0.7818608E-02  0.1159801E+00
         -2   -1    0    0    0  501 -0.00000000000E+00  0.00000000000E+00  0.99656945724E+02  0.99656945757E+02  0.25500000000E-02 0.  1.
          2   -1    0    0  501    0  0.00000000000E+00 -0.00000000000E+00 -0.89157173328E+02  0.89157173364E+02  0.25500000000E-02 0. -1.
    9000005    2    1    2    0    0  0.89340785682E+02  0.95524719427E+01 -0.23244812421E+02  0.92836399254E+02  0.22912912501E+01 0.  0.
         22    1    1    2    0    0 -0.89340785682E+02 -0.95524719427E+01  0.33744584817E+02  0.95977719867E+02  0.00000000000E+00 0.  1.
         22    1    3    3    0    0  0.50531159279E+02  0.64023923760E+01 -0.13740784894E+02  0.52756021986E+02  0.00000000000E+00 0.  1.
         22    1    3    3    0    0  0.38809626403E+02  0.31500795667E+01 -0.95040275265E+01  0.40080377269E+02  0.00000000000E+00 0.  1.
<mgrwt>
<rscale>  0 0.18852195E+03</rscale>
<asrwt>0</asrwt>
<pdfrwt beam="2">  1        2 0.13716488E-01 0.18852195E+03</pdfrwt>
<pdfrwt beam="1">  1       -2 0.15331838E-01 0.18852195E+03</pdfrwt>
<totfact> 0.13756027E+04</totfact>
</mgrwt>
</event>
<event>
 7    1  0.3337990E-009  0.9300490E+02  0.7818608E-02  0.1295734E+00
         -2   -1    0    0    0  501 -0.00000000000E+00  0.00000000000E+00  0.48837357278E+02  0.48837357344E+02  0.25500000000E-02 0.  1.
          2   -1    0    0  501    0  0.00000000000E+00 -0.00000000000E+00 -0.44279176292E+02  0.44279176366E+02  0.25500000000E-02 0. -1.
         23    2    1    2    0    0  0.44408920985E-15 -0.71054273576E-14  0.45581809857E+01  0.93116533710E+02  0.93004902216E+02 0.  0.
    9000005    2    3    3    0    0 -0.26473381230E+01  0.43476574724E+02 -0.12472533865E+02  0.46348315900E+02  0.97663369215E+01 0.  0.
         22    1    3    3    0    0  0.26473381230E+01 -0.43476574724E+02  0.17030714851E+02  0.46768217810E+02  0.00000000000E+00 0.  1.
         22    1    4    4    0    0  0.96332758610E+00  0.37894581141E+02 -0.95820251005E+01  0.39099136626E+02  0.00000000000E+00 0.  1.
         22    1    4    4    0    0 -0.36106657091E+01  0.55819935832E+01 -0.28905087643E+01  0.72491792737E+01  0.00000000000E+00 0.  1.
<mgrwt>
<rscale>  0 0.93004902E+02</rscale>
<asrwt>0</asrwt>
<pdfrwt beam="2">  1        2 0.68121810E-02 0.93004902E+02</pdfrwt>
<pdfrwt beam="1">  1       -2 0.75134396E-02 0.93004902E+02</pdfrwt>
<totfact> 0.92482216E+04</totfact>
</mgrwt>
</event>
<event>
 7    1  0.3337990E-009  0.9069460E+02  0.7818608E-02  0.1301178E+00
          2   -1    0    0  501    0  0.00000000000E+00  0.00000000000E+00  0.24673682951E+02  0.24673683083E+02  0.25500000000E-02 0. -1.
         -2   -1    0    0    0  501 -0.00000000000E+00 -0.00000000000E+00 -0.83342951047E+02  0.83342951086E+02  0.25500000000E-02 0.  1.
         23    2    1    2    0    0  0.17763568394E-14  0.00000000000E+00 -0.58669268096E+02  0.10801663417E+03  0.90694598727E+02 0.  0.
    9000005    2    3    3    0    0 -0.10292626638E+02 -0.29565600898E+02 -0.68385377809E+02  0.75237590443E+02  0.20179687897E+01 0.  0.
         22    1    3    3    0    0  0.10292626638E+02  0.29565600898E+02  0.97161097134E+01  0.32779043725E+02  0.00000000000E+00 0. -1.
         22    1    4    4    0    0 -0.21540089641E+01 -0.41572607562E+01 -0.10858243511E+02  0.11824720874E+02  0.00000000000E+00 0. -1.
         22    1    4    4    0    0 -0.81386176744E+01 -0.25408340142E+02 -0.57527134298E+02  0.63412869569E+02  0.00000000000E+00 0. -1.
<mgrwt>
<rscale>  0 0.90694599E+02</rscale>
<asrwt>0</asrwt>
<pdfrwt beam="1">  1        2 0.37959513E-02 0.90694599E+02</pdfrwt>
<pdfrwt beam="2">  1       -2 0.12821992E-01 0.90694599E+02</pdfrwt>
<totfact> 0.85222175E+04</totfact>
</mgrwt>
</event>
<event>
 7    1  0.3337990E-009  0.9035756E+02  0.7818608E-02  0.1301988E+00
         -2   -1    0    0    0  501 -0.00000000000E+00  0.00000000000E+00  0.72518668299E+02  0.72518668344E+02  0.25500000000E-02 0.  1.
          2   -1    0    0  501    0  0.00000000000E+00 -0.00000000000E+00 -0.28146160222E+02  0.28146160338E+02  0.25500000000E-02 0. -1.
         23    2    1    2    0    0  0.35527136788E-14  0.00000000000E+00  0.44372508077E+02  0.10066482868E+03  0.90357557849E+02 0.  0.
    9000005    2    3    3    0    0 -0.30401634949E+02 -0.21593772401E+02  0.49429295758E+02  0.63033438650E+02  0.11807145923E+02 0.  0.
         22    1    3    3    0    0  0.30401634949E+02  0.21593772401E+02 -0.50567876814E+01  0.37631390032E+02  0.00000000000E+00 0. -1.
         22    1    4    4    0    0 -0.24515324194E+02 -0.12199118014E+02  0.29658162218E+02  0.40366151498E+02  0.00000000000E+00 0. -1.
         22    1    4    4    0    0 -0.58863107553E+01 -0.93946543868E+01  0.19771133540E+02  0.22667287152E+02  0.00000000000E+00 0. -1.
<mgrwt>
<rscale>  0 0.90357558E+02</rscale>
<asrwt>0</asrwt>
<pdfrwt beam="2">  1        2 0.43301785E-02 0.90357558E+02</pdfrwt>
<pdfrwt beam="1">  1       -2 0.11156718E-01 0.90357558E+02</pdfrwt>
<totfact> 0.89333608E+04</totfact>
</mgrwt>
</event>
<event>
 7    1  0.3337990E-009  0.9105665E+02  0.7818608E-02  0.1300313E+00
          2   -1    0    0  501    0  0.00000000000E+00  0.00000000000E+00  0.28870058621E+03  0.28870058622E+03  0.25500000000E-02 0. -1.
         -2   -1    0    0    0  501 -0.00000000000E+00 -0.00000000000E+00 -0.71798555128E+01  0.71798559656E+01  0.25500000000E-02 0.  1.
         23    2    1    2    0    0  0.00000000000E+00  0.00000000000E+00  0.28152073070E+03  0.29588044219E+03  0.91056654103E+02 0.  0.
    9000005    2    3    3    0    0 -0.42040676557E+02  0.12540298561E+02  0.11415725238E+03  0.12286249095E+03  0.11774372164E+02 0.  0.
         22    1    3    3    0    0  0.42040676557E+02 -0.12540298561E+02  0.16736347832E+03  0.17301795123E+03  0.00000000000E+00 0. -1.
         22    1    4    4    0    0 -0.16420074447E+01 -0.15903325441E+01  0.99396479864E+01  0.10199115067E+02  0.00000000000E+00 0.  1.
         22    1    4    4    0    0 -0.40398669112E+02  0.14130631106E+02  0.10421760439E+03  0.11266337589E+03  0.00000000000E+00 0.  1.
<mgrwt>
<rscale>  0 0.91056654E+02</rscale>
<asrwt>0</asrwt>
<pdfrwt beam="1">  1        2 0.44415471E-01 0.91056654E+02</pdfrwt>
<pdfrwt beam="2">  1       -2 0.11045933E-02 0.91056654E+02</pdfrwt>
<totfact> 0.17773293E+05</totfact>
</mgrwt>
</event>
<event>
 7    1  0.3337990E-009  0.9326025E+02  0.7818608E-02  0.1295143E+00
          2   -1    0    0  501    0  0.00000000000E+00  0.00000000000E+00  0.17541134973E+03  0.17541134975E+03  0.25500000000E-02 0. -1.
         -2   -1    0    0    0  501 -0.00000000000E+00 -0.00000000000E+00 -0.12395824606E+02  0.12395824869E+02  0.25500000000E-02 0.  1.
         23    2    1    2    0    0  0.88817841970E-15 -0.71054273576E-14  0.16301552512E+03  0.18780717462E+03  0.93260245583E+02 0.  0.
    9000005    2    3    3    0    0  0.37085409030E+01 -0.40949927509E+02  0.12370100989E+03  0.13091885467E+03  0.12130821121E+02 0.  0.
         22    1    3    3    0    0 -0.37085409030E+01  0.40949927509E+02  0.39314515235E+02  0.56888319951E+02  0.00000000000E+00 0. -1.
         22    1    4    4    0    0  0.69563635921E+01 -0.32054359105E+02  0.85890520474E+02  0.91940494014E+02  0.00000000000E+00 0.  1.
         22    1    4    4    0    0 -0.32478226891E+01 -0.88955684038E+01  0.37810489414E+02  0.38978360652E+02  0.00000000000E+00 0.  1.
<mgrwt>
<rscale>  0 0.93260246E+02</rscale>
<asrwt>0</asrwt>
<pdfrwt beam="1">  1        2 0.26986360E-01 0.93260246E+02</pdfrwt>
<pdfrwt beam="2">  1       -2 0.19070501E-02 0.93260246E+02</pdfrwt>
<totfact> 0.13883426E+05</totfact>
</mgrwt>
</event>
<event>
 7    1  0.3337990E-009  0.9747605E+02  0.7818608E-02  0.1285695E+00
         -2   -1    0    0    0  501 -0.00000000000E+00  0.00000000000E+00  0.25366218558E+02  0.25366218686E+02  0.25500000000E-02 0. -1.
          2   -1    0    0  501    0  0.00000000000E+00 -0.00000000000E+00 -0.93644042696E+02  0.93644042731E+02  0.25500000000E-02 0.  1.
         23    2    1    2    0    0  0.00000000000E+00  0.00000000000E+00 -0.68277824139E+02  0.11901026142E+03  0.97476053744E+02 0.  0.
    9000005    2    3    3    0    0  0.36572737346E+02  0.29074438159E+02 -0.47700266061E+02  0.67958092338E+02  0.12653017849E+02 0.  0.
         22    1    3    3    0    0 -0.36572737346E+02 -0.29074438159E+02 -0.20577558078E+02  0.51052169079E+02  0.00000000000E+00 0. -1.
         22    1    4    4    0    0  0.31121195685E+02  0.17745043135E+02 -0.34803858345E+02  0.49947211458E+02  0.00000000000E+00 0. -1.
         22    1    4    4    0    0  0.54515416607E+01  0.11329395025E+02 -0.12896407716E+02  0.18010880880E+02  0.00000000000E+00 0. -1.
<mgrwt>
<rscale>  0 0.97476054E+02</rscale>
<asrwt>0</asrwt>
<pdfrwt beam="2">  1        2 0.14406776E-01 0.97476054E+02</pdfrwt>
<pdfrwt beam="1">  1       -2 0.39024952E-02 0.97476054E+02</pdfrwt>
<totfact> 0.99908130E+04</totfact>
</mgrwt>
</event>
<event>
 7    1  0.3337990E-009  0.9060920E+02  0.7818608E-02  0.1301383E+00
         -2   -1    0    0    0  501 -0.00000000000E+00  0.00000000000E+00  0.78368917244E+01  0.78368921393E+01  0.25500000000E-02 0. -1.
          2   -1    0    0  501    0  0.00000000000E+00 -0.00000000000E+00 -0.26190318257E+03  0.26190318259E+03  0.25500000000E-02 0.  1.
         23    2    1    2    0    0  0.00000000000E+00  0.00000000000E+00 -0.25406629085E+03  0.26974007472E+03  0.90609203544E+02 0.  0.
    9000005    2    3    3    0    0  0.25347030445E+02 -0.34256092881E+02 -0.87239170048E+02  0.97556335404E+02  0.95191352012E+01 0.  0.
         22    1    3    3    0    0 -0.25347030445E+02  0.34256092881E+02 -0.16682712080E+03  0.17218373932E+03  0.00000000000E+00 0.  1.
         22    1    4    4    0    0  0.15151189298E+02 -0.15648143488E+02 -0.52652264938E+02  0.56979680017E+02  0.00000000000E+00 0.  1.
         22    1    4    4    0    0  0.10195841147E+02 -0.18607949392E+02 -0.34586905109E+02  0.40576655386E+02  0.00000000000E+00 0.  1.
<mgrwt>
<rscale>  0 0.90609204E+02</rscale>
<asrwt>0</asrwt>
<pdfrwt beam="2">  1        2 0.40292791E-01 0.90609204E+02</pdfrwt>
<pdfrwt beam="1">  1       -2 0.12056759E-02 0.90609204E+02</pdfrwt>
<totfact> 0.17366110E+05</totfact>
</mgrwt>
</event>
<event>
 7    1  0.3337990E-009  0.9008872E+02  0.7818608E-02  0.1302637E+00
          2   -1    0    0  501    0  0.00000000000E+00  0.00000000000E+00  0.27027929088E+03  0.27027929089E+03  0.25500000000E-02 0. -1.
         -2   -1    0    0    0  501 -0.00000000000E+00 -0.00000000000E+00 -0.75070276625E+01  0.75070280956E+01  0.25500000000E-02 0.  1.
         23    2    1    2    0    0  0.00000000000E+00  0.00000000000E+00  0.26277226321E+03  0.27778631898E+03  0.90088715720E+02 0.  0.
    9000005    2    3    3    0    0  0.22227330423E+02  0.37598164944E+02  0.13604469859E+03  0.14374322196E+03  0.15693234832E+02 0.  0.
         22    1    3    3    0    0 -0.22227330423E+02 -0.37598164944E+02  0.12672756462E+03  0.13404309703E+03  0.00000000000E+00 0. -1.
         22    1    4    4    0    0  0.18001746075E+02  0.37054849823E+02  0.12982370667E+03  0.13620322893E+03  0.00000000000E+00 0. -1.
         22    1    4    4    0    0  0.42255843476E+01  0.54331512083E+00  0.62209919173E+01  0.75399930261E+01  0.00000000000E+00 0. -1.
<mgrwt>
<rscale>  0 0.90088716E+02</rscale>
<asrwt>0</asrwt>
<pdfrwt beam="1">  1        2 0.41581429E-01 0.90088716E+02</pdfrwt>
<pdfrwt beam="2">  1       -2 0.11549274E-02 0.90088716E+02</pdfrwt>
<totfact> 0.17843335E+05</totfact>
</mgrwt>
</event>
<event>
 7    1  0.3337990E-009  0.8751523E+02  0.7818608E-02  0.1308983E+00
         -2   -1    0    0    0  501 -0.00000000000E+00  0.00000000000E+00  0.85376421275E+01  0.85376425083E+01  0.25500000000E-02 0.  1.
          2   -1    0    0  501    0  0.00000000000E+00 -0.00000000000E+00 -0.22426904962E+03  0.22426904963E+03  0.25500000000E-02 0. -1.
         23    2    1    2    0    0  0.00000000000E+00  0.00000000000E+00 -0.21573140749E+03  0.23280669214E+03  0.87515231404E+02 0.  0.
    9000005    2    3    3    0    0 -0.31738423769E+02 -0.25835758410E+02 -0.14433601514E+03  0.15051382487E+03  0.12112483323E+02 0.  0.
         22    1    3    3    0    0  0.31738423769E+02  0.25835758410E+02 -0.71395392347E+02  0.82292867275E+02  0.00000000000E+00 0.  1.
         22    1    4    4    0    0 -0.10552416943E+02 -0.61508534207E+01 -0.63411092915E+02  0.64576723405E+02  0.00000000000E+00 0.  1.
         22    1    4    4    0    0 -0.21186006826E+02 -0.19684904989E+02 -0.80924922228E+02  0.85937101460E+02  0.00000000000E+00 0.  1.
<mgrwt>
<rscale>  0 0.87515231E+02</rscale>
<asrwt>0</asrwt>
<pdfrwt beam="2">  1        2 0.34502926E-01 0.87515231E+02</pdfrwt>
<pdfrwt beam="1">  1       -2 0.13134836E-02 0.87515231E+02</pdfrwt>
<totfact> 0.17997259E+05</totfact>
</mgrwt>
</event>
<event>
 7    1  0.3337990E-009  0.9923244E+02  0.7818608E-02  0.1281918E+00
          2   -1    0    0  501    0  0.00000000000E+00  0.00000000000E+00  0.49480365196E+02  0.49480365261E+02  0.25500000000E-02 0. -1.
         -2   -1    0    0    0  501 -0.00000000000E+00 -0.00000000000E+00 -0.49752447438E+02  0.49752447504E+02  0.25500000000E-02 0.  1.
         23    2    1    2    0    0  0.00000000000E+00  0.00000000000E+00 -0.27208224250E+00  0.99232812765E+02  0.99232439759E+02 0.  0.
    9000005    2    3    3    0    0  0.38800980918E+02 -0.12710622537E+02  0.28032896213E+02  0.49551348909E+02  0.15546263729E+01 0.  0.
         22    1    3    3    0    0 -0.38800980918E+02  0.12710622537E+02 -0.28304978456E+02  0.49681463856E+02  0.00000000000E+00 0.  1.
         22    1    4    4    0    0  0.15815099305E+02 -0.44571515002E+01  0.10876528059E+02  0.19704883358E+02  0.00000000000E+00 0.  1.
         22    1    4    4    0    0  0.22985881613E+02 -0.82534710372E+01  0.17156368154E+02  0.29846465552E+02  0.00000000000E+00 0.  1.
<mgrwt>
<rscale>  0 0.99232440E+02</rscale>
<asrwt>0</asrwt>
<pdfrwt beam="1">  1        2 0.76123638E-02 0.99232440E+02</pdfrwt>
<pdfrwt beam="2">  1       -2 0.76542227E-02 0.99232440E+02</pdfrwt>
<totfact> 0.78985623E+04</totfact>
</mgrwt>
</event>
<event>
 7    1  0.3337990E-009  0.9139925E+02  0.7818608E-02  0.1299498E+00
         -2   -1    0    0    0  501 -0.00000000000E+00  0.00000000000E+00  0.52271242639E+03  0.52271242640E+03  0.25500000000E-02 0.  1.
          2   -1    0    0  501    0  0.00000000000E+00 -0.00000000000E+00 -0.39954200675E+01  0.39954208812E+01  0.25500000000E-02 0. -1.
         23    2    1    2    0    0  0.00000000000E+00 -0.88817841970E-15  0.51871700633E+03  0.52670784728E+03  0.91399254568E+02 0.  0.
    9000005    2    3    3    0    0  0.37217632307E+02 -0.20594666266E+01  0.40639772400E+03  0.40836506237E+03  0.14612341978E+02 0.  0.
         22    1    3    3    0    0 -0.37217632307E+02  0.20594666266E+01  0.11231928233E+03  0.11834278491E+03  0.00000000000E+00 0. -1.
         22    1    4    4    0    0  0.24614421403E+02 -0.81348104555E+01  0.27874980143E+03  0.27995266864E+03  0.00000000000E+00 0.  1.
         22    1    4    4    0    0  0.12603210904E+02  0.60753438289E+01  0.12764792257E+03  0.12841239374E+03  0.00000000000E+00 0.  1.
<mgrwt>
<rscale>  0 0.91399255E+02</rscale>
<asrwt>0</asrwt>
<pdfrwt beam="2">  1        2 0.61468041E-03 0.91399255E+02</pdfrwt>
<pdfrwt beam="1">  1       -2 0.80417252E-01 0.91399255E+02</pdfrwt>
<totfact> 0.34834533E+04</totfact>
</mgrwt>
</event>
<event>
 7    1  0.3337990E-009  0.9127766E+02  0.7818608E-02  0.1299787E+00
         -2   -1    0    0    0  501 -0.00000000000E+00  0.00000000000E+00  0.36973799628E+02  0.36973799716E+02  0.25500000000E-02 0.  1.
          2   -1    0    0  501    0  0.00000000000E+00 -0.00000000000E+00 -0.56334563402E+02  0.56334563460E+02  0.25500000000E-02 0. -1.
         23    2    1    2    0    0  0.35527136788E-14  0.00000000000E+00 -0.19360763774E+02  0.93308363176E+02  0.91277661367E+02 0.  0.
    9000005    2    3    3    0    0 -0.24428947627E+02 -0.93427864427E+01 -0.47474494298E+02  0.54909886843E+02  0.87867470392E+01 0.  0.
         22    1    3    3    0    0  0.24428947627E+02  0.93427864427E+01  0.28113730524E+02  0.38398476333E+02  0.00000000000E+00 0.  1.
         22    1    4    4    0    0 -0.21366993135E+02 -0.53974934964E+01 -0.33780422479E+02  0.40333587424E+02  0.00000000000E+00 0. -1.
         22    1    4    4    0    0 -0.30619544926E+01 -0.39452929463E+01 -0.13694071819E+02  0.14576299418E+02  0.00000000000E+00 0. -1.
<mgrwt>
<rscale>  0 0.91277661E+02</rscale>
<asrwt>0</asrwt>
<pdfrwt beam="2">  1        2 0.86668559E-02 0.91277661E+02</pdfrwt>
<pdfrwt beam="1">  1       -2 0.56882769E-02 0.91277661E+02</pdfrwt>
<totfact> 0.10397444E+05</totfact>
</mgrwt>
</event>
<event>
 7    1  0.3337990E-009  0.9045907E+02  0.7818608E-02  0.1301744E+00
          2   -1    0    0  501    0  0.00000000000E+00  0.00000000000E+00  0.21165413578E+02  0.21165413731E+02  0.25500000000E-02 0. -1.
         -2   -1    0    0    0  501 -0.00000000000E+00 -0.00000000000E+00 -0.96653478075E+02  0.96653478109E+02  0.25500000000E-02 0.  1.
         23    2    1    2    0    0  0.00000000000E+00  0.00000000000E+00 -0.75488064498E+02  0.11781889184E+03  0.90459070263E+02 0.  0.
    9000005    2    3    3    0    0  0.41613223134E+01 -0.15413174441E+02  0.17011420038E+02  0.23951766663E+02  0.54236670987E+01 0.  0.
         22    1    3    3    0    0 -0.41613223134E+01  0.15413174441E+02 -0.92499484536E+02  0.93867125178E+02  0.00000000000E+00 0.  1.
         22    1    4    4    0    0  0.30879764226E+01 -0.29103055978E+01  0.33910388234E+01  0.54318156597E+01  0.00000000000E+00 0.  1.
         22    1    4    4    0    0  0.10733458908E+01 -0.12502868844E+02  0.13620381215E+02  0.18519951003E+02  0.00000000000E+00 0.  1.
<mgrwt>
<rscale>  0 0.90459070E+02</rscale>
<asrwt>0</asrwt>
<pdfrwt beam="1">  1        2 0.32562175E-02 0.90459070E+02</pdfrwt>
<pdfrwt beam="2">  1       -2 0.14869766E-01 0.90459070E+02</pdfrwt>
<totfact> 0.82212851E+04</totfact>
</mgrwt>
</event>
<event>
 7    1  0.3337990E-009  0.9125191E+02  0.7818608E-02  0.1299848E+00
          2   -1    0    0  501    0  0.00000000000E+00  0.00000000000E+00  0.10301535817E+02  0.10301536132E+02  0.25500000000E-02 0. -1.
         -2   -1    0    0    0  501 -0.00000000000E+00 -0.00000000000E+00 -0.20207936993E+03  0.20207936995E+03  0.25500000000E-02 0.  1.
         23    2    1    2    0    0  0.00000000000E+00 -0.88817841970E-15 -0.19177783411E+03  0.21238090608E+03  0.91251912909E+02 0.  0.
    9000005    2    3    3    0    0  0.43984188186E+02 -0.75107136058E+01 -0.87965370135E+02  0.99385121615E+02  0.12185090327E+02 0.  0.
         22    1    3    3    0    0 -0.43984188186E+02  0.75107136058E+01 -0.10381246398E+03  0.11299578446E+03  0.00000000000E+00 0.  1.
         22    1    4    4    0    0  0.27253331144E+02 -0.39659160209E+01 -0.40892935013E+02  0.49302177257E+02  0.00000000000E+00 0. -1.
         22    1    4    4    0    0  0.16730857042E+02 -0.35447975848E+01 -0.47072435122E+02  0.50082944358E+02  0.00000000000E+00 0. -1.
<mgrwt>
<rscale>  0 0.91251913E+02</rscale>
<asrwt>0</asrwt>
<pdfrwt beam="1">  1        2 0.15848518E-02 0.91251913E+02</pdfrwt>
<pdfrwt beam="2">  1       -2 0.31089131E-01 0.91251913E+02</pdfrwt>
<totfact> 0.61909451E+04</totfact>
</mgrwt>
</event>
<event>
 7    1  0.3337990E-009  0.9184860E+02  0.7818608E-02  0.1298436E+00
          2   -1    0    0  501    0  0.00000000000E+00  0.00000000000E+00  0.11158481063E+04  0.11158481063E+04  0.25500000000E-02 0. -1.
         -2   -1    0    0    0  501 -0.00000000000E+00 -0.00000000000E+00 -0.18900782265E+01  0.18900799466E+01  0.25500000000E-02 0.  1.
         23    2    1    2    0    0  0.00000000000E+00  0.00000000000E+00  0.11139580280E+04  0.11177381862E+04  0.91848596563E+02 0.  0.
    9000005    2    3    3    0    0 -0.89879782691E+01  0.14492467572E+02  0.10757860092E+04  0.10759300723E+04  0.43780632757E+01 0.  0.
         22    1    3    3    0    0  0.89879782691E+01 -0.14492467572E+02  0.38172018791E+02  0.41808113904E+02  0.00000000000E+00 0.  1.
         22    1    4    4    0    0 -0.69788933016E+00  0.46672543754E+01  0.31844183620E+03  0.31847680191E+03  0.00000000000E+00 0.  1.
         22    1    4    4    0    0 -0.82900889389E+01  0.98252131967E+01  0.75734417305E+03  0.75745327040E+03  0.00000000000E+00 0.  1.
<mgrwt>
<rscale>  0 0.91848597E+02</rscale>
<asrwt>0</asrwt>
<pdfrwt beam="1">  1        2 0.17166910E+00 0.91848597E+02</pdfrwt>
<pdfrwt beam="2">  1       -2 0.29078112E-03 0.91848597E+02</pdfrwt>
<totfact> 0.24527051E+05</totfact>
</mgrwt>
</event>
<event>
 7    1  0.3337990E-009  0.9055370E+02  0.7818608E-02  0.1301516E+00
         -2   -1    0    0    0  501 -0.00000000000E+00  0.00000000000E+00  0.74084872794E+02  0.74084872838E+02  0.25500000000E-02 0. -1.
          2   -1    0    0  501    0  0.00000000000E+00 -0.00000000000E+00 -0.27670872177E+02  0.27670872294E+02  0.25500000000E-02 0.  1.
         23    2    1    2    0    0 -0.35527136788E-14  0.00000000000E+00  0.46414000617E+02  0.10175574513E+03  0.90553697959E+02 0.  0.
    9000005    2    3    3    0    0  0.19302102917E+02 -0.26376303565E+02 -0.93799662888E+01  0.37093180151E+02  0.14820245590E+02 0.  0.
         22    1    3    3    0    0 -0.19302102917E+02  0.26376303565E+02  0.55793966906E+02  0.64662564981E+02  0.00000000000E+00 0. -1.
         22    1    4    4    0    0  0.16833443342E+02 -0.19462489829E+02 -0.72300687928E+00  0.25742495295E+02  0.00000000000E+00 0. -1.
         22    1    4    4    0    0  0.24686595755E+01 -0.69138137362E+01 -0.86569594095E+01  0.11350684856E+02  0.00000000000E+00 0. -1.
<mgrwt>
<rscale>  0 0.90553698E+02</rscale>
<asrwt>0</asrwt>
<pdfrwt beam="2">  1        2 0.42570573E-02 0.90553698E+02</pdfrwt>
<pdfrwt beam="1">  1       -2 0.11397673E-01 0.90553698E+02</pdfrwt>
<totfact> 0.88352976E+04</totfact>
</mgrwt>
</event>
<event>
 7    1  0.3337990E-009  0.9070440E+02  0.7818608E-02  0.1301155E+00
         -2   -1    0    0    0  501 -0.00000000000E+00  0.00000000000E+00  0.21789117172E+02  0.21789117321E+02  0.25500000000E-02 0.  1.
          2   -1    0    0  501    0  0.00000000000E+00 -0.00000000000E+00 -0.94396762181E+02  0.94396762216E+02  0.25500000000E-02 0. -1.
         23    2    1    2    0    0  0.00000000000E+00 -0.88817841970E-15 -0.72607645009E+02  0.11618587954E+03  0.90704401712E+02 0.  0.
    9000005    2    3    3    0    0  0.32787440503E+02 -0.71284442331E+01 -0.74301113737E+02  0.82589766544E+02  0.13212988433E+02 0.  0.
         22    1    3    3    0    0 -0.32787440503E+02  0.71284442331E+01  0.16934687275E+01  0.33596112993E+02  0.00000000000E+00 0.  1.
         22    1    4    4    0    0  0.40673526073E+01  0.17135757490E+01 -0.33616434177E+01  0.55480037443E+01  0.00000000000E+00 0.  1.
         22    1    4    4    0    0  0.28720087895E+02 -0.88420199821E+01 -0.70939470319E+02  0.77041762800E+02  0.00000000000E+00 0.  1.
<mgrwt>
<rscale>  0 0.90704402E+02</rscale>
<asrwt>0</asrwt>
<pdfrwt beam="2">  1        2 0.14522579E-01 0.90704402E+02</pdfrwt>
<pdfrwt beam="1">  1       -2 0.33521719E-02 0.90704402E+02</pdfrwt>
<totfact> 0.12229722E+05</totfact>
</mgrwt>
</event>
<event>
 7    1  0.3337990E-009  0.9044984E+02  0.7818608E-02  0.1301766E+00
         -2   -1    0    0    0  501 -0.00000000000E+00  0.00000000000E+00  0.10509605885E+02  0.10509606195E+02  0.25500000000E-02 0.  1.
          2   -1    0    0  501    0  0.00000000000E+00 -0.00000000000E+00 -0.19461180353E+03  0.19461180355E+03  0.25500000000E-02 0. -1.
         23    2    1    2    0    0  0.00000000000E+00  0.00000000000E+00 -0.18410219765E+03  0.20512140974E+03  0.90449840005E+02 0.  0.
    9000005    2    3    3    0    0 -0.43147187624E+01  0.29309818689E+02 -0.15486149974E+02  0.33922537661E+02  0.57650195815E+01 0.  0.
         22    1    3    3    0    0  0.43147187624E+01 -0.29309818689E+02 -0.16861604767E+03  0.17119887208E+03  0.00000000000E+00 0. -1.
         22    1    4    4    0    0 -0.11503433579E+01  0.23373382777E+02 -0.12847723351E+02  0.26696484930E+02  0.00000000000E+00 0.  1.
         22    1    4    4    0    0 -0.31643754044E+01  0.59364359113E+01 -0.26384266233E+01  0.72260527314E+01  0.00000000000E+00 0.  1.
<mgrwt>
<rscale>  0 0.90449840E+02</rscale>
<asrwt>0</asrwt>
<pdfrwt beam="2">  1        2 0.29940275E-01 0.90449840E+02</pdfrwt>
<pdfrwt beam="1">  1       -2 0.16168626E-02 0.90449840E+02</pdfrwt>
<totfact> 0.15649886E+05</totfact>
</mgrwt>
</event>
<event>
 7    1  0.3337990E-009  0.8867444E+02  0.7818608E-02  0.1306094E+00
          2   -1    0    0  501    0  0.00000000000E+00  0.00000000000E+00  0.87224946899E+03  0.87224946899E+03  0.25500000000E-02 0. -1.
         -2   -1    0    0    0  501 -0.00000000000E+00 -0.00000000000E+00 -0.22536996510E+01  0.22537010936E+01  0.25500000000E-02 0.  1.
         23    2    1    2    0    0  0.17763568394E-14  0.00000000000E+00  0.86999576934E+03  0.87450317009E+03  0.88674437269E+02 0.  0.
    9000005    2    3    3    0    0 -0.14768871484E+02  0.25449191560E+02  0.76148326807E+03  0.76207210745E+03  0.55989707692E+01 0.  0.
         22    1    3    3    0    0  0.14768871484E+02 -0.25449191560E+02  0.10851250126E+03  0.11243106264E+03  0.00000000000E+00 0.  1.
         22    1    4    4    0    0 -0.31812696848E+01  0.10758145451E+02  0.27126920199E+03  0.27150108308E+03  0.00000000000E+00 0. -1.
         22    1    4    4    0    0 -0.11587601800E+02  0.14691046109E+02  0.49021406609E+03  0.49057102436E+03  0.00000000000E+00 0. -1.
<mgrwt>
<rscale>  0 0.88674437E+02</rscale>
<asrwt>0</asrwt>
<pdfrwt beam="1">  1        2 0.13419228E+00 0.88674437E+02</pdfrwt>
<pdfrwt beam="2">  1       -2 0.34672301E-03 0.88674437E+02</pdfrwt>
<totfact> 0.26575775E+05</totfact>
</mgrwt>
</event>
<event>
 7    1  0.3337990E-009  0.1198227E+03  0.7818608E-02  0.1243390E+00
         -2   -1    0    0    0  501 -0.00000000000E+00  0.00000000000E+00  0.10084624759E+02  0.10084625082E+02  0.25500000000E-02 0.  1.
          2   -1    0    0  501    0  0.00000000000E+00 -0.00000000000E+00 -0.35592520757E+03  0.35592520758E+03  0.25500000000E-02 0. -1.
         23    2    1    2    0    0  0.71054273576E-14  0.00000000000E+00 -0.34584058281E+03  0.36600983266E+03  0.11982273943E+03 0.  0.
    9000005    2    3    3    0    0 -0.58379023952E+02 -0.91158814156E+01 -0.20253603470E+03  0.21100208047E+03  0.31341469451E+01 0.  0.
         22    1    3    3    0    0  0.58379023952E+02  0.91158814156E+01 -0.14330454811E+03  0.15500775219E+03  0.00000000000E+00 0.  1.
         22    1    4    4    0    0 -0.24342460679E+01  0.13493240989E-01 -0.10237139428E+02  0.10522583317E+02  0.00000000000E+00 0. -1.
         22    1    4    4    0    0 -0.55944777884E+02 -0.91293746566E+01 -0.19229889527E+03  0.20047949715E+03  0.00000000000E+00 0. -1.
<mgrwt>
<rscale>  0 0.11982274E+03</rscale>
<asrwt>0</asrwt>
<pdfrwt beam="2">  1        2 0.54757714E-01 0.11982274E+03</pdfrwt>
<pdfrwt beam="1">  1       -2 0.15514810E-02 0.11982274E+03</pdfrwt>
<totfact> 0.91493540E+04</totfact>
</mgrwt>
</event>
<event>
 7    1  0.3337990E-009  0.9233604E+02  0.7818608E-02  0.1297291E+00
         -2   -1    0    0    0  501 -0.00000000000E+00  0.00000000000E+00  0.28448917099E+01  0.28448928528E+01  0.25500000000E-02 0.  1.
          2   -1    0    0  501    0  0.00000000000E+00 -0.00000000000E+00 -0.74923260807E+03  0.74923260807E+03  0.25500000000E-02 0. -1.
         23    2    1    2    0    0 -0.35527136788E-14  0.44408920985E-15 -0.74638771636E+03  0.75207750093E+03  0.92336039917E+02 0.  0.
    9000005    2    3    3    0    0  0.21542109062E+02 -0.21580321048E+01 -0.70420403059E+03  0.70466249370E+03  0.13311414668E+02 0.  0.
         22    1    3    3    0    0 -0.21542109062E+02  0.21580321048E+01 -0.42183685773E+02  0.47415007231E+02  0.00000000000E+00 0.  1.
         22    1    4    4    0    0  0.16150015157E+02 -0.56570998721E+01 -0.60970950690E+03  0.60994959511E+03  0.00000000000E+00 0.  1.
         22    1    4    4    0    0  0.53920939041E+01  0.34990677673E+01 -0.94494523686E+02  0.94712898586E+02  0.00000000000E+00 0.  1.
<mgrwt>
<rscale>  0 0.92336040E+02</rscale>
<asrwt>0</asrwt>
<pdfrwt beam="2">  1        2 0.11526640E+00 0.92336040E+02</pdfrwt>
<pdfrwt beam="1">  1       -2 0.43767633E-03 0.92336040E+02</pdfrwt>
<totfact> 0.23281626E+05</totfact>
</mgrwt>
</event>
<event>
 7    1  0.3337990E-009  0.9126583E+02  0.7818608E-02  0.1299815E+00
         -2   -1    0    0    0  501 -0.00000000000E+00  0.00000000000E+00  0.71074672126E+03  0.71074672127E+03  0.25500000000E-02 0.  1.
          2   -1    0    0  501    0  0.00000000000E+00 -0.00000000000E+00 -0.29298239366E+01  0.29298250464E+01  0.25500000000E-02 0. -1.
         23    2    1    2    0    0  0.35527136788E-14  0.35527136788E-14  0.70781689733E+03  0.71367654631E+03  0.91265834888E+02 0.  0.
    9000005    2    3    3    0    0  0.29557540839E+02  0.28797544607E+02  0.50156209780E+03  0.50333399445E+03  0.88105179409E+01 0.  0.
         22    1    3    3    0    0 -0.29557540839E+02 -0.28797544607E+02  0.20625479953E+03  0.21034255186E+03  0.00000000000E+00 0. -1.
         22    1    4    4    0    0  0.26123996708E+02  0.20891563744E+02  0.38212368163E+03  0.38358496934E+03  0.00000000000E+00 0.  1.
         22    1    4    4    0    0  0.34335441311E+01  0.79059808630E+01  0.11943841617E+03  0.11974902511E+03  0.00000000000E+00 0.  1.
<mgrwt>
<rscale>  0 0.91265835E+02</rscale>
<asrwt>0</asrwt>
<pdfrwt beam="2">  1        2 0.45074195E-03 0.91265835E+02</pdfrwt>
<pdfrwt beam="1">  1       -2 0.10934572E+00 0.91265835E+02</pdfrwt>
<totfact> 0.26724229E+04</totfact>
</mgrwt>
</event>
<event>
 7    1  0.3337990E-009  0.9163160E+02  0.7818608E-02  0.1298948E+00
          2   -1    0    0  501    0  0.00000000000E+00  0.00000000000E+00  0.32664179066E+03  0.32664179067E+03  0.25500000000E-02 0.  1.
         -2   -1    0    0    0  501 -0.00000000000E+00 -0.00000000000E+00 -0.64262665556E+01  0.64262670615E+01  0.25500000000E-02 0. -1.
         23    2    1    2    0    0  0.00000000000E+00  0.00000000000E+00  0.32021552410E+03  0.33306805773E+03  0.91631595007E+02 0.  0.
    9000005    2    3    3    0    0 -0.42274797083E+02  0.38606774377E+01  0.11556550530E+03  0.12406161407E+03  0.15291656867E+02 0.  0.
         22    1    3    3    0    0  0.42274797083E+02 -0.38606774377E+01  0.20465001880E+03  0.20900644367E+03  0.00000000000E+00 0.  1.
         22    1    4    4    0    0  0.62986901171E-02  0.22263586170E+01  0.11667664224E+02  0.11878177504E+02  0.00000000000E+00 0.  1.
         22    1    4    4    0    0 -0.42281095774E+02  0.16343188207E+01  0.10389784108E+03  0.11218343656E+03  0.00000000000E+00 0.  1.
<mgrwt>
<rscale>  0 0.91631595E+02</rscale>
<asrwt>0</asrwt>
<pdfrwt beam="1">  1        2 0.50252567E-01 0.91631595E+02</pdfrwt>
<pdfrwt beam="2">  1       -2 0.98865674E-03 0.91631595E+02</pdfrwt>
<totfact> 0.18298089E+05</totfact>
</mgrwt>
</event>
<event>
 7    1  0.3337990E-009  0.9033234E+02  0.7818608E-02  0.1302049E+00
         -2   -1    0    0    0  501 -0.00000000000E+00  0.00000000000E+00  0.41078493660E+02  0.41078493739E+02  0.25500000000E-02 0.  1.
          2   -1    0    0  501    0  0.00000000000E+00 -0.00000000000E+00 -0.49660601834E+02  0.49660601900E+02  0.25500000000E-02 0. -1.
         23    2    1    2    0    0 -0.22204460493E-15 -0.71054273576E-14 -0.85821081746E+01  0.90739095638E+02  0.90332335830E+02 0.  0.
    9000005    2    3    3    0    0  0.16847257155E+01 -0.34810955464E+02  0.23707935301E+02  0.43228172382E+02  0.95899828043E+01 0.  0.
         22    1    3    3    0    0 -0.16847257155E+01  0.34810955464E+02 -0.32290043476E+02  0.47510923257E+02  0.00000000000E+00 0. -1.
         22    1    4    4    0    0  0.91406615717E+00 -0.60916921252E+00 -0.60894979669E+00  0.12559553830E+01  0.00000000000E+00 0. -1.
         22    1    4    4    0    0  0.77065955837E+00 -0.34201786251E+02  0.24316885098E+02  0.41972216999E+02  0.00000000000E+00 0. -1.
<mgrwt>
<rscale>  0 0.90332336E+02</rscale>
<asrwt>0</asrwt>
<pdfrwt beam="2">  1        2 0.76400926E-02 0.90332336E+02</pdfrwt>
<pdfrwt beam="1">  1       -2 0.63197682E-02 0.90332336E+02</pdfrwt>
<totfact> 0.10360808E+05</totfact>
</mgrwt>
</event>
<event>
 7    1  0.3337990E-009  0.9480122E+02  0.7818608E-02  0.1291624E+00
         -2   -1    0    0    0  501 -0.00000000000E+00  0.00000000000E+00  0.66794069303E+01  0.66794074170E+01  0.25500000000E-02 0.  1.
          2   -1    0    0  501    0  0.00000000000E+00 -0.00000000000E+00 -0.33637986005E+03  0.33637986005E+03  0.25500000000E-02 0. -1.
         23    2    1    2    0    0  0.00000000000E+00  0.00000000000E+00 -0.32970045311E+03  0.34305926747E+03  0.94801224750E+02 0.  0.
    9000005    2    3    3    0    0 -0.41230076677E+02  0.21601094869E+02 -0.18595935989E+03  0.19196979595E+03  0.10246585053E+02 0.  0.
         22    1    3    3    0    0  0.41230076677E+02 -0.21601094869E+02 -0.14374109323E+03  0.15108947152E+03  0.00000000000E+00 0.  1.
         22    1    4    4    0    0 -0.26596957403E+02  0.19045118922E+02 -0.12218815404E+03  0.12649134234E+03  0.00000000000E+00 0. -1.
         22    1    4    4    0    0 -0.14633119274E+02  0.25559759463E+01 -0.63771205847E+02  0.65478453616E+02  0.00000000000E+00 0. -1.
<mgrwt>
<rscale>  0 0.94801225E+02</rscale>
<asrwt>0</asrwt>
<pdfrwt beam="2">  1        2 0.51750734E-01 0.94801225E+02</pdfrwt>
<pdfrwt beam="1">  1       -2 0.10276014E-02 0.94801225E+02</pdfrwt>
<totfact> 0.16891907E+05</totfact>
</mgrwt>
</event>
<event>
 7    1  0.3337990E-009  0.9075231E+02  0.7818608E-02  0.1301040E+00
          2   -1    0    0  501    0  0.00000000000E+00  0.00000000000E+00  0.40483687203E+03  0.40483687203E+03  0.25500000000E-02 0. -1.
         -2   -1    0    0    0  501 -0.00000000000E+00 -0.00000000000E+00 -0.50859871335E+01  0.50859877727E+01  0.25500000000E-02 0.  1.
         23    2    1    2    0    0  0.00000000000E+00  0.00000000000E+00  0.39975088489E+03  0.40992285981E+03  0.90752305865E+02 0.  0.
    9000005    2    3    3    0    0 -0.43992840096E+02  0.10922650235E+02  0.19689065630E+03  0.20206005261E+03  0.27676809290E+01 0.  0.
         22    1    3    3    0    0  0.43992840096E+02 -0.10922650235E+02  0.20286022860E+03  0.20786280719E+03  0.00000000000E+00 0. -1.
         22    1    4    4    0    0 -0.37521600683E+02  0.10061087014E+02  0.17133145180E+03  0.17568028451E+03  0.00000000000E+00 0. -1.
         22    1    4    4    0    0 -0.64712394138E+01  0.86156322148E+00  0.25559204501E+02  0.26379768108E+02  0.00000000000E+00 0. -1.
<mgrwt>
<rscale>  0 0.90752306E+02</rscale>
<asrwt>0</asrwt>
<pdfrwt beam="1">  1        2 0.62282579E-01 0.90752306E+02</pdfrwt>
<pdfrwt beam="2">  1       -2 0.78245982E-03 0.90752306E+02</pdfrwt>
<totfact> 0.20298100E+05</totfact>
</mgrwt>
</event>
<event>
 7    1  0.3337990E-009  0.9344061E+02  0.7818608E-02  0.1294727E+00
         -2   -1    0    0    0  501 -0.00000000000E+00  0.00000000000E+00  0.26289890415E+02  0.26289890539E+02  0.25500000000E-02 0.  1.
          2   -1    0    0  501    0  0.00000000000E+00 -0.00000000000E+00 -0.83027607457E+02  0.83027607496E+02  0.25500000000E-02 0. -1.
         23    2    1    2    0    0 -0.71054273576E-14  0.00000000000E+00 -0.56737717042E+02  0.10931749804E+03  0.93440605957E+02 0.  0.
    9000005    2    3    3    0    0 -0.37658943154E+02 -0.54332850583E+01  0.20169110415E+01  0.39318762995E+02  0.97046693582E+01 0.  0.
         22    1    3    3    0    0  0.37658943154E+02  0.54332850583E+01 -0.58754628083E+02  0.69998735040E+02  0.00000000000E+00 0. -1.
         22    1    4    4    0    0 -0.13479232264E+02 -0.13437068006E+01 -0.38914814953E+01  0.14093930560E+02  0.00000000000E+00 0.  1.
         22    1    4    4    0    0 -0.24179710889E+02 -0.40895782577E+01  0.59083925368E+01  0.25224832435E+02  0.00000000000E+00 0.  1.
<mgrwt>
<rscale>  0 0.93440606E+02</rscale>
<asrwt>0</asrwt>
<pdfrwt beam="2">  1        2 0.12773478E-01 0.93440606E+02</pdfrwt>
<pdfrwt beam="1">  1       -2 0.40445986E-02 0.93440606E+02</pdfrwt>
<totfact> 0.10843106E+05</totfact>
</mgrwt>
</event>
<event>
 7    1  0.3337990E-009  0.8996826E+02  0.7818608E-02  0.1302929E+00
          2   -1    0    0  501    0  0.00000000000E+00  0.00000000000E+00  0.31629570438E+03  0.31629570439E+03  0.25500000000E-02 0.  1.
         -2   -1    0    0    0  501 -0.00000000000E+00 -0.00000000000E+00 -0.63977221638E+01  0.63977226720E+01  0.25500000000E-02 0. -1.
         23    2    1    2    0    0  0.17763568394E-14 -0.35527136788E-14  0.30989798221E+03  0.32269342706E+03  0.89968263779E+02 0.  0.
    9000005    2    3    3    0    0  0.15027569229E+02 -0.20884549211E+02  0.28646410821E+03  0.28789200922E+03  0.12575032740E+02 0.  0.
         22    1    3    3    0    0 -0.15027569229E+02  0.20884549211E+02  0.23433874001E+02  0.34801417835E+02  0.00000000000E+00 0. -1.
         22    1    4    4    0    0  0.72975344730E+01 -0.16853427658E+02  0.23290860963E+03  0.23363157422E+03  0.00000000000E+00 0. -1.
         22    1    4    4    0    0  0.77300347557E+01 -0.40311215527E+01  0.53555498583E+02  0.54260435004E+02  0.00000000000E+00 0. -1.
<mgrwt>
<rscale>  0 0.89968264E+02</rscale>
<asrwt>0</asrwt>
<pdfrwt beam="1">  1        2 0.48660860E-01 0.89968264E+02</pdfrwt>
<pdfrwt beam="2">  1       -2 0.98426534E-03 0.89968264E+02</pdfrwt>
<totfact> 0.18985368E+05</totfact>
</mgrwt>
</event>
<event>
 7    1  0.3337990E-009  0.9439857E+02  0.7818608E-02  0.1292536E+00
          2   -1    0    0  501    0  0.00000000000E+00  0.00000000000E+00  0.20216278168E+02  0.20216278328E+02  0.25500000000E-02 0. -1.
         -2   -1    0    0    0  501 -0.00000000000E+00 -0.00000000000E+00 -0.11019696193E+03  0.11019696196E+03  0.25500000000E-02 0.  1.
         23    2    1    2    0    0  0.00000000000E+00  0.00000000000E+00 -0.89980683764E+02  0.13041324029E+03  0.94398568803E+02 0.  0.
    9000005    2    3    3    0    0 -0.21727431636E+02 -0.21854403793E+02 -0.93438305301E+02  0.99402735660E+02  0.14159474163E+02 0.  0.
         22    1    3    3    0    0  0.21727431636E+02  0.21854403793E+02  0.34576215372E+01  0.31010504629E+02  0.00000000000E+00 0. -1.
         22    1    4    4    0    0  0.38683719426E+00 -0.29644507788E+01 -0.24066200077E+01  0.38378941226E+01  0.00000000000E+00 0.  1.
         22    1    4    4    0    0 -0.22114268830E+02 -0.18889953015E+02 -0.91031685293E+02  0.95564841538E+02  0.00000000000E+00 0.  1.
<mgrwt>
<rscale>  0 0.94398569E+02</rscale>
<asrwt>0</asrwt>
<pdfrwt beam="1">  1        2 0.31101967E-02 0.94398569E+02</pdfrwt>
<pdfrwt beam="2">  1       -2 0.16953378E-01 0.94398569E+02</pdfrwt>
<totfact> 0.71034550E+04</totfact>
</mgrwt>
</event>
<event>
 7    1  0.3337990E-009  0.9512721E+02  0.7818608E-02  0.1290890E+00
          2   -1    0    0  501    0  0.00000000000E+00  0.00000000000E+00  0.17629250737E+02  0.17629250921E+02  0.25500000000E-02 0. -1.
         -2   -1    0    0    0  501 -0.00000000000E+00 -0.00000000000E+00 -0.12832631069E+03  0.12832631071E+03  0.25500000000E-02 0.  1.
         23    2    1    2    0    0  0.35527136788E-14  0.00000000000E+00 -0.11069705995E+03  0.14595556163E+03  0.95127214245E+02 0.  0.
    9000005    2    3    3    0    0  0.29643646571E+02 -0.34023525218E+02 -0.37911969871E+02  0.60316695526E+02  0.12823425807E+02 0.  0.
         22    1    3    3    0    0 -0.29643646571E+02  0.34023525218E+02 -0.72785090079E+02  0.85638866107E+02  0.00000000000E+00 0.  1.
         22    1    4    4    0    0  0.29899848843E+02 -0.29256769265E+02 -0.31722622053E+02  0.52500326272E+02  0.00000000000E+00 0. -1.
         22    1    4    4    0    0 -0.25620227207E+00 -0.47667559526E+01 -0.61893478176E+01  0.78163692545E+01  0.00000000000E+00 0. -1.
<mgrwt>
<rscale>  0 0.95127214E+02</rscale>
<asrwt>0</asrwt>
<pdfrwt beam="1">  1        2 0.27121925E-02 0.95127214E+02</pdfrwt>
<pdfrwt beam="2">  1       -2 0.19742509E-01 0.95127214E+02</pdfrwt>
<totfact> 0.66294397E+04</totfact>
</mgrwt>
</event>
<event>
 7    1  0.3337990E-009  0.7640597E+02  0.7818608E-02  0.1339572E+00
         -2   -1    0    0    0  501 -0.00000000000E+00  0.00000000000E+00  0.90026399659E+01  0.90026403271E+01  0.25500000000E-02 0.  1.
          2   -1    0    0  501    0  0.00000000000E+00 -0.00000000000E+00 -0.16211557291E+03  0.16211557293E+03  0.25500000000E-02 0. -1.
         23    2    1    2    0    0 -0.35527136788E-14  0.00000000000E+00 -0.15311293295E+03  0.17111821326E+03  0.76405972762E+02 0.  0.
    9000005    2    3    3    0    0  0.28201273933E+02 -0.21715586539E+02 -0.54439686475E+02  0.66221654120E+02  0.12439833629E+02 0.  0.
         22    1    3    3    0    0 -0.28201273933E+02  0.21715586539E+02 -0.98673246471E+02  0.10489655914E+03  0.00000000000E+00 0.  1.
         22    1    4    4    0    0  0.20949942309E+02 -0.10915414344E+02 -0.27139539397E+02  0.35980563527E+02  0.00000000000E+00 0.  1.
         22    1    4    4    0    0  0.72513316236E+01 -0.10800172194E+02 -0.27300147078E+02  0.30241090593E+02  0.00000000000E+00 0.  1.
<mgrwt>
<rscale>  0 0.76405973E+02</rscale>
<asrwt>0</asrwt>
<pdfrwt beam="2">  1        2 0.24940855E-01 0.76405973E+02</pdfrwt>
<pdfrwt beam="1">  1       -2 0.13850217E-02 0.76405973E+02</pdfrwt>
<totfact> 0.23046326E+05</totfact>
</mgrwt>
</event>
<event>
 7    1  0.3337990E-009  0.9147305E+02  0.7818608E-02  0.1299323E+00
         -2   -1    0    0    0  501 -0.00000000000E+00  0.00000000000E+00  0.18847620498E+02  0.18847620670E+02  0.25500000000E-02 0. -1.
          2   -1    0    0  501    0  0.00000000000E+00 -0.00000000000E+00 -0.11098641996E+03  0.11098641999E+03  0.25500000000E-02 0.  1.
         23    2    1    2    0    0  0.00000000000E+00  0.00000000000E+00 -0.92138799463E+02  0.12983404066E+03  0.91473054764E+02 0.  0.
    9000005    2    3    3    0    0 -0.17107210240E+02 -0.14275357280E+02 -0.10273476136E+03  0.10516185235E+03  0.28533365493E+01 0.  0.
         22    1    3    3    0    0  0.17107210240E+02  0.14275357280E+02  0.10595961897E+02  0.24672188314E+02  0.00000000000E+00 0. -1.
         22    1    4    4    0    0 -0.10640653756E+02 -0.70694291271E+01 -0.57242176442E+02  0.58650380257E+02  0.00000000000E+00 0. -1.
         22    1    4    4    0    0 -0.64665564839E+01 -0.72059281533E+01 -0.45492584919E+02  0.46511472089E+02  0.00000000000E+00 0. -1.
<mgrwt>
<rscale>  0 0.91473055E+02</rscale>
<asrwt>0</asrwt>
<pdfrwt beam="2">  1        2 0.17074833E-01 0.91473055E+02</pdfrwt>
<pdfrwt beam="1">  1       -2 0.28996340E-02 0.91473055E+02</pdfrwt>
<totfact> 0.12556855E+05</totfact>
</mgrwt>
</event>
<event>
 7    1  0.3337990E-009  0.9111574E+02  0.7818608E-02  0.1300172E+00
          2   -1    0    0  501    0  0.00000000000E+00  0.00000000000E+00  0.67297103376E+02  0.67297103424E+02  0.25500000000E-02 0. -1.
         -2   -1    0    0    0  501 -0.00000000000E+00 -0.00000000000E+00 -0.30841142090E+02  0.30841142195E+02  0.25500000000E-02 0.  1.
         23    2    1    2    0    0  0.00000000000E+00  0.00000000000E+00  0.36455961286E+02  0.98138245619E+02  0.91115740352E+02 0.  0.
    9000005    2    3    3    0    0  0.24801414206E+02  0.11004481093E+01  0.58470674758E+02  0.64957396596E+02  0.13576539810E+02 0.  0.
         22    1    3    3    0    0 -0.24801414206E+02 -0.11004481093E+01 -0.22014713472E+02  0.33180849023E+02  0.00000000000E+00 0.  1.
         22    1    4    4    0    0  0.11094324940E+02 -0.61064617591E+01  0.29607894777E+02  0.32202489876E+02  0.00000000000E+00 0. -1.
         22    1    4    4    0    0  0.13707089267E+02  0.72069098684E+01  0.28862779980E+02  0.32754906719E+02  0.00000000000E+00 0. -1.
<mgrwt>
<rscale>  0 0.91115740E+02</rscale>
<asrwt>0</asrwt>
<pdfrwt beam="1">  1        2 0.10353401E-01 0.91115740E+02</pdfrwt>
<pdfrwt beam="2">  1       -2 0.47447911E-02 0.91115740E+02</pdfrwt>
<totfact> 0.10963062E+05</totfact>
</mgrwt>
</event>
<event>
 7    1  0.3337990E-009  0.8965989E+02  0.7818608E-02  0.1303677E+00
          2   -1    0    0  501    0  0.00000000000E+00  0.00000000000E+00  0.19381878995E+03  0.19381878997E+03  0.25500000000E-02 0.  1.
         -2   -1    0    0    0  501 -0.00000000000E+00 -0.00000000000E+00 -0.10369086547E+02  0.10369086860E+02  0.25500000000E-02 0. -1.
         23    2    1    2    0    0  0.00000000000E+00  0.17763568394E-14  0.18344970341E+03  0.20418787683E+03  0.89659887154E+02 0.  0.
    9000005    2    3    3    0    0 -0.37365081990E+02 -0.14489877165E+02  0.53823607229E+02  0.68507993640E+02  0.13793426151E+02 0.  0.
         22    1    3    3    0    0  0.37365081990E+02  0.14489877165E+02  0.12962609618E+03  0.13567988319E+03  0.00000000000E+00 0.  1.
         22    1    4    4    0    0 -0.15955873004E+02 -0.13305281379E+02  0.29519582412E+02  0.36097453396E+02  0.00000000000E+00 0. -1.
         22    1    4    4    0    0 -0.21409208986E+02 -0.11845957864E+01  0.24304024817E+02  0.32410540243E+02  0.00000000000E+00 0. -1.
<mgrwt>
<rscale>  0 0.89659887E+02</rscale>
<asrwt>0</asrwt>
<pdfrwt beam="1">  1        2 0.29818273E-01 0.89659887E+02</pdfrwt>
<pdfrwt beam="2">  1       -2 0.15952442E-02 0.89659887E+02</pdfrwt>
<totfact> 0.15999839E+05</totfact>
</mgrwt>
</event>
<event>
 7    1  0.3337990E-009  0.7776435E+02  0.7818608E-02  0.1335518E+00
          2   -1    0    0  501    0  0.00000000000E+00  0.00000000000E+00  0.24077867360E+02  0.24077867495E+02  0.25500000000E-02 0. -1.
         -2   -1    0    0    0  501 -0.00000000000E+00 -0.00000000000E+00 -0.62788936768E+02  0.62788936820E+02  0.25500000000E-02 0.  1.
         23    2    1    2    0    0 -0.11102230246E-15  0.00000000000E+00 -0.38711069408E+02  0.86866804314E+02  0.77764354283E+02 0.  0.
    9000005    2    3    3    0    0 -0.31261691611E+00 -0.37685048498E+02 -0.19721320913E+02  0.44666435151E+02  0.13634490121E+02 0.  0.
         22    1    3    3    0    0  0.31261691611E+00  0.37685048498E+02 -0.18989748494E+02  0.42200369164E+02  0.00000000000E+00 0. -1.
         22    1    4    4    0    0  0.64900000052E+01 -0.14234731434E+02 -0.70980374331E+01  0.17179342667E+02  0.00000000000E+00 0. -1.
         22    1    4    4    0    0 -0.68026169213E+01 -0.23450317064E+02 -0.12623283480E+02  0.27487092484E+02  0.00000000000E+00 0. -1.
<mgrwt>
<rscale>  0 0.77764354E+02</rscale>
<asrwt>0</asrwt>
<pdfrwt beam="1">  1        2 0.37042873E-02 0.77764354E+02</pdfrwt>
<pdfrwt beam="2">  1       -2 0.96598364E-02 0.77764354E+02</pdfrwt>
<totfact> 0.13357347E+05</totfact>
</mgrwt>
</event>
<event>
 7    1  0.3337990E-009  0.8995472E+02  0.7818608E-02  0.1302961E+00
         -2   -1    0    0    0  501 -0.00000000000E+00  0.00000000000E+00  0.39963693062E+02  0.39963693144E+02  0.25500000000E-02 0.  1.
          2   -1    0    0  501    0  0.00000000000E+00 -0.00000000000E+00 -0.50620021225E+02  0.50620021289E+02  0.25500000000E-02 0. -1.
         23    2    1    2    0    0  0.00000000000E+00  0.00000000000E+00 -0.10656328163E+02  0.90583714433E+02  0.89954721891E+02 0.  0.
    9000005    2    3    3    0    0  0.75342889457E+01  0.39263217975E+02  0.12195252135E+02  0.44534170268E+02  0.15368876055E+02 0.  0.
         22    1    3    3    0    0 -0.75342889457E+01 -0.39263217975E+02 -0.22851580298E+02  0.46049544165E+02  0.00000000000E+00 0. -1.
         22    1    4    4    0    0  0.59623114366E+00  0.33956902446E+02  0.11105862545E+02  0.35731875100E+02  0.00000000000E+00 0. -1.
         22    1    4    4    0    0  0.69380578020E+01  0.53063155290E+01  0.10893895909E+01  0.88022951688E+01  0.00000000000E+00 0. -1.
<mgrwt>
<rscale>  0 0.89954722E+02</rscale>
<asrwt>0</asrwt>
<pdfrwt beam="2">  1        2 0.77876955E-02 0.89954722E+02</pdfrwt>
<pdfrwt beam="1">  1       -2 0.61482605E-02 0.89954722E+02</pdfrwt>
<totfact> 0.10537118E+05</totfact>
</mgrwt>
</event>
<event>
 7    1  0.3337990E-009  0.9379257E+02  0.7818608E-02  0.1293919E+00
         -2   -1    0    0    0  501 -0.00000000000E+00  0.00000000000E+00  0.27933590158E+02  0.27933590274E+02  0.25500000000E-02 0.  1.
          2   -1    0    0  501    0  0.00000000000E+00 -0.00000000000E+00 -0.78731791540E+02  0.78731791581E+02  0.25500000000E-02 0. -1.
         23    2    1    2    0    0  0.35527136788E-14 -0.35527136788E-14 -0.50798201382E+02  0.10666538186E+03  0.93792571256E+02 0.  0.
    9000005    2    3    3    0    0 -0.26985518508E+02  0.27843136558E+02  0.26254381976E+01  0.40653687979E+02  0.11931930190E+02 0.  0.
         22    1    3    3    0    0  0.26985518508E+02 -0.27843136558E+02 -0.53423639580E+02  0.66011693876E+02  0.00000000000E+00 0. -1.
         22    1    4    4    0    0  0.17725364711E+00  0.16352231574E+00 -0.16227370686E+01  0.16405590501E+01  0.00000000000E+00 0.  1.
         22    1    4    4    0    0 -0.27162772155E+02  0.27679614242E+02  0.42481752661E+01  0.39013128929E+02  0.00000000000E+00 0.  1.
<mgrwt>
<rscale>  0 0.93792571E+02</rscale>
<asrwt>0</asrwt>
<pdfrwt beam="2">  1        2 0.12112583E-01 0.93792571E+02</pdfrwt>
<pdfrwt beam="1">  1       -2 0.42974754E-02 0.93792571E+02</pdfrwt>
<totfact> 0.10565649E+05</totfact>
</mgrwt>
</event>
<event>
 6    1  0.3337990E-009  0.1479084E+03  0.7818608E-02  0.1203067E+00
         -2   -1    0    0    0  501 -0.00000000000E+00  0.00000000000E+00  0.28174547148E+02  0.28174547264E+02  0.25500000000E-02 0.  1.
          2   -1    0    0  501    0  0.00000000000E+00 -0.00000000000E+00 -0.19411940827E+03  0.19411940829E+03  0.25500000000E-02 0. -1.
    9000005    2    1    2    0    0 -0.13276676079E+02  0.48118492838E+02 -0.32469280725E+01  0.52110886771E+02  0.14606248578E+02 0.  0.
         22    1    1    2    0    0  0.13276676079E+02 -0.48118492838E+02 -0.16269793305E+03  0.17018306878E+03  0.00000000000E+00 0. -1.
         22    1    3    3    0    0 -0.71486146018E+01  0.37565405467E+02 -0.79062925679E+01  0.39048326991E+02  0.00000000000E+00 0. -1.
         22    1    3    3    0    0 -0.61280614768E+01  0.10553087370E+02  0.46593644954E+01  0.13062559780E+02  0.00000000000E+00 0. -1.
<mgrwt>
<rscale>  0 0.14790844E+03</rscale>
<asrwt>0</asrwt>
<pdfrwt beam="2">  1        2 0.29864524E-01 0.14790844E+03</pdfrwt>
<pdfrwt beam="1">  1       -2 0.43345458E-02 0.14790844E+03</pdfrwt>
<totfact> 0.39820750E+04</totfact>
</mgrwt>
</event>
<event>
 7    1  0.3337990E-009  0.9135073E+02  0.7818608E-02  0.1299613E+00
          2   -1    0    0  501    0  0.00000000000E+00  0.00000000000E+00  0.17504326649E+04  0.17504326649E+04  0.25500000000E-02 0. -1.
         -2   -1    0    0    0  501 -0.00000000000E+00 -0.00000000000E+00 -0.11918405430E+01  0.11918432710E+01  0.25500000000E-02 0.  1.
         23    2    1    2    0    0  0.17763568394E-14  0.88817841970E-15  0.17492408244E+04  0.17516245082E+04  0.91350730893E+02 0.  0.
    9000005    2    3    3    0    0 -0.12276898966E+02 -0.78576254043E+01  0.17046273191E+04  0.17046901990E+04  0.13831340145E+01 0.  0.
         22    1    3    3    0    0  0.12276898966E+02  0.78576254043E+01  0.44613505278E+02  0.46934309182E+02  0.00000000000E+00 0.  1.
         22    1    4    4    0    0 -0.12758071739E+01 -0.49665105191E+00  0.19814539536E+03  0.19815012502E+03  0.00000000000E+00 0. -1.
         22    1    4    4    0    0 -0.11001091792E+02 -0.73609743524E+01  0.15064819237E+04  0.15065400740E+04  0.00000000000E+00 0. -1.
<mgrwt>
<rscale>  0 0.91350731E+02</rscale>
<asrwt>0</asrwt>
<pdfrwt beam="1">  1        2 0.26929549E+00 0.91350731E+02</pdfrwt>
<pdfrwt beam="2">  1       -2 0.18336155E-03 0.91350731E+02</pdfrwt>
<totfact> 0.21726066E+05</totfact>
</mgrwt>
</event>
<event>
 7    1  0.3337990E-009  0.9020376E+02  0.7818608E-02  0.1302359E+00
          2   -1    0    0  501    0  0.00000000000E+00  0.00000000000E+00  0.25113623921E+02  0.25113624050E+02  0.25500000000E-02 0. -1.
         -2   -1    0    0    0  501 -0.00000000000E+00 -0.00000000000E+00 -0.80999043396E+02  0.80999043437E+02  0.25500000000E-02 0.  1.
         23    2    1    2    0    0  0.88817841970E-15  0.00000000000E+00 -0.55885419476E+02  0.10611266749E+03  0.90203758742E+02 0.  0.
    9000005    2    3    3    0    0 -0.77808004814E+01 -0.10393088713E+02  0.21273293899E+02  0.27869302281E+02  0.12473484966E+02 0.  0.
         22    1    3    3    0    0  0.77808004814E+01  0.10393088713E+02 -0.77158713374E+02  0.78243365206E+02  0.00000000000E+00 0.  1.
         22    1    4    4    0    0 -0.93071045525E+01 -0.71683524306E+01  0.82217593210E+01  0.14338925973E+02  0.00000000000E+00 0.  1.
         22    1    4    4    0    0  0.15263040712E+01 -0.32247362826E+01  0.13051534578E+02  0.13530376308E+02  0.00000000000E+00 0.  1.
<mgrwt>
<rscale>  0 0.90203759E+02</rscale>
<asrwt>0</asrwt>
<pdfrwt beam="1">  1        2 0.38636345E-02 0.90203759E+02</pdfrwt>
<pdfrwt beam="2">  1       -2 0.12461391E-01 0.90203759E+02</pdfrwt>
<totfact> 0.87052369E+04</totfact>
</mgrwt>
</event>
<event>
 7    1  0.3337990E-009  0.9040342E+02  0.7818608E-02  0.1301878E+00
          2   -1    0    0  501    0  0.00000000000E+00  0.00000000000E+00  0.17192651511E+03  0.17192651513E+03  0.25500000000E-02 0. -1.
         -2   -1    0    0    0  501 -0.00000000000E+00 -0.00000000000E+00 -0.11884116739E+02  0.11884117013E+02  0.25500000000E-02 0.  1.
         23    2    1    2    0    0  0.00000000000E+00 -0.35527136788E-14  0.16004239837E+03  0.18381063214E+03  0.90403424780E+02 0.  0.
    9000005    2    3    3    0    0 -0.12192848564E+02 -0.26321654959E+02  0.14935932767E+03  0.15289747838E+03  0.15097518251E+02 0.  0.
         22    1    3    3    0    0  0.12192848564E+02  0.26321654959E+02  0.10683070702E+02  0.30913153762E+02  0.00000000000E+00 0.  1.
         22    1    4    4    0    0 -0.58373266059E+01 -0.37855043300E+01  0.15285817645E+02  0.16794661235E+02  0.00000000000E+00 0.  1.
         22    1    4    4    0    0 -0.63555219579E+01 -0.22536150629E+02  0.13407351002E+03  0.13610281714E+03  0.00000000000E+00 0.  1.
<mgrwt>
<rscale>  0 0.90403425E+02</rscale>
<asrwt>0</asrwt>
<pdfrwt beam="1">  1        2 0.26450233E-01 0.90403425E+02</pdfrwt>
<pdfrwt beam="2">  1       -2 0.18283257E-02 0.90403425E+02</pdfrwt>
<totfact> 0.14996571E+05</totfact>
</mgrwt>
</event>
<event>
 7    1  0.3337990E-009  0.5669440E+02  0.7818608E-02  0.1412252E+00
         -2   -1    0    0    0  501 -0.00000000000E+00  0.00000000000E+00  0.85088745870E+01  0.85088749691E+01  0.25500000000E-02 0. -1.
          2   -1    0    0  501    0  0.00000000000E+00 -0.00000000000E+00 -0.94438298052E+02  0.94438298086E+02  0.25500000000E-02 0.  1.
         23    2    1    2    0    0  0.00000000000E+00  0.00000000000E+00 -0.85929423465E+02  0.10294717306E+03  0.56694396752E+02 0.  0.
    9000005    2    3    3    0    0  0.22832211265E+02  0.10675970743E+02 -0.27755997878E+02  0.39548169379E+02  0.12584755084E+02 0.  0.
         22    1    3    3    0    0 -0.22832211265E+02 -0.10675970743E+02 -0.58173425587E+02  0.63399003676E+02  0.00000000000E+00 0.  1.
         22    1    4    4    0    0  0.24270278410E+02  0.10592045259E+02 -0.27309448612E+02  0.38040029185E+02  0.00000000000E+00 0. -1.
         22    1    4    4    0    0 -0.14380671449E+01  0.83925483513E-01 -0.44654926550E+00  0.15081401946E+01  0.00000000000E+00 0. -1.
<mgrwt>
<rscale>  0 0.56694397E+02</rscale>
<asrwt>0</asrwt>
<pdfrwt beam="2">  1        2 0.14528968E-01 0.56694397E+02</pdfrwt>
<pdfrwt beam="1">  1       -2 0.13090577E-02 0.56694397E+02</pdfrwt>
<totfact> 0.42785167E+05</totfact>
</mgrwt>
</event>
<event>
 7    1  0.3337990E-009  0.8976938E+02  0.7818608E-02  0.1303411E+00
         -2   -1    0    0    0  501 -0.00000000000E+00  0.00000000000E+00  0.10214548687E+02  0.10214549006E+02  0.25500000000E-02 0.  1.
          2   -1    0    0  501    0  0.00000000000E+00 -0.00000000000E+00 -0.19723193143E+03  0.19723193144E+03  0.25500000000E-02 0. -1.
         23    2    1    2    0    0  0.00000000000E+00  0.17763568394E-14 -0.18701738274E+03  0.20744648045E+03  0.89769375647E+02 0.  0.
    9000005    2    3    3    0    0 -0.40740517308E+02  0.85736692127E+01 -0.13125532282E+03  0.13785693468E+03  0.65785344505E+01 0.  0.
         22    1    3    3    0    0  0.40740517308E+02 -0.85736692127E+01 -0.55762059918E+02  0.69589545771E+02  0.00000000000E+00 0.  1.
         22    1    4    4    0    0 -0.31830551036E+02  0.55614879750E+01 -0.92673752540E+02  0.98145496777E+02  0.00000000000E+00 0. -1.
         22    1    4    4    0    0 -0.89099662726E+01  0.30121812378E+01 -0.38581570281E+02  0.39711437901E+02  0.00000000000E+00 0. -1.
<mgrwt>
<rscale>  0 0.89769376E+02</rscale>
<asrwt>0</asrwt>
<pdfrwt beam="2">  1        2 0.30343371E-01 0.89769376E+02</pdfrwt>
<pdfrwt beam="1">  1       -2 0.15714692E-02 0.89769376E+02</pdfrwt>
<totfact> 0.16047789E+05</totfact>
</mgrwt>
</event>
<event>
 7    1  0.3337990E-009  0.9182590E+02  0.7818608E-02  0.1298489E+00
          2   -1    0    0  501    0  0.00000000000E+00  0.00000000000E+00  0.18563462999E+03  0.18563463000E+03  0.25500000000E-02 0. -1.
         -2   -1    0    0    0  501 -0.00000000000E+00 -0.00000000000E+00 -0.11355633776E+02  0.11355634062E+02  0.25500000000E-02 0.  1.
         23    2    1    2    0    0  0.00000000000E+00  0.00000000000E+00  0.17427899621E+03  0.19699026407E+03  0.91825898398E+02 0.  0.
    9000005    2    3    3    0    0 -0.54519363199E+01 -0.40200036320E+02  0.13298325725E+03  0.13910153817E+03  0.43502507851E+01 0.  0.
         22    1    3    3    0    0  0.54519363199E+01  0.40200036320E+02  0.41295738956E+02  0.57888725895E+02  0.00000000000E+00 0.  1.
         22    1    4    4    0    0 -0.14357159600E+01 -0.18752508204E+02  0.55223322522E+02  0.58338093855E+02  0.00000000000E+00 0. -1.
         22    1    4    4    0    0 -0.40162203598E+01 -0.21447528116E+02  0.77759934733E+02  0.80763444317E+02  0.00000000000E+00 0. -1.
<mgrwt>
<rscale>  0 0.91825898E+02</rscale>
<asrwt>0</asrwt>
<pdfrwt beam="1">  1        2 0.28559171E-01 0.91825898E+02</pdfrwt>
<pdfrwt beam="2">  1       -2 0.17470208E-02 0.91825898E+02</pdfrwt>
<totfact> 0.14773290E+05</totfact>
</mgrwt>
</event>
<event>
 7    1  0.3337990E-009  0.8982336E+02  0.7818608E-02  0.1303280E+00
         -2   -1    0    0    0  501 -0.00000000000E+00  0.00000000000E+00  0.60635465510E+02  0.60635465563E+02  0.25500000000E-02 0. -1.
          2   -1    0    0  501    0  0.00000000000E+00 -0.00000000000E+00 -0.33265334339E+02  0.33265334437E+02  0.25500000000E-02 0.  1.
         23    2    1    2    0    0  0.00000000000E+00  0.00000000000E+00  0.27370131171E+02  0.93900800000E+02  0.89823360883E+02 0.  0.
    9000005    2    3    3    0    0 -0.43512460744E+02 -0.99251689345E+01  0.18656309521E+02  0.48428017964E+02  0.23177188505E+01 0.  0.
         22    1    3    3    0    0  0.43512460744E+02  0.99251689345E+01  0.87138216502E+01  0.45472782036E+02  0.00000000000E+00 0.  1.
         22    1    4    4    0    0 -0.55906840835E+01 -0.72259793122E+00  0.29601695783E+01  0.63671422337E+01  0.00000000000E+00 0.  1.
         22    1    4    4    0    0 -0.37921776660E+02 -0.92025710032E+01  0.15696139942E+02  0.42060875730E+02  0.00000000000E+00 0.  1.
<mgrwt>
<rscale>  0 0.89823361E+02</rscale>
<asrwt>0</asrwt>
<pdfrwt beam="2">  1        2 0.51177438E-02 0.89823361E+02</pdfrwt>
<pdfrwt beam="1">  1       -2 0.93285331E-02 0.89823361E+02</pdfrwt>
<totfact> 0.94996411E+04</totfact>
</mgrwt>
</event>
<event>
 7    1  0.3337990E-009  0.8937876E+02  0.7818608E-02  0.1304363E+00
          2   -1    0    0  501    0  0.00000000000E+00  0.00000000000E+00  0.47625187215E+01  0.47625194042E+01  0.25500000000E-02 0. -1.
         -2   -1    0    0    0  501 -0.00000000000E+00 -0.00000000000E+00 -0.41934540035E+03  0.41934540035E+03  0.25500000000E-02 0.  1.
         23    2    1    2    0    0  0.17763568394E-14  0.00000000000E+00 -0.41458288163E+03  0.42410791976E+03  0.89378755112E+02 0.  0.
    9000005    2    3    3    0    0  0.13409294641E+02 -0.37465947289E+02 -0.29708943109E+03  0.30005866620E+03  0.13768322673E+02 0.  0.
         22    1    3    3    0    0 -0.13409294641E+02  0.37465947289E+02 -0.11749345054E+03  0.12404925356E+03  0.00000000000E+00 0. -1.
         22    1    4    4    0    0 -0.12265009868E+00 -0.17255441560E+02 -0.14731359906E+03  0.14832080695E+03  0.00000000000E+00 0. -1.
         22    1    4    4    0    0  0.13531944740E+02 -0.20210505729E+02 -0.14977583202E+03  0.15173785925E+03  0.00000000000E+00 0. -1.
<mgrwt>
<rscale>  0 0.89378755E+02</rscale>
<asrwt>0</asrwt>
<pdfrwt beam="1">  1        2 0.73269557E-03 0.89378755E+02</pdfrwt>
<pdfrwt beam="2">  1       -2 0.64514648E-01 0.89378755E+02</pdfrwt>
<totfact> 0.43512310E+04</totfact>
</mgrwt>
</event>
<event>
 7    1  0.3337990E-009  0.9002979E+02  0.7818608E-02  0.1302780E+00
         -2   -1    0    0    0  501 -0.00000000000E+00  0.00000000000E+00  0.56587343897E+01  0.56587349643E+01  0.25500000000E-02 0. -1.
          2   -1    0    0  501    0  0.00000000000E+00 -0.00000000000E+00 -0.35809077125E+03  0.35809077126E+03  0.25500000000E-02 0.  1.
         23    2    1    2    0    0  0.00000000000E+00  0.17763568394E-14 -0.35243203686E+03  0.36374950622E+03  0.90029787694E+02 0.  0.
    9000005    2    3    3    0    0  0.26864188757E+02  0.15574597018E+02 -0.30727156928E+03  0.30894329725E+03  0.81173221209E+01 0.  0.
         22    1    3    3    0    0 -0.26864188757E+02 -0.15574597018E+02 -0.45160467578E+02  0.54806208971E+02  0.00000000000E+00 0. -1.
         22    1    4    4    0    0  0.12151428007E+02  0.10048307297E+02 -0.12386597050E+03  0.12486554501E+03  0.00000000000E+00 0.  1.
         22    1    4    4    0    0  0.14712760750E+02  0.55262897212E+01 -0.18340559878E+03  0.18407775224E+03  0.00000000000E+00 0.  1.
<mgrwt>
<rscale>  0 0.90029788E+02</rscale>
<asrwt>0</asrwt>
<pdfrwt beam="2">  1        2 0.55090870E-01 0.90029788E+02</pdfrwt>
<pdfrwt beam="1">  1       -2 0.87057485E-03 0.90029788E+02</pdfrwt>
<totfact> 0.19835129E+05</totfact>
</mgrwt>
</event>
<event>
 7    1  0.3337990E-009  0.8920385E+02  0.7818608E-02  0.1304791E+00
         -2   -1    0    0    0  501 -0.00000000000E+00  0.00000000000E+00  0.24798066431E+03  0.24798066432E+03  0.25500000000E-02 0. -1.
          2   -1    0    0  501    0  0.00000000000E+00 -0.00000000000E+00 -0.80221244459E+01  0.80221248512E+01  0.25500000000E-02 0.  1.
         23    2    1    2    0    0  0.00000000000E+00  0.00000000000E+00  0.23995853986E+03  0.25600278917E+03  0.89203851998E+02 0.  0.
    9000005    2    3    3    0    0 -0.24588732536E+02  0.36516878996E+02  0.11706782841E+03  0.12546461399E+03  0.99199140657E+01 0.  0.
         22    1    3    3    0    0  0.24588732536E+02 -0.36516878996E+02  0.12289071145E+03  0.13053817519E+03  0.00000000000E+00 0. -1.
         22    1    4    4    0    0 -0.11379347730E+02  0.23034333069E+02  0.57521278683E+02  0.62998155179E+02  0.00000000000E+00 0.  1.
         22    1    4    4    0    0 -0.13209384806E+02  0.13482545928E+02  0.59546549728E+02  0.62466458809E+02  0.00000000000E+00 0.  1.
<mgrwt>
<rscale>  0 0.89203852E+02</rscale>
<asrwt>0</asrwt>
<pdfrwt beam="2">  1        2 0.12341731E-02 0.89203852E+02</pdfrwt>
<pdfrwt beam="1">  1       -2 0.38150868E-01 0.89203852E+02</pdfrwt>
<totfact> 0.59657498E+04</totfact>
</mgrwt>
</event>
<event>
 7    1  0.3337990E-009  0.8623473E+02  0.7818608E-02  0.1312235E+00
         -2   -1    0    0    0  501 -0.00000000000E+00  0.00000000000E+00  0.23633010606E+01  0.23633024363E+01  0.25500000000E-02 0.  1.
          2   -1    0    0  501    0  0.00000000000E+00 -0.00000000000E+00 -0.78665671359E+03  0.78665671360E+03  0.25500000000E-02 0. -1.
         23    2    1    2    0    0  0.00000000000E+00  0.00000000000E+00 -0.78429341253E+03  0.78902001603E+03  0.86234730588E+02 0.  0.
    9000005    2    3    3    0    0 -0.94738647189E+01 -0.34902856253E+02 -0.60044359452E+03  0.60164680805E+03  0.11764690708E+02 0.  0.
         22    1    3    3    0    0  0.94738647189E+01  0.34902856253E+02 -0.18384981801E+03  0.18737320798E+03  0.00000000000E+00 0.  1.
         22    1    4    4    0    0  0.71545382736E+00 -0.16780262404E+02 -0.22342038566E+03  0.22405079293E+03  0.00000000000E+00 0.  1.
         22    1    4    4    0    0 -0.10189318546E+02 -0.18122593849E+02 -0.37702320886E+03  0.37759601513E+03  0.00000000000E+00 0.  1.
<mgrwt>
<rscale>  0 0.86234731E+02</rscale>
<asrwt>0</asrwt>
<pdfrwt beam="2">  1        2 0.12102390E+00 0.86234731E+02</pdfrwt>
<pdfrwt beam="1">  1       -2 0.36358551E-03 0.86234731E+02</pdfrwt>
<totfact> 0.28132816E+05</totfact>
</mgrwt>
</event>
<event>
 7    1  0.3337990E-009  0.9130448E+02  0.7818608E-02  0.1299723E+00
          2   -1    0    0  501    0  0.00000000000E+00  0.00000000000E+00  0.41633733287E+02  0.41633733365E+02  0.25500000000E-02 0.  1.
         -2   -1    0    0    0  501 -0.00000000000E+00 -0.00000000000E+00 -0.50058613747E+02  0.50058613812E+02  0.25500000000E-02 0. -1.
         23    2    1    2    0    0  0.00000000000E+00  0.00000000000E+00 -0.84248804601E+01  0.91692347177E+02  0.91304479190E+02 0.  0.
    9000005    2    3    3    0    0 -0.54734161982E+01 -0.28429796820E+02  0.30073315781E+02  0.43522618655E+02  0.12312691842E+02 0.  0.
         22    1    3    3    0    0  0.54734161982E+01  0.28429796820E+02 -0.38498196241E+02  0.48169728522E+02  0.00000000000E+00 0. -1.
         22    1    4    4    0    0  0.33880200892E+01 -0.14931990205E+02  0.14941941929E+02  0.21394032818E+02  0.00000000000E+00 0. -1.
         22    1    4    4    0    0 -0.88614362874E+01 -0.13497806616E+02  0.15131373852E+02  0.22128585837E+02  0.00000000000E+00 0. -1.
<mgrwt>
<rscale>  0 0.91304479E+02</rscale>
<asrwt>0</asrwt>
<pdfrwt beam="1">  1        2 0.64051897E-02 0.91304479E+02</pdfrwt>
<pdfrwt beam="2">  1       -2 0.77013252E-02 0.91304479E+02</pdfrwt>
<totfact> 0.95992728E+04</totfact>
</mgrwt>
</event>
<event>
 7    1  0.3337990E-009  0.9701682E+02  0.7818608E-02  0.1286697E+00
         -2   -1    0    0    0  501 -0.00000000000E+00  0.00000000000E+00  0.84763961607E+02  0.84763961645E+02  0.25500000000E-02 0.  1.
          2   -1    0    0  501    0  0.00000000000E+00 -0.00000000000E+00 -0.27760213413E+02  0.27760213530E+02  0.25500000000E-02 0. -1.
         23    2    1    2    0    0  0.17763568394E-14 -0.14210854715E-13  0.57003748194E+02  0.11252417518E+03  0.97016816535E+02 0.  0.
    9000005    2    3    3    0    0  0.82987822500E+01 -0.43271835317E+02  0.50651351118E+02  0.68008172803E+02  0.10873393189E+02 0.  0.
         22    1    3    3    0    0 -0.82987822500E+01  0.43271835317E+02  0.63523970767E+01  0.44516002372E+02  0.00000000000E+00 0. -1.
         22    1    4    4    0    0  0.52426833798E+01 -0.36910712269E+02  0.47213623858E+02  0.60158230418E+02  0.00000000000E+00 0. -1.
         22    1    4    4    0    0  0.30560988702E+01 -0.63611230483E+01  0.34377272597E+01  0.78499423853E+01  0.00000000000E+00 0. -1.
<mgrwt>
<rscale>  0 0.97016817E+02</rscale>
<asrwt>0</asrwt>
<pdfrwt beam="2">  1        2 0.42708021E-02 0.97016817E+02</pdfrwt>
<pdfrwt beam="1">  1       -2 0.13040609E-01 0.97016817E+02</pdfrwt>
<totfact> 0.71841290E+04</totfact>
</mgrwt>
</event>
<event>
 7    1  0.3337990E-009  0.9113878E+02  0.7818608E-02  0.1300117E+00
         -2   -1    0    0    0  501 -0.00000000000E+00  0.00000000000E+00  0.96130933599E+01  0.96130936981E+01  0.25500000000E-02 0.  1.
          2   -1    0    0  501    0  0.00000000000E+00 -0.00000000000E+00 -0.21601465648E+03  0.21601465649E+03  0.25500000000E-02 0. -1.
         23    2    1    2    0    0  0.00000000000E+00  0.00000000000E+00 -0.20640156312E+03  0.22562775019E+03  0.91138775495E+02 0.  0.
    9000005    2    3    3    0    0  0.35020827878E+02 -0.23869637406E+02 -0.64980232020E+02  0.77992351778E+02  0.80098943355E+01 0.  0.
         22    1    3    3    0    0 -0.35020827878E+02  0.23869637406E+02 -0.14142133110E+03  0.14763539841E+03  0.00000000000E+00 0. -1.
         22    1    4    4    0    0  0.17935192233E+02 -0.13805630125E+02 -0.41398764510E+02  0.47181821145E+02  0.00000000000E+00 0.  1.
         22    1    4    4    0    0  0.17085635645E+02 -0.10064007281E+02 -0.23581467510E+02  0.30810530633E+02  0.00000000000E+00 0.  1.
<mgrwt>
<rscale>  0 0.91138775E+02</rscale>
<asrwt>0</asrwt>
<pdfrwt beam="2">  1        2 0.33233021E-01 0.91138775E+02</pdfrwt>
<pdfrwt beam="1">  1       -2 0.14789376E-02 0.91138775E+02</pdfrwt>
<totfact> 0.15925162E+05</totfact>
</mgrwt>
</event>
<event>
 7    1  0.3337990E-009  0.9087377E+02  0.7818608E-02  0.1300749E+00
          2   -1    0    0  501    0  0.00000000000E+00  0.00000000000E+00  0.78528791721E+02  0.78528791763E+02  0.25500000000E-02 0. -1.
         -2   -1    0    0    0  501 -0.00000000000E+00 -0.00000000000E+00 -0.26289854531E+02  0.26289854655E+02  0.25500000000E-02 0.  1.
         23    2    1    2    0    0  0.00000000000E+00  0.00000000000E+00  0.52238937190E+02  0.10481864642E+03  0.90873770022E+02 0.  0.
    9000005    2    3    3    0    0 -0.89747691666E+01 -0.18166988619E+02 -0.19878583916E+02  0.29908548249E+02  0.94221655047E+01 0.  0.
         22    1    3    3    0    0  0.89747691666E+01  0.18166988619E+02  0.72117521106E+02  0.74910098168E+02  0.00000000000E+00 0. -1.
         22    1    4    4    0    0 -0.75482145184E+01 -0.17645000670E+02 -0.13787345858E+02  0.23630753202E+02  0.00000000000E+00 0.  1.
         22    1    4    4    0    0 -0.14265546483E+01 -0.52198794872E+00 -0.60912380577E+01  0.62777950475E+01  0.00000000000E+00 0.  1.
<mgrwt>
<rscale>  0 0.90873770E+02</rscale>
<asrwt>0</asrwt>
<pdfrwt beam="1">  1        2 0.12081352E-01 0.90873770E+02</pdfrwt>
<pdfrwt beam="2">  1       -2 0.40445931E-02 0.90873770E+02</pdfrwt>
<totfact> 0.11531168E+05</totfact>
</mgrwt>
</event>
<event>
 7    1  0.3337990E-009  0.8913401E+02  0.7818608E-02  0.1304962E+00
         -2   -1    0    0    0  501 -0.00000000000E+00  0.00000000000E+00  0.12561313286E+02  0.12561313545E+02  0.25500000000E-02 0.  1.
          2   -1    0    0  501    0  0.00000000000E+00 -0.00000000000E+00 -0.15812183557E+03  0.15812183559E+03  0.25500000000E-02 0. -1.
         23    2    1    2    0    0  0.00000000000E+00  0.00000000000E+00 -0.14556052229E+03  0.17068314914E+03  0.89134010070E+02 0.  0.
    9000005    2    3    3    0    0  0.19794366970E+02 -0.39090727072E+02 -0.73978725411E+02  0.86755468658E+02  0.11565363021E+02 0.  0.
         22    1    3    3    0    0 -0.19794366970E+02  0.39090727072E+02 -0.71581796874E+02  0.83927680478E+02  0.00000000000E+00 0.  1.
         22    1    4    4    0    0  0.89700461713E+01 -0.15151032796E+02 -0.40777253374E+02  0.44416212308E+02  0.00000000000E+00 0.  1.
         22    1    4    4    0    0  0.10824320799E+02 -0.23939694276E+02 -0.33201472037E+02  0.42339256349E+02  0.00000000000E+00 0.  1.
<mgrwt>
<rscale>  0 0.89134010E+02</rscale>
<asrwt>0</asrwt>
<pdfrwt beam="2">  1        2 0.24326435E-01 0.89134010E+02</pdfrwt>
<pdfrwt beam="1">  1       -2 0.19325099E-02 0.89134010E+02</pdfrwt>
<totfact> 0.15135032E+05</totfact>
</mgrwt>
</event>
<event>
 7    1  0.3337990E-009  0.9095482E+02  0.7818608E-02  0.1300556E+00
         -2   -1    0    0    0  501 -0.00000000000E+00  0.00000000000E+00  0.31582359585E+01  0.31582369880E+01  0.25500000000E-02 0.  1.
          2   -1    0    0  501    0  0.00000000000E+00 -0.00000000000E+00 -0.65485743380E+03  0.65485743381E+03  0.25500000000E-02 0. -1.
         23    2    1    2    0    0  0.00000000000E+00  0.00000000000E+00 -0.65169919784E+03  0.65801567080E+03  0.90954815936E+02 0.  0.
    9000005    2    3    3    0    0 -0.21091583644E+02 -0.13940123656E+02 -0.59876228554E+03  0.59935138326E+03  0.81623573740E+01 0.  0.
         22    1    3    3    0    0  0.21091583644E+02  0.13940123656E+02 -0.52936912302E+02  0.58664287537E+02  0.00000000000E+00 0.  1.
         22    1    4    4    0    0  0.69117346668E+00 -0.10434214750E+01 -0.29408092912E+02  0.29434713823E+02  0.00000000000E+00 0.  1.
         22    1    4    4    0    0 -0.21782757111E+02 -0.12896702181E+02 -0.56935419263E+03  0.56991666944E+03  0.00000000000E+00 0.  1.
<mgrwt>
<rscale>  0 0.90954816E+02</rscale>
<asrwt>0</asrwt>
<pdfrwt beam="2">  1        2 0.10074719E+00 0.90954816E+02</pdfrwt>
<pdfrwt beam="1">  1       -2 0.48588306E-03 0.90954816E+02</pdfrwt>
<totfact> 0.23480814E+05</totfact>
</mgrwt>
</event>
<event>
 7    1  0.3337990E-009  0.8803345E+02  0.7818608E-02  0.1307685E+00
          2   -1    0    0  501    0  0.00000000000E+00  0.00000000000E+00  0.37844877355E+03  0.37844877356E+03  0.25500000000E-02 0. -1.
         -2   -1    0    0    0  501 -0.00000000000E+00 -0.00000000000E+00 -0.51195088372E+01  0.51195094723E+01  0.25500000000E-02 0.  1.
         23    2    1    2    0    0  0.00000000000E+00  0.00000000000E+00  0.37332926471E+03  0.38356828303E+03  0.88033447372E+02 0.  0.
    9000005    2    3    3    0    0  0.19821597800E+02  0.43372309232E+01  0.35609134619E+03  0.35694398686E+03  0.14009126123E+02 0.  0.
         22    1    3    3    0    0 -0.19821597800E+02 -0.43372309232E+01  0.17237918522E+02  0.26624296167E+02  0.00000000000E+00 0.  1.
         22    1    4    4    0    0  0.86076491200E+01  0.55653188262E+01  0.84649682680E+02  0.85268007921E+02  0.00000000000E+00 0.  1.
         22    1    4    4    0    0  0.11213948680E+02 -0.12280879030E+01  0.27144166351E+03  0.27167597894E+03  0.00000000000E+00 0.  1.
<mgrwt>
<rscale>  0 0.88033447E+02</rscale>
<asrwt>0</asrwt>
<pdfrwt beam="1">  1        2 0.58222917E-01 0.88033447E+02</pdfrwt>
<pdfrwt beam="2">  1       -2 0.78761641E-03 0.88033447E+02</pdfrwt>
<totfact> 0.21475504E+05</totfact>
</mgrwt>
</event>
<event>
 7    1  0.3337990E-009  0.9232056E+02  0.7818608E-02  0.1297327E+00
         -2   -1    0    0    0  501 -0.00000000000E+00  0.00000000000E+00  0.27273314936E+02  0.27273315056E+02  0.25500000000E-02 0.  1.
          2   -1    0    0  501    0  0.00000000000E+00 -0.00000000000E+00 -0.78126602322E+02  0.78126602364E+02  0.25500000000E-02 0. -1.
         23    2    1    2    0    0  0.00000000000E+00  0.00000000000E+00 -0.50853287386E+02  0.10539991742E+03  0.92320559758E+02 0.  0.
    9000005    2    3    3    0    0  0.38771671538E+02  0.41013296358E+01 -0.52118739959E+02  0.66391395416E+02  0.13091635185E+02 0.  0.
         22    1    3    3    0    0 -0.38771671538E+02 -0.41013296358E+01  0.12654525730E+01  0.39008522003E+02  0.00000000000E+00 0.  1.
         22    1    4    4    0    0  0.21749697657E+02  0.81412355159E+01 -0.25028554612E+02  0.34143192731E+02  0.00000000000E+00 0. -1.
         22    1    4    4    0    0  0.17021973881E+02 -0.40399058801E+01 -0.27090185347E+02  0.32248202685E+02  0.00000000000E+00 0. -1.
<mgrwt>
<rscale>  0 0.92320560E+02</rscale>
<asrwt>0</asrwt>
<pdfrwt beam="2">  1        2 0.12019477E-01 0.92320560E+02</pdfrwt>
<pdfrwt beam="1">  1       -2 0.41958947E-02 0.92320560E+02</pdfrwt>
<totfact> 0.11018579E+05</totfact>
</mgrwt>
</event>
<event>
 6    1  0.3590220E-009  0.2847373E+03  0.7818608E-02  0.1093129E+00
         -2   -1    0    0    0  501 -0.00000000000E+00  0.00000000000E+00  0.18092802196E+03  0.18092802198E+03  0.25500000000E-02 0.  1.
          2   -1    0    0  501    0  0.00000000000E+00 -0.00000000000E+00 -0.11202706676E+03  0.11202706678E+03  0.25500000000E-02 0. -1.
    9000005    2    1    2    0    0 -0.92815710539E+02 -0.69505509576E+02 -0.49726242411E+02  0.12706903149E+03  0.15101907001E+02 0.  0.
         22    1    1    2    0    0  0.92815710539E+02  0.69505509576E+02  0.11862719762E+03  0.16588605728E+03  0.00000000000E+00 0.  1.
         22    1    3    3    0    0 -0.60310703898E+02 -0.53849027926E+02 -0.34854234100E+02  0.88044968328E+02  0.00000000000E+00 0. -1.
         22    1    3    3    0    0 -0.32505006641E+02 -0.15656481650E+02 -0.14872008311E+02  0.39024063161E+02  0.00000000000E+00 0. -1.
<mgrwt>
<rscale>  0 0.28473732E+03</rscale>
<asrwt>0</asrwt>
<pdfrwt beam="2">  1        2 0.17234933E-01 0.28473732E+03</pdfrwt>
<pdfrwt beam="1">  1       -2 0.27835080E-01 0.28473732E+03</pdfrwt>
<totfact> 0.38577201E+03</totfact>
</mgrwt>
</event>
<event>
 7    1  0.3337990E-009  0.9078437E+02  0.7818608E-02  0.1300963E+00
          2   -1    0    0  501    0  0.00000000000E+00  0.00000000000E+00  0.10860201853E+02  0.10860202153E+02  0.25500000000E-02 0. -1.
         -2   -1    0    0    0  501 -0.00000000000E+00 -0.00000000000E+00 -0.18972489398E+03  0.18972489400E+03  0.25500000000E-02 0.  1.
         23    2    1    2    0    0  0.00000000000E+00  0.00000000000E+00 -0.17886469213E+03  0.20058509615E+03  0.90784374801E+02 0.  0.
    9000005    2    3    3    0    0 -0.18228248119E+02 -0.20246104383E+02 -0.16946729796E+03  0.17176696316E+03  0.65230961078E+01 0.  0.
         22    1    3    3    0    0  0.18228248119E+02  0.20246104383E+02 -0.93973941723E+01  0.28818132996E+02  0.00000000000E+00 0. -1.
         22    1    4    4    0    0 -0.14928800657E+02 -0.19250268594E+02 -0.15444369152E+03  0.15635311247E+03  0.00000000000E+00 0. -1.
         22    1    4    4    0    0 -0.32994474620E+01 -0.99583578890E+00 -0.15023606437E+02  0.15413850682E+02  0.00000000000E+00 0. -1.
<mgrwt>
<rscale>  0 0.90784375E+02</rscale>
<asrwt>0</asrwt>
<pdfrwt beam="1">  1        2 0.16708005E-02 0.90784375E+02</pdfrwt>
<pdfrwt beam="2">  1       -2 0.29188443E-01 0.90784375E+02</pdfrwt>
<totfact> 0.64440007E+04</totfact>
</mgrwt>
</event>
<event>
 7    1  0.3337990E-009  0.8813255E+02  0.7818608E-02  0.1307438E+00
         -2   -1    0    0    0  501 -0.00000000000E+00  0.00000000000E+00  0.21984931903E+02  0.21984932050E+02  0.25500000000E-02 0. -1.
          2   -1    0    0  501    0  0.00000000000E+00 -0.00000000000E+00 -0.88325800819E+02  0.88325800856E+02  0.25500000000E-02 0.  1.
         23    2    1    2    0    0  0.35527136788E-14  0.00000000000E+00 -0.66340868917E+02  0.11031073291E+03  0.88132553042E+02 0.  0.
    9000005    2    3    3    0    0  0.29362775031E+02  0.27562986343E+02 -0.16424694612E+02  0.46174041139E+02  0.15504215824E+02 0.  0.
         22    1    3    3    0    0 -0.29362775031E+02 -0.27562986343E+02 -0.49916174305E+02  0.64136691768E+02  0.00000000000E+00 0.  1.
         22    1    4    4    0    0  0.28225076855E+02  0.25581173869E+02 -0.10041225984E+02  0.39393878196E+02  0.00000000000E+00 0.  1.
         22    1    4    4    0    0  0.11376981763E+01  0.19818124732E+01 -0.63834686273E+01  0.67801629432E+01  0.00000000000E+00 0.  1.
<mgrwt>
<rscale>  0 0.88132553E+02</rscale>
<asrwt>0</asrwt>
<pdfrwt beam="2">  1        2 0.13588585E-01 0.88132553E+02</pdfrwt>
<pdfrwt beam="1">  1       -2 0.33822973E-02 0.88132553E+02</pdfrwt>
<totfact> 0.12980616E+05</totfact>
</mgrwt>
</event>
<event>
 7    1  0.3337990E-009  0.9120674E+02  0.7818608E-02  0.1299955E+00
         -2   -1    0    0    0  501 -0.00000000000E+00  0.00000000000E+00  0.17174921641E+02  0.17174921830E+02  0.25500000000E-02 0.  1.
          2   -1    0    0  501    0  0.00000000000E+00 -0.00000000000E+00 -0.12108745549E+03  0.12108745552E+03  0.25500000000E-02 0. -1.
         23    2    1    2    0    0  0.00000000000E+00  0.00000000000E+00 -0.10391253385E+03  0.13826237735E+03  0.91206744809E+02 0.  0.
    9000005    2    3    3    0    0  0.38497448324E+02 -0.20245083650E+02 -0.67142080728E+02  0.81306401697E+02  0.14517403796E+02 0.  0.
         22    1    3    3    0    0 -0.38497448324E+02  0.20245083650E+02 -0.36770453120E+02  0.56955975648E+02  0.00000000000E+00 0.  1.
         22    1    4    4    0    0  0.24172719228E+02 -0.99729693118E+01 -0.27637072436E+02  0.38047184450E+02  0.00000000000E+00 0. -1.
         22    1    4    4    0    0  0.14324729096E+02 -0.10272114338E+02 -0.39505008292E+02  0.43259217247E+02  0.00000000000E+00 0. -1.
<mgrwt>
<rscale>  0 0.91206745E+02</rscale>
<asrwt>0</asrwt>
<pdfrwt beam="2">  1        2 0.18628839E-01 0.91206745E+02</pdfrwt>
<pdfrwt beam="1">  1       -2 0.26422957E-02 0.91206745E+02</pdfrwt>
<totfact> 0.13012351E+05</totfact>
</mgrwt>
</event>
<event>
 7    1  0.3337990E-009  0.8921844E+02  0.7818608E-02  0.1304755E+00
          2   -1    0    0  501    0  0.00000000000E+00  0.00000000000E+00  0.15601213021E+03  0.15601213023E+03  0.25500000000E-02 0.  1.
         -2   -1    0    0    0  501 -0.00000000000E+00 -0.00000000000E+00 -0.12755306056E+02  0.12755306311E+02  0.25500000000E-02 0. -1.
         23    2    1    2    0    0  0.00000000000E+00  0.71054273576E-14  0.14325682416E+03  0.16876743654E+03  0.89218439633E+02 0.  0.
    9000005    2    3    3    0    0  0.33627976526E+01  0.38517726866E+02  0.31057005967E+02  0.50092574452E+02  0.70572448339E+01 0.  0.
         22    1    3    3    0    0 -0.33627976526E+01 -0.38517726866E+02  0.11219981819E+03  0.11867486209E+03  0.00000000000E+00 0.  1.
         22    1    4    4    0    0  0.15570593350E+01  0.22799527092E+02  0.22652363166E+02  0.32177203520E+02  0.00000000000E+00 0.  1.
         22    1    4    4    0    0  0.18057383176E+01  0.15718199774E+02  0.84046428005E+01  0.17915370932E+02  0.00000000000E+00 0.  1.
<mgrwt>
<rscale>  0 0.89218440E+02</rscale>
<asrwt>0</asrwt>
<pdfrwt beam="1">  1        2 0.24001866E-01 0.89218440E+02</pdfrwt>
<pdfrwt beam="2">  1       -2 0.19623548E-02 0.89218440E+02</pdfrwt>
<totfact> 0.15027216E+05</totfact>
</mgrwt>
</event>
<event>
 7    1  0.3337990E-009  0.9014171E+02  0.7818608E-02  0.1302509E+00
          2   -1    0    0  501    0  0.00000000000E+00  0.00000000000E+00  0.37711162759E+02  0.37711162845E+02  0.25500000000E-02 0. -1.
         -2   -1    0    0    0  501 -0.00000000000E+00 -0.00000000000E+00 -0.53866864815E+02  0.53866864875E+02  0.25500000000E-02 0.  1.
         23    2    1    2    0    0  0.00000000000E+00 -0.71054273576E-14 -0.16155702056E+02  0.91578027720E+02  0.90141713164E+02 0.  0.
    9000005    2    3    3    0    0 -0.99014279724E+01 -0.42511925988E+02 -0.12939241573E+02  0.47809914383E+02  0.14596637070E+02 0.  0.
         22    1    3    3    0    0  0.99014279724E+01  0.42511925988E+02 -0.32164604833E+01  0.43768113337E+02  0.00000000000E+00 0. -1.
         22    1    4    4    0    0 -0.99988622145E+01 -0.32692968232E+02 -0.15684453834E+02  0.37613953654E+02  0.00000000000E+00 0.  1.
         22    1    4    4    0    0  0.97434242072E-01 -0.98189577556E+01  0.27452122608E+01  0.10195960729E+02  0.00000000000E+00 0.  1.
<mgrwt>
<rscale>  0 0.90141713E+02</rscale>
<asrwt>0</asrwt>
<pdfrwt beam="1">  1        2 0.58017174E-02 0.90141713E+02</pdfrwt>
<pdfrwt beam="2">  1       -2 0.82872099E-02 0.90141713E+02</pdfrwt>
<totfact> 0.97110598E+04</totfact>
</mgrwt>
</event>
<event>
 7    1  0.3337990E-009  0.1262691E+03  0.7818608E-02  0.1233099E+00
          2   -1    0    0  501    0  0.00000000000E+00  0.00000000000E+00  0.51591910399E+01  0.51591916701E+01  0.25500000000E-02 0. -1.
         -2   -1    0    0    0  501 -0.00000000000E+00 -0.00000000000E+00 -0.77259668923E+03  0.77259668923E+03  0.25500000000E-02 0.  1.
         23    2    1    2    0    0  0.00000000000E+00  0.00000000000E+00 -0.76743749819E+03  0.77775588090E+03  0.12626914371E+03 0.  0.
    9000005    2    3    3    0    0 -0.46040222912E+02 -0.84878956637E+01 -0.64175345853E+03  0.64363569479E+03  0.15088391936E+02 0.  0.
         22    1    3    3    0    0  0.46040222912E+02  0.84878956637E+01 -0.12568403966E+03  0.13412018611E+03  0.00000000000E+00 0. -1.
         22    1    4    4    0    0 -0.15421616340E+02 -0.10182763965E+02 -0.25431234176E+03  0.25498290551E+03  0.00000000000E+00 0. -1.
         22    1    4    4    0    0 -0.30618606572E+02  0.16948683009E+01 -0.38744111677E+03  0.38865278928E+03  0.00000000000E+00 0. -1.
<mgrwt>
<rscale>  0 0.12626914E+03</rscale>
<asrwt>0</asrwt>
<pdfrwt beam="1">  1        2 0.79372236E-03 0.12626914E+03</pdfrwt>
<pdfrwt beam="2">  1       -2 0.11886094E+00 0.12626914E+03</pdfrwt>
<totfact> 0.10505253E+04</totfact>
</mgrwt>
</event>
<event>
 7    1  0.3337990E-009  0.9048195E+02  0.7818608E-02  0.1301689E+00
         -2   -1    0    0    0  501 -0.00000000000E+00  0.00000000000E+00  0.11324779458E+02  0.11324779745E+02  0.25500000000E-02 0.  1.
          2   -1    0    0  501    0  0.00000000000E+00 -0.00000000000E+00 -0.18073162961E+03  0.18073162963E+03  0.25500000000E-02 0. -1.
         23    2    1    2    0    0  0.00000000000E+00  0.00000000000E+00 -0.16940685015E+03  0.19205640938E+03  0.90481951257E+02 0.  0.
    9000005    2    3    3    0    0  0.40946201425E+02  0.17069175664E+02 -0.10028475445E+03  0.10992351533E+03  0.76288321299E+01 0.  0.
         22    1    3    3    0    0 -0.40946201425E+02 -0.17069175664E+02 -0.69122095707E+02  0.82132894043E+02  0.00000000000E+00 0.  1.
         22    1    4    4    0    0  0.33599611207E+02  0.10663177294E+02 -0.77397248387E+02  0.85046876963E+02  0.00000000000E+00 0.  1.
         22    1    4    4    0    0  0.73465902180E+01  0.64059983696E+01 -0.22887506060E+02  0.24876638370E+02  0.00000000000E+00 0.  1.
<mgrwt>
<rscale>  0 0.90481951E+02</rscale>
<asrwt>0</asrwt>
<pdfrwt beam="2">  1        2 0.27804864E-01 0.90481951E+02</pdfrwt>
<pdfrwt beam="1">  1       -2 0.17422739E-02 0.90481951E+02</pdfrwt>
<totfact> 0.15227080E+05</totfact>
</mgrwt>
</event>
<event>
 7    1  0.3337990E-009  0.9133263E+02  0.7818608E-02  0.1299656E+00
          2   -1    0    0  501    0  0.00000000000E+00  0.00000000000E+00  0.45771376882E+02  0.45771376953E+02  0.25500000000E-02 0. -1.
         -2   -1    0    0    0  501 -0.00000000000E+00 -0.00000000000E+00 -0.45561497849E+02  0.45561497920E+02  0.25500000000E-02 0.  1.
         23    2    1    2    0    0  0.00000000000E+00 -0.35527136788E-14  0.20987903257E+00  0.91332874873E+02  0.91332633726E+02 0.  0.
    9000005    2    3    3    0    0 -0.17503944300E+02 -0.21515166658E+02  0.35908623087E+02  0.46125676448E+02  0.82980933623E+01 0.  0.
         22    1    3    3    0    0  0.17503944300E+02  0.21515166658E+02 -0.35698744054E+02  0.45207198425E+02  0.00000000000E+00 0.  1.
         22    1    4    4    0    0 -0.35791559265E+01 -0.10642974449E+02  0.15362937241E+02  0.19029006883E+02  0.00000000000E+00 0.  1.
         22    1    4    4    0    0 -0.13924788374E+02 -0.10872192209E+02  0.20545685845E+02  0.27096669565E+02  0.00000000000E+00 0.  1.
<mgrwt>
<rscale>  0 0.91332634E+02</rscale>
<asrwt>0</asrwt>
<pdfrwt beam="1">  1        2 0.70417503E-02 0.91332634E+02</pdfrwt>
<pdfrwt beam="2">  1       -2 0.70094613E-02 0.91332634E+02</pdfrwt>
<totfact> 0.98294067E+04</totfact>
</mgrwt>
</event>
<event>
 7    1  0.3337990E-009  0.9220838E+02  0.7818608E-02  0.1297590E+00
         -2   -1    0    0    0  501 -0.00000000000E+00  0.00000000000E+00  0.65458350804E+01  0.65458355771E+01  0.25500000000E-02 0. -1.
          2   -1    0    0  501    0  0.00000000000E+00 -0.00000000000E+00 -0.32472498267E+03  0.32472498268E+03  0.25500000000E-02 0.  1.
         23    2    1    2    0    0  0.00000000000E+00  0.00000000000E+00 -0.31817914759E+03  0.33127081825E+03  0.92208378512E+02 0.  0.
    9000005    2    3    3    0    0  0.59092893825E+01  0.26891753704E+02 -0.29077559128E+03  0.29242444112E+03  0.14266154426E+02 0.  0.
         22    1    3    3    0    0 -0.59092893825E+01 -0.26891753704E+02 -0.27403556311E+02  0.38846377138E+02  0.00000000000E+00 0. -1.
         22    1    4    4    0    0  0.27845562566E+01  0.26306509091E+02 -0.22118694778E+03  0.22276321968E+03  0.00000000000E+00 0.  1.
         22    1    4    4    0    0  0.31247331260E+01  0.58524461226E+00 -0.69588643493E+02  0.69661221433E+02  0.00000000000E+00 0.  1.
<mgrwt>
<rscale>  0 0.92208379E+02</rscale>
<asrwt>0</asrwt>
<pdfrwt beam="2">  1        2 0.49957677E-01 0.92208379E+02</pdfrwt>
<pdfrwt beam="1">  1       -2 0.10070518E-02 0.92208379E+02</pdfrwt>
<totfact> 0.17955130E+05</totfact>
</mgrwt>
</event>
<event>
 7    1  0.3337990E-009  0.9200608E+02  0.7818608E-02  0.1298065E+00
         -2   -1    0    0    0  501 -0.00000000000E+00  0.00000000000E+00  0.93701433320E+02  0.93701433355E+02  0.25500000000E-02 0.  1.
          2   -1    0    0  501    0  0.00000000000E+00 -0.00000000000E+00 -0.22585348627E+02  0.22585348771E+02  0.25500000000E-02 0. -1.
         23    2    1    2    0    0  0.00000000000E+00 -0.17763568394E-14  0.71116084693E+02  0.11628678213E+03  0.92006076946E+02 0.  0.
    9000005    2    3    3    0    0  0.42280209453E+02 -0.15900850648E+02  0.30820341994E+02  0.55754145950E+02  0.10870977291E+02 0.  0.
         22    1    3    3    0    0 -0.42280209453E+02  0.15900850648E+02  0.40295742699E+02  0.60532636176E+02  0.00000000000E+00 0.  1.
         22    1    4    4    0    0  0.22646699103E+02 -0.41663366087E+01  0.11140297139E+02  0.25580022700E+02  0.00000000000E+00 0.  1.
         22    1    4    4    0    0  0.19633510351E+02 -0.11734514039E+02  0.19680044855E+02  0.30174123250E+02  0.00000000000E+00 0.  1.
<mgrwt>
<rscale>  0 0.92006077E+02</rscale>
<asrwt>0</asrwt>
<pdfrwt beam="2">  1        2 0.34746690E-02 0.92006077E+02</pdfrwt>
<pdfrwt beam="1">  1       -2 0.14415605E-01 0.92006077E+02</pdfrwt>
<totfact> 0.79543338E+04</totfact>
</mgrwt>
</event>
<event>
 7    1  0.3337990E-009  0.9227491E+02  0.7818608E-02  0.1297434E+00
          2   -1    0    0  501    0  0.00000000000E+00  0.00000000000E+00  0.39178266816E+03  0.39178266817E+03  0.25500000000E-02 0. -1.
         -2   -1    0    0    0  501 -0.00000000000E+00 -0.00000000000E+00 -0.54332790015E+01  0.54332795999E+01  0.25500000000E-02 0.  1.
         23    2    1    2    0    0  0.00000000000E+00  0.00000000000E+00  0.38634938916E+03  0.39721594777E+03  0.92274908064E+02 0.  0.
    9000005    2    3    3    0    0  0.24691674574E+02  0.64730273106E+01  0.35823196113E+03  0.35924005233E+03  0.84674873611E+01 0.  0.
         22    1    3    3    0    0 -0.24691674574E+02 -0.64730273106E+01  0.28117428023E+02  0.37975895440E+02  0.00000000000E+00 0.  1.
         22    1    4    4    0    0  0.29853446342E+01  0.95933066121E+00  0.17944359668E+02  0.18216274092E+02  0.00000000000E+00 0.  1.
         22    1    4    4    0    0  0.21706329940E+02  0.55136966494E+01  0.34028760147E+03  0.34102377824E+03  0.00000000000E+00 0.  1.
<mgrwt>
<rscale>  0 0.92274908E+02</rscale>
<asrwt>0</asrwt>
<pdfrwt beam="1">  1        2 0.60274256E-01 0.92274908E+02</pdfrwt>
<pdfrwt beam="2">  1       -2 0.83588914E-03 0.92274908E+02</pdfrwt>
<totfact> 0.19193722E+05</totfact>
</mgrwt>
</event>
<event>
 7    1  0.3337990E-009  0.8906147E+02  0.7818608E-02  0.1305141E+00
          2   -1    0    0  501    0  0.00000000000E+00  0.00000000000E+00  0.72740034206E+03  0.72740034206E+03  0.25500000000E-02 0. -1.
         -2   -1    0    0    0  501 -0.00000000000E+00 -0.00000000000E+00 -0.27261273990E+01  0.27261285916E+01  0.25500000000E-02 0.  1.
         23    2    1    2    0    0  0.00000000000E+00  0.35527136788E-14  0.72467421466E+03  0.73012647065E+03  0.89061471794E+02 0.  0.
    9000005    2    3    3    0    0 -0.35036134998E+01  0.27276465768E+02  0.64785968703E+03  0.64853754648E+03  0.11067711086E+02 0.  0.
         22    1    3    3    0    0  0.35036134998E+01 -0.27276465768E+02  0.76814527631E+02  0.81588924172E+02  0.00000000000E+00 0.  1.
         22    1    4    4    0    0  0.32720026518E+01  0.16374406262E+02  0.33830619678E+03  0.33871803902E+03  0.00000000000E+00 0. -1.
         22    1    4    4    0    0 -0.67756161516E+01  0.10902059506E+02  0.30955349025E+03  0.30981950746E+03  0.00000000000E+00 0. -1.
<mgrwt>
<rscale>  0 0.89061472E+02</rscale>
<asrwt>0</asrwt>
<pdfrwt beam="1">  1        2 0.11190770E+00 0.89061472E+02</pdfrwt>
<pdfrwt beam="2">  1       -2 0.41940446E-03 0.89061472E+02</pdfrwt>
<totfact> 0.25445782E+05</totfact>
</mgrwt>
</event>
<event>
 7    1  0.3337990E-009  0.1234692E+03  0.7818608E-02  0.1237481E+00
         -2   -1    0    0    0  501 -0.00000000000E+00  0.00000000000E+00  0.40720778707E+02  0.40720778787E+02  0.25500000000E-02 0.  1.
          2   -1    0    0  501    0  0.00000000000E+00 -0.00000000000E+00 -0.93592470908E+02  0.93592470942E+02  0.25500000000E-02 0. -1.
         23    2    1    2    0    0  0.00000000000E+00  0.00000000000E+00 -0.52871692201E+02  0.13431324973E+03  0.12346915897E+03 0.  0.
    9000005    2    3    3    0    0 -0.34042649669E+02  0.49627583776E+02 -0.37012188997E+02  0.72077223909E+02  0.14262713775E+02 0.  0.
         22    1    3    3    0    0  0.34042649669E+02 -0.49627583776E+02 -0.15859503204E+02  0.62236025820E+02  0.00000000000E+00 0.  1.
         22    1    4    4    0    0 -0.27239787105E+02  0.40332200690E+02 -0.35955087411E+02  0.60510005162E+02  0.00000000000E+00 0.  1.
         22    1    4    4    0    0 -0.68028625644E+01  0.92953830857E+01 -0.10571015861E+01  0.11567218747E+02  0.00000000000E+00 0.  1.
<mgrwt>
<rscale>  0 0.12346916E+03</rscale>
<asrwt>0</asrwt>
<pdfrwt beam="2">  1        2 0.14398842E-01 0.12346916E+03</pdfrwt>
<pdfrwt beam="1">  1       -2 0.62647352E-02 0.12346916E+03</pdfrwt>
<totfact> 0.50970751E+04</totfact>
</mgrwt>
</event>
<event>
 7    1  0.3337990E-009  0.9234232E+02  0.7818608E-02  0.1297277E+00
          2   -1    0    0  501    0  0.00000000000E+00  0.00000000000E+00  0.78083611497E+03  0.78083611497E+03  0.25500000000E-02 0. -1.
         -2   -1    0    0    0  501 -0.00000000000E+00 -0.00000000000E+00 -0.27301192739E+01  0.27301204647E+01  0.25500000000E-02 0.  1.
         23    2    1    2    0    0  0.17763568394E-14  0.00000000000E+00  0.77810599569E+03  0.78356623544E+03  0.92342323891E+02 0.  0.
    9000005    2    3    3    0    0 -0.10612418129E+02  0.28552024957E+02  0.68277312935E+03  0.68348528344E+03  0.67190003600E+01 0.  0.
         22    1    3    3    0    0  0.10612418129E+02 -0.28552024957E+02  0.95332866343E+02  0.10008095200E+03  0.00000000000E+00 0.  1.
         22    1    4    4    0    0 -0.71717145643E+01  0.16221441522E+02  0.46304627824E+03  0.46338582676E+03  0.00000000000E+00 0.  1.
         22    1    4    4    0    0 -0.34407035644E+01  0.12330583435E+02  0.21972685111E+03  0.22009945668E+03  0.00000000000E+00 0.  1.
<mgrwt>
<rscale>  0 0.92342324E+02</rscale>
<asrwt>0</asrwt>
<pdfrwt beam="1">  1        2 0.12012867E+00 0.92342324E+02</pdfrwt>
<pdfrwt beam="2">  1       -2 0.42001830E-03 0.92342324E+02</pdfrwt>
<totfact> 0.23467395E+05</totfact>
</mgrwt>
</event>
<event>
 7    1  0.3337990E-009  0.9269133E+02  0.7818608E-02  0.1296462E+00
          2   -1    0    0  501    0  0.00000000000E+00  0.00000000000E+00  0.82316518579E+02  0.82316518619E+02  0.25500000000E-02 0. -1.
         -2   -1    0    0    0  501 -0.00000000000E+00 -0.00000000000E+00 -0.26093434729E+02  0.26093434853E+02  0.25500000000E-02 0.  1.
         23    2    1    2    0    0  0.00000000000E+00  0.00000000000E+00  0.56223083850E+02  0.10840995347E+03  0.92691331063E+02 0.  0.
    9000005    2    3    3    0    0  0.29473935991E+02  0.34574272265E+02  0.34435281329E+02  0.58023432018E+02  0.10809109930E+02 0.  0.
         22    1    3    3    0    0 -0.29473935991E+02 -0.34574272265E+02  0.21787802521E+02  0.50386521454E+02  0.00000000000E+00 0. -1.
         22    1    4    4    0    0  0.23605036249E+02  0.22051483556E+02  0.19802770374E+02  0.37889515408E+02  0.00000000000E+00 0. -1.
         22    1    4    4    0    0  0.58688997426E+01  0.12522788709E+02  0.14632510955E+02  0.20133916611E+02  0.00000000000E+00 0. -1.
<mgrwt>
<rscale>  0 0.92691331E+02</rscale>
<asrwt>0</asrwt>
<pdfrwt beam="1">  1        2 0.12664080E-01 0.92691331E+02</pdfrwt>
<pdfrwt beam="2">  1       -2 0.40143746E-02 0.92691331E+02</pdfrwt>
<totfact> 0.11061377E+05</totfact>
</mgrwt>
</event>
<event>
 7    1  0.3337990E-009  0.9512958E+02  0.7818608E-02  0.1290885E+00
          2   -1    0    0  501    0  0.00000000000E+00  0.00000000000E+00  0.35539744683E+03  0.35539744684E+03  0.25500000000E-02 0. -1.
         -2   -1    0    0    0  501 -0.00000000000E+00 -0.00000000000E+00 -0.63658563125E+01  0.63658568232E+01  0.25500000000E-02 0.  1.
         23    2    1    2    0    0 -0.71054273576E-14  0.00000000000E+00  0.34903159052E+03  0.36176330367E+03  0.95129578458E+02 0.  0.
    9000005    2    3    3    0    0  0.43748148473E+02 -0.92290074423E+01  0.12710148133E+03  0.13537415102E+03  0.13126276437E+02 0.  0.
         22    1    3    3    0    0 -0.43748148473E+02  0.92290074423E+01  0.22193010919E+03  0.22638915265E+03  0.00000000000E+00 0. -1.
         22    1    4    4    0    0  0.28159711193E+02 -0.31808747463E+01  0.62167515892E+02  0.68321938868E+02  0.00000000000E+00 0. -1.
         22    1    4    4    0    0  0.15588437281E+02 -0.60481326959E+01  0.64933965443E+02  0.67052212149E+02  0.00000000000E+00 0. -1.
<mgrwt>
<rscale>  0 0.95129578E+02</rscale>
<asrwt>0</asrwt>
<pdfrwt beam="1">  1        2 0.54676527E-01 0.95129578E+02</pdfrwt>
<pdfrwt beam="2">  1       -2 0.97936261E-03 0.95129578E+02</pdfrwt>
<totfact> 0.17079301E+05</totfact>
</mgrwt>
</event>
<event>
 7    1  0.3337990E-009  0.9207301E+02  0.7818608E-02  0.1297908E+00
         -2   -1    0    0    0  501 -0.00000000000E+00  0.00000000000E+00  0.41638285933E+01  0.41638293741E+01  0.25500000000E-02 0. -1.
          2   -1    0    0  501    0  0.00000000000E+00 -0.00000000000E+00 -0.50899298012E+03  0.50899298013E+03  0.25500000000E-02 0.  1.
         23    2    1    2    0    0  0.00000000000E+00  0.00000000000E+00 -0.50482915153E+03  0.51315680950E+03  0.92073008561E+02 0.  0.
    9000005    2    3    3    0    0 -0.42603718431E+02  0.53577783958E+01 -0.32970523270E+03  0.33284549660E+03  0.15388356828E+02 0.  0.
         22    1    3    3    0    0  0.42603718431E+02 -0.53577783958E+01 -0.17512391883E+03  0.18031131290E+03  0.00000000000E+00 0. -1.
         22    1    4    4    0    0 -0.35089543503E+01  0.48385915119E+01 -0.29035153924E+02  0.29643968895E+02  0.00000000000E+00 0. -1.
         22    1    4    4    0    0 -0.39094764081E+02  0.51918688393E+00 -0.30067007877E+03  0.30320152771E+03  0.00000000000E+00 0. -1.
<mgrwt>
<rscale>  0 0.92073009E+02</rscale>
<asrwt>0</asrwt>
<pdfrwt beam="2">  1        2 0.78306563E-01 0.92073009E+02</pdfrwt>
<pdfrwt beam="1">  1       -2 0.64058948E-03 0.92073009E+02</pdfrwt>
<totfact> 0.21119964E+05</totfact>
</mgrwt>
</event>
<event>
 7    1  0.3337990E-009  0.9107110E+02  0.7818608E-02  0.1300278E+00
         -2   -1    0    0    0  501 -0.00000000000E+00  0.00000000000E+00  0.66363963648E+01  0.66363968547E+01  0.25500000000E-02 0.  1.
          2   -1    0    0  501    0  0.00000000000E+00 -0.00000000000E+00 -0.31244156205E+03  0.31244156207E+03  0.25500000000E-02 0. -1.
         23    2    1    2    0    0  0.00000000000E+00 -0.66613381478E-15 -0.30580516569E+03  0.31907795892E+03  0.91071095886E+02 0.  0.
    9000005    2    3    3    0    0  0.38495318793E+02 -0.48652887477E+00 -0.23517739234E+03  0.23863910856E+03  0.12573463553E+02 0.  0.
         22    1    3    3    0    0 -0.38495318793E+02  0.48652887477E+00 -0.70627773347E+02  0.80438850360E+02  0.00000000000E+00 0.  1.
         22    1    4    4    0    0  0.28759301662E+02  0.43367759038E+01 -0.18726969254E+03  0.18951475616E+03  0.00000000000E+00 0. -1.
         22    1    4    4    0    0  0.97360171310E+01 -0.48233047786E+01 -0.47907699798E+02  0.49124352397E+02  0.00000000000E+00 0. -1.
<mgrwt>
<rscale>  0 0.91071096E+02</rscale>
<asrwt>0</asrwt>
<pdfrwt beam="2">  1        2 0.48067921E-01 0.91071096E+02</pdfrwt>
<pdfrwt beam="1">  1       -2 0.10209843E-02 0.91071096E+02</pdfrwt>
<totfact> 0.18296120E+05</totfact>
</mgrwt>
</event>
<event>
 7    1  0.3337990E-009  0.9268034E+02  0.7818608E-02  0.1296488E+00
          2   -1    0    0  501    0  0.00000000000E+00  0.00000000000E+00  0.55010891062E+03  0.55010891062E+03  0.25500000000E-02 0. -1.
         -2   -1    0    0    0  501 -0.00000000000E+00 -0.00000000000E+00 -0.39036110425E+01  0.39036118754E+01  0.25500000000E-02 0.  1.
         23    2    1    2    0    0  0.00000000000E+00  0.00000000000E+00  0.54620529957E+03  0.55401252250E+03  0.92680342045E+02 0.  0.
    9000005    2    3    3    0    0  0.26730115578E+02 -0.37744448825E+02  0.26897053300E+03  0.27294623442E+03  0.39187710359E+01 0.  0.
         22    1    3    3    0    0 -0.26730115578E+02  0.37744448825E+02  0.27723476657E+03  0.28106628808E+03  0.00000000000E+00 0. -1.
         22    1    4    4    0    0  0.22782361088E+02 -0.31761401130E+02  0.23489403941E+03  0.23812398521E+03  0.00000000000E+00 0. -1.
         22    1    4    4    0    0  0.39477544898E+01 -0.59830476952E+01  0.34076493587E+02  0.34822249215E+02  0.00000000000E+00 0. -1.
<mgrwt>
<rscale>  0 0.92680342E+02</rscale>
<asrwt>0</asrwt>
<pdfrwt beam="1">  1        2 0.84632089E-01 0.92680342E+02</pdfrwt>
<pdfrwt beam="2">  1       -2 0.60055598E-03 0.92680342E+02</pdfrwt>
<totfact> 0.21267956E+05</totfact>
</mgrwt>
</event>
<event>
 7    1  0.3337990E-009  0.8911539E+02  0.7818608E-02  0.1305008E+00
         -2   -1    0    0    0  501 -0.00000000000E+00  0.00000000000E+00  0.21783618882E+02  0.21783619031E+02  0.25500000000E-02 0.  1.
          2   -1    0    0  501    0  0.00000000000E+00 -0.00000000000E+00 -0.91141336539E+02  0.91141336575E+02  0.25500000000E-02 0. -1.
         23    2    1    2    0    0  0.00000000000E+00 -0.35527136788E-14 -0.69357717657E+02  0.11292495561E+03  0.89115389244E+02 0.  0.
    9000005    2    3    3    0    0 -0.31359093696E+02 -0.29595931148E+02 -0.22396384755E+02  0.49170122958E+02  0.75359832581E+01 0.  0.
         22    1    3    3    0    0  0.31359093696E+02  0.29595931148E+02 -0.46961332902E+02  0.63754832648E+02  0.00000000000E+00 0. -1.
         22    1    4    4    0    0 -0.11330602262E+02 -0.61945543737E+01 -0.77818236183E+01  0.15076864075E+02  0.00000000000E+00 0.  1.
         22    1    4    4    0    0 -0.20028491434E+02 -0.23401376774E+02 -0.14614561137E+02  0.34093258884E+02  0.00000000000E+00 0.  1.
<mgrwt>
<rscale>  0 0.89115389E+02</rscale>
<asrwt>0</asrwt>
<pdfrwt beam="2">  1        2 0.14021744E-01 0.89115389E+02</pdfrwt>
<pdfrwt beam="1">  1       -2 0.33513260E-02 0.89115389E+02</pdfrwt>
<totfact> 0.12706540E+05</totfact>
</mgrwt>
</event>
<event>
 7    1  0.3337990E-009  0.9359936E+02  0.7818608E-02  0.1294362E+00
         -2   -1    0    0    0  501 -0.00000000000E+00  0.00000000000E+00  0.16219831655E+02  0.16219831855E+02  0.25500000000E-02 0.  1.
          2   -1    0    0  501    0  0.00000000000E+00 -0.00000000000E+00 -0.13503285814E+03  0.13503285816E+03  0.25500000000E-02 0. -1.
         23    2    1    2    0    0  0.16653345369E-15 -0.71054273576E-14 -0.11881302648E+03  0.15125269002E+03  0.93599364183E+02 0.  0.
    9000005    2    3    3    0    0 -0.34589141385E+00 -0.33371613810E+02 -0.81117867804E+01  0.35630249631E+02  0.94831089232E+01 0.  0.
         22    1    3    3    0    0  0.34589141385E+00  0.33371613810E+02 -0.11070123970E+03  0.11562244038E+03  0.00000000000E+00 0. -1.
         22    1    4    4    0    0 -0.15490569732E+01 -0.11646525406E+02 -0.73496697702E+01  0.13858527240E+02  0.00000000000E+00 0.  1.
         22    1    4    4    0    0  0.12031655594E+01 -0.21725088404E+02 -0.76211701022E+00  0.21771722391E+02  0.00000000000E+00 0.  1.
<mgrwt>
<rscale>  0 0.93599364E+02</rscale>
<asrwt>0</asrwt>
<pdfrwt beam="2">  1        2 0.20774285E-01 0.93599364E+02</pdfrwt>
<pdfrwt beam="1">  1       -2 0.24953588E-02 0.93599364E+02</pdfrwt>
<totfact> 0.12563618E+05</totfact>
</mgrwt>
</event>
<event>
 7    1  0.3337990E-009  0.9064892E+02  0.7818608E-02  0.1301288E+00
         -2   -1    0    0    0  501 -0.00000000000E+00  0.00000000000E+00  0.21600788406E+01  0.21600803458E+01  0.25500000000E-02 0.  1.
          2   -1    0    0  501    0  0.00000000000E+00 -0.00000000000E+00 -0.95103291336E+03  0.95103291336E+03  0.25500000000E-02 0. -1.
         23    2    1    2    0    0  0.00000000000E+00  0.00000000000E+00 -0.94887283452E+03  0.95319299371E+03  0.90648922594E+02 0.  0.
    9000005    2    3    3    0    0  0.22844366294E+02 -0.64702260933E+01 -0.87821331511E+03  0.87865108214E+03  0.14330680866E+02 0.  0.
         22    1    3    3    0    0 -0.22844366294E+02  0.64702260933E+01 -0.70659519412E+02  0.74541911571E+02  0.00000000000E+00 0.  1.
         22    1    4    4    0    0  0.17436810568E+02  0.13826805469E+01 -0.65626627130E+03  0.65649933208E+03  0.00000000000E+00 0. -1.
         22    1    4    4    0    0  0.54075557261E+01 -0.78529066403E+01 -0.22194704380E+03  0.22215175006E+03  0.00000000000E+00 0. -1.
<mgrwt>
<rscale>  0 0.90648923E+02</rscale>
<asrwt>0</asrwt>
<pdfrwt beam="2">  1        2 0.14631242E+00 0.90648923E+02</pdfrwt>
<pdfrwt beam="1">  1       -2 0.33232070E-03 0.90648923E+02</pdfrwt>
<totfact> 0.25308954E+05</totfact>
</mgrwt>
</event>
<event>
 7    1  0.3337990E-009  0.8939077E+02  0.7818608E-02  0.1304334E+00
          2   -1    0    0  501    0  0.00000000000E+00  0.00000000000E+00  0.10764077690E+03  0.10764077693E+03  0.25500000000E-02 0. -1.
         -2   -1    0    0    0  501 -0.00000000000E+00 -0.00000000000E+00 -0.18558744164E+02  0.18558744339E+02  0.25500000000E-02 0.  1.
         23    2    1    2    0    0  0.00000000000E+00  0.00000000000E+00  0.89082032733E+02  0.12619952127E+03  0.89390774758E+02 0.  0.
    9000005    2    3    3    0    0  0.40500891325E+02 -0.16614688262E+02  0.40963874465E+02  0.61147794008E+02  0.12026788294E+02 0.  0.
         22    1    3    3    0    0 -0.40500891325E+02  0.16614688262E+02  0.48118158269E+02  0.65051727259E+02  0.00000000000E+00 0. -1.
         22    1    4    4    0    0  0.39285983887E+02 -0.14223028602E+02  0.34622363193E+02  0.54262243832E+02  0.00000000000E+00 0. -1.
         22    1    4    4    0    0  0.12149074374E+01 -0.23916596605E+01  0.63415112715E+01  0.68855501756E+01  0.00000000000E+00 0. -1.
<mgrwt>
<rscale>  0 0.89390775E+02</rscale>
<asrwt>0</asrwt>
<pdfrwt beam="1">  1        2 0.16560120E-01 0.89390775E+02</pdfrwt>
<pdfrwt beam="2">  1       -2 0.28551914E-02 0.89390775E+02</pdfrwt>
<totfact> 0.13247423E+05</totfact>
</mgrwt>
</event>
<event>
 7    1  0.3337990E-009  0.8991079E+02  0.7818608E-02  0.1303068E+00
         -2   -1    0    0    0  501 -0.00000000000E+00  0.00000000000E+00  0.14625103845E+03  0.14625103847E+03  0.25500000000E-02 0.  1.
          2   -1    0    0  501    0  0.00000000000E+00 -0.00000000000E+00 -0.13818618626E+02  0.13818618861E+02  0.25500000000E-02 0. -1.
         23    2    1    2    0    0  0.00000000000E+00  0.00000000000E+00  0.13243241982E+03  0.16006965733E+03  0.89910785662E+02 0.  0.
    9000005    2    3    3    0    0  0.17274487348E+02 -0.40991763049E+02  0.55316620887E+02  0.71043936349E+02  0.29291286637E+01 0.  0.
         22    1    3    3    0    0 -0.17274487348E+02  0.40991763049E+02  0.77115798937E+02  0.89025720983E+02  0.00000000000E+00 0.  1.
         22    1    4    4    0    0  0.10786679392E+02 -0.28996989463E+02  0.37950521104E+02  0.48963454763E+02  0.00000000000E+00 0. -1.
         22    1    4    4    0    0  0.64878079556E+01 -0.11994773585E+02  0.17366099783E+02  0.22080481587E+02  0.00000000000E+00 0. -1.
<mgrwt>
<rscale>  0 0.89910786E+02</rscale>
<asrwt>0</asrwt>
<pdfrwt beam="2">  1        2 0.21259414E-02 0.89910786E+02</pdfrwt>
<pdfrwt beam="1">  1       -2 0.22500159E-01 0.89910786E+02</pdfrwt>
<totfact> 0.73034601E+04</totfact>
</mgrwt>
</event>
<event>
 7    1  0.3337990E-009  0.9032005E+02  0.7818608E-02  0.1302078E+00
          2   -1    0    0  501    0  0.00000000000E+00  0.00000000000E+00  0.11098740651E+02  0.11098740944E+02  0.25500000000E-02 0. -1.
         -2   -1    0    0    0  501 -0.00000000000E+00 -0.00000000000E+00 -0.18375309227E+03  0.18375309229E+03  0.25500000000E-02 0.  1.
         23    2    1    2    0    0  0.00000000000E+00  0.00000000000E+00 -0.17265435162E+03  0.19485183324E+03  0.90320051933E+02 0.  0.
    9000005    2    3    3    0    0  0.27723891740E+01  0.24612119537E+02 -0.16682768463E+03  0.16940792202E+03  0.15941302093E+02 0.  0.
         22    1    3    3    0    0 -0.27723891740E+01 -0.24612119537E+02 -0.58266669881E+01  0.25443911217E+02  0.00000000000E+00 0. -1.
         22    1    4    4    0    0 -0.50444916677E+01  0.14297269438E+02 -0.11469859395E+03  0.11569626729E+03  0.00000000000E+00 0. -1.
         22    1    4    4    0    0  0.78168808417E+01  0.10314850099E+02 -0.52129090681E+02  0.53711654731E+02  0.00000000000E+00 0. -1.
<mgrwt>
<rscale>  0 0.90320052E+02</rscale>
<asrwt>0</asrwt>
<pdfrwt beam="1">  1        2 0.17074987E-02 0.90320052E+02</pdfrwt>
<pdfrwt beam="2">  1       -2 0.28269704E-01 0.90320052E+02</pdfrwt>
<totfact> 0.66158131E+04</totfact>
</mgrwt>
</event>
<event>
 7    1  0.3337990E-009  0.9216050E+02  0.7818608E-02  0.1297703E+00
          2   -1    0    0  501    0  0.00000000000E+00  0.00000000000E+00  0.28515648205E+03  0.28515648206E+03  0.25500000000E-02 0.  1.
         -2   -1    0    0    0  501 -0.00000000000E+00 -0.00000000000E+00 -0.74464000103E+01  0.74464004469E+01  0.25500000000E-02 0. -1.
         23    2    1    2    0    0  0.00000000000E+00 -0.17763568394E-14  0.27771008204E+03  0.29260288251E+03  0.92160496883E+02 0.  0.
    9000005    2    3    3    0    0  0.42985147923E+02  0.93632903052E+01  0.16979789355E+03  0.17606776089E+03  0.15268844796E+02 0.  0.
         22    1    3    3    0    0 -0.42985147923E+02 -0.93632903052E+01  0.10791218849E+03  0.11653512162E+03  0.00000000000E+00 0.  1.
         22    1    4    4    0    0  0.26307955448E+02  0.50478896297E+01  0.12951165517E+03  0.13225300955E+03  0.00000000000E+00 0.  1.
         22    1    4    4    0    0  0.16677192475E+02  0.43154006755E+01  0.40286238380E+02  0.43814751336E+02  0.00000000000E+00 0.  1.
<mgrwt>
<rscale>  0 0.92160497E+02</rscale>
<asrwt>0</asrwt>
<pdfrwt beam="1">  1        2 0.43870226E-01 0.92160497E+02</pdfrwt>
<pdfrwt beam="2">  1       -2 0.11456001E-02 0.92160497E+02</pdfrwt>
<totfact> 0.17130650E+05</totfact>
</mgrwt>
</event>
<event>
 7    1  0.3337990E-009  0.9135278E+02  0.7818608E-02  0.1299608E+00
         -2   -1    0    0    0  501 -0.00000000000E+00  0.00000000000E+00  0.56015697978E+02  0.56015698036E+02  0.25500000000E-02 0.  1.
          2   -1    0    0  501    0  0.00000000000E+00 -0.00000000000E+00 -0.37245497793E+02  0.37245497880E+02  0.25500000000E-02 0. -1.
         23    2    1    2    0    0  0.00000000000E+00  0.00000000000E+00  0.18770200185E+02  0.93261195916E+02  0.91352779097E+02 0.  0.
    9000005    2    3    3    0    0  0.56607845580E+01 -0.26197526216E+02 -0.26864759454E+02  0.40337624581E+02  0.13676761116E+02 0.  0.
         22    1    3    3    0    0 -0.56607845580E+01  0.26197526216E+02  0.45634959640E+02  0.52923571336E+02  0.00000000000E+00 0.  1.
         22    1    4    4    0    0 -0.20627352220E+01  0.64131212195E+00 -0.20449585811E+01  0.29745610487E+01  0.00000000000E+00 0.  1.
         22    1    4    4    0    0  0.77235197801E+01 -0.26838838337E+02 -0.24819800873E+02  0.37363063532E+02  0.00000000000E+00 0.  1.
<mgrwt>
<rscale>  0 0.91352779E+02</rscale>
<asrwt>0</asrwt>
<pdfrwt beam="2">  1        2 0.57300766E-02 0.91352779E+02</pdfrwt>
<pdfrwt beam="1">  1       -2 0.86177996E-02 0.91352779E+02</pdfrwt>
<totfact> 0.93116169E+04</totfact>
</mgrwt>
</event>
<event>
 7    1  0.3337990E-009  0.9101279E+02  0.7818608E-02  0.1300417E+00
          2   -1    0    0  501    0  0.00000000000E+00  0.00000000000E+00  0.16442062702E+04  0.16442062702E+04  0.25500000000E-02 0. -1.
         -2   -1    0    0    0  501 -0.00000000000E+00 -0.00000000000E+00 -0.12594708674E+01  0.12594734488E+01  0.25500000000E-02 0.  1.
         23    2    1    2    0    0  0.00000000000E+00  0.00000000000E+00  0.16429467993E+04  0.16454657437E+04  0.91012790810E+02 0.  0.
    9000005    2    3    3    0    0 -0.23464704727E+01 -0.13857796386E+02  0.16028836305E+04  0.16030086836E+04  0.14260525776E+02 0.  0.
         22    1    3    3    0    0  0.23464704727E+01  0.13857796386E+02  0.40063168874E+02  0.42457060009E+02  0.00000000000E+00 0.  1.
         22    1    4    4    0    0  0.32214348691E+00 -0.14395859292E+02  0.86358018906E+03  0.86370023010E+03  0.00000000000E+00 0.  1.
         22    1    4    4    0    0 -0.26686139596E+01  0.53806290563E+00  0.73930344141E+03  0.73930845355E+03  0.00000000000E+00 0.  1.
<mgrwt>
<rscale>  0 0.91012791E+02</rscale>
<asrwt>0</asrwt>
<pdfrwt beam="1">  1        2 0.25295561E+00 0.91012791E+02</pdfrwt>
<pdfrwt beam="2">  1       -2 0.19376433E-03 0.91012791E+02</pdfrwt>
<totfact> 0.22750957E+05</totfact>
</mgrwt>
</event>
<event>
 7    1  0.3337990E-009  0.9233208E+02  0.7818608E-02  0.1297301E+00
          2   -1    0    0  501    0  0.00000000000E+00  0.00000000000E+00  0.79950987328E+02  0.79950987369E+02  0.25500000000E-02 0. -1.
         -2   -1    0    0    0  501 -0.00000000000E+00 -0.00000000000E+00 -0.26657620295E+02  0.26657620417E+02  0.25500000000E-02 0.  1.
         23    2    1    2    0    0  0.00000000000E+00  0.00000000000E+00  0.53293367033E+02  0.10660860779E+03  0.92332076141E+02 0.  0.
    9000005    2    3    3    0    0  0.23503355124E+02  0.23560270593E+02  0.62983591167E+02  0.71947469659E+02  0.10100078288E+02 0.  0.
         22    1    3    3    0    0 -0.23503355124E+02 -0.23560270593E+02 -0.96902241345E+01  0.34661138128E+02  0.00000000000E+00 0.  1.
         22    1    4    4    0    0  0.10342237772E+02  0.56045884084E+01  0.29284197879E+02  0.31558478080E+02  0.00000000000E+00 0.  1.
         22    1    4    4    0    0  0.13161117353E+02  0.17955682185E+02  0.33699393289E+02  0.40388991578E+02  0.00000000000E+00 0.  1.
<mgrwt>
<rscale>  0 0.92332076E+02</rscale>
<asrwt>0</asrwt>
<pdfrwt beam="1">  1        2 0.12300152E-01 0.92332076E+02</pdfrwt>
<pdfrwt beam="2">  1       -2 0.41011724E-02 0.92332076E+02</pdfrwt>
<totfact> 0.11087902E+05</totfact>
</mgrwt>
</event>
<event>
 7    1  0.3337990E-009  0.9132692E+02  0.7818608E-02  0.1299670E+00
          2   -1    0    0  501    0  0.00000000000E+00  0.00000000000E+00  0.79728245659E+02  0.79728245700E+02  0.25500000000E-02 0. -1.
         -2   -1    0    0    0  501 -0.00000000000E+00 -0.00000000000E+00 -0.26153234921E+02  0.26153235045E+02  0.25500000000E-02 0.  1.
         23    2    1    2    0    0 -0.88817841970E-15  0.35527136788E-14  0.53575010738E+02  0.10588148074E+03  0.91326919301E+02 0.  0.
    9000005    2    3    3    0    0 -0.57021528677E+01  0.18911420790E+02 -0.20931960957E+02  0.28800710025E+02  0.10851381601E+01 0.  0.
         22    1    3    3    0    0  0.57021528677E+01 -0.18911420790E+02  0.74506971695E+02  0.77080770720E+02  0.00000000000E+00 0. -1.
         22    1    4    4    0    0 -0.35293693570E+01  0.10006465210E+02 -0.11562908499E+02  0.15693522454E+02  0.00000000000E+00 0.  1.
         22    1    4    4    0    0 -0.21727835107E+01  0.89049555800E+01 -0.93690524573E+01  0.13107187571E+02  0.00000000000E+00 0.  1.
<mgrwt>
<rscale>  0 0.91326919E+02</rscale>
<asrwt>0</asrwt>
<pdfrwt beam="1">  1        2 0.12265884E-01 0.91326919E+02</pdfrwt>
<pdfrwt beam="2">  1       -2 0.40235747E-02 0.91326919E+02</pdfrwt>
<totfact> 0.11422007E+05</totfact>
</mgrwt>
</event>
<event>
 7    1  0.3337990E-009  0.8120766E+02  0.7818608E-02  0.1325659E+00
          2   -1    0    0  501    0  0.00000000000E+00  0.00000000000E+00  0.24432965176E+03  0.24432965178E+03  0.25500000000E-02 0. -1.
         -2   -1    0    0    0  501 -0.00000000000E+00 -0.00000000000E+00 -0.67477309497E+01  0.67477314315E+01  0.25500000000E-02 0.  1.
         23    2    1    2    0    0  0.00000000000E+00 -0.35527136788E-14  0.23758192082E+03  0.25107738321E+03  0.81207655189E+02 0.  0.
    9000005    2    3    3    0    0  0.19647566871E+02 -0.27113626337E+02  0.48230791665E+02  0.58788471081E+02  0.29494830630E+01 0.  0.
         22    1    3    3    0    0 -0.19647566871E+02  0.27113626337E+02  0.18935112915E+03  0.19228891213E+03  0.00000000000E+00 0. -1.
         22    1    4    4    0    0  0.16264135172E+02 -0.23251373888E+02  0.42405177383E+02  0.51023010000E+02  0.00000000000E+00 0. -1.
         22    1    4    4    0    0  0.33834316994E+01 -0.38622524485E+01  0.58256142824E+01  0.77654610815E+01  0.00000000000E+00 0. -1.
<mgrwt>
<rscale>  0 0.81207655E+02</rscale>
<asrwt>0</asrwt>
<pdfrwt beam="1">  1        2 0.37589172E-01 0.81207655E+02</pdfrwt>
<pdfrwt beam="2">  1       -2 0.10381126E-02 0.81207655E+02</pdfrwt>
<totfact> 0.22649534E+05</totfact>
</mgrwt>
</event>
<event>
 7    1  0.3337990E-009  0.9276808E+02  0.7818608E-02  0.1296284E+00
          2   -1    0    0  501    0  0.00000000000E+00  0.00000000000E+00  0.18485707845E+02  0.18485708021E+02  0.25500000000E-02 0. -1.
         -2   -1    0    0    0  501 -0.00000000000E+00 -0.00000000000E+00 -0.11638609684E+03  0.11638609687E+03  0.25500000000E-02 0.  1.
         23    2    1    2    0    0  0.30531133177E-15 -0.71054273576E-14 -0.97900388999E+02  0.13487180489E+03  0.92768084969E+02 0.  0.
    9000005    2    3    3    0    0  0.67387767001E-01 -0.41956185613E+02 -0.23330974716E+02  0.49309408954E+02  0.11258657905E+02 0.  0.
         22    1    3    3    0    0 -0.67387767001E-01  0.41956185613E+02 -0.74569414283E+02  0.85562395939E+02  0.00000000000E+00 0.  1.
         22    1    4    4    0    0  0.36115671822E+01 -0.56778851957E+01 -0.56976138576E+01  0.88172899168E+01  0.00000000000E+00 0. -1.
         22    1    4    4    0    0 -0.35441794152E+01 -0.36278300418E+02 -0.17633360859E+02  0.40492119037E+02  0.00000000000E+00 0. -1.
<mgrwt>
<rscale>  0 0.92768085E+02</rscale>
<asrwt>0</asrwt>
<pdfrwt beam="1">  1        2 0.28439551E-02 0.92768085E+02</pdfrwt>
<pdfrwt beam="2">  1       -2 0.17905553E-01 0.92768085E+02</pdfrwt>
<totfact> 0.72925987E+04</totfact>
</mgrwt>
</event>
<event>
 7    1  0.3337990E-009  0.8850397E+02  0.7818608E-02  0.1306516E+00
         -2   -1    0    0    0  501 -0.00000000000E+00  0.00000000000E+00  0.41839415544E+01  0.41839423315E+01  0.25500000000E-02 0.  1.
          2   -1    0    0  501    0  0.00000000000E+00 -0.00000000000E+00 -0.46803666935E+03  0.46803666936E+03  0.25500000000E-02 0. -1.
         23    2    1    2    0    0  0.00000000000E+00  0.71054273576E-14 -0.46385272779E+03  0.47222061169E+03  0.88503971775E+02 0.  0.
    9000005    2    3    3    0    0  0.12833964721E+02 -0.41213135257E+02 -0.28368471897E+03  0.28695392668E+03  0.15175949328E+01 0.  0.
         22    1    3    3    0    0 -0.12833964721E+02  0.41213135257E+02 -0.18016800883E+03  0.18526668500E+03  0.00000000000E+00 0.  1.
         22    1    4    4    0    0  0.79244881317E+01 -0.27313083356E+02 -0.18376919409E+03  0.18595676575E+03  0.00000000000E+00 0.  1.
         22    1    4    4    0    0  0.49094765889E+01 -0.13900051901E+02 -0.99915524884E+02  0.10099716093E+03  0.00000000000E+00 0.  1.
<mgrwt>
<rscale>  0 0.88503972E+02</rscale>
<asrwt>0</asrwt>
<pdfrwt beam="2">  1        2 0.72005600E-01 0.88503972E+02</pdfrwt>
<pdfrwt beam="1">  1       -2 0.64368375E-03 0.88503972E+02</pdfrwt>
<totfact> 0.22809081E+05</totfact>
</mgrwt>
</event>
<event>
 7    1  0.3337990E-009  0.1020039E+03  0.7818608E-02  0.1276137E+00
         -2   -1    0    0    0  501 -0.00000000000E+00  0.00000000000E+00  0.25738164188E+02  0.25738164315E+02  0.25500000000E-02 0.  1.
          2   -1    0    0  501    0  0.00000000000E+00 -0.00000000000E+00 -0.10106398101E+03  0.10106398105E+03  0.25500000000E-02 0. -1.
         23    2    1    2    0    0  0.00000000000E+00  0.71054273576E-14 -0.75325816826E+02  0.12680214536E+03  0.10200394790E+03 0.  0.
    9000005    2    3    3    0    0  0.28166202796E+02 -0.37538209821E+02 -0.17554505013E+02  0.52371125987E+02  0.15235551002E+02 0.  0.
         22    1    3    3    0    0 -0.28166202796E+02  0.37538209821E+02 -0.57771311813E+02  0.74431019374E+02  0.00000000000E+00 0. -1.
         22    1    4    4    0    0  0.24723615208E+02 -0.37234709410E+02 -0.19074809716E+02  0.48595566665E+02  0.00000000000E+00 0. -1.
         22    1    4    4    0    0  0.34425875883E+01 -0.30350041095E+00  0.15203047028E+01  0.37755593218E+01  0.00000000000E+00 0. -1.
<mgrwt>
<rscale>  0 0.10200395E+03</rscale>
<asrwt>0</asrwt>
<pdfrwt beam="2">  1        2 0.15548305E-01 0.10200395E+03</pdfrwt>
<pdfrwt beam="1">  1       -2 0.39597176E-02 0.10200395E+03</pdfrwt>
<totfact> 0.90125287E+04</totfact>
</mgrwt>
</event>
<event>
 7    1  0.3337990E-009  0.1072061E+03  0.7818608E-02  0.1265833E+00
         -2   -1    0    0    0  501 -0.00000000000E+00  0.00000000000E+00  0.12086951007E+01  0.12086977905E+01  0.25500000000E-02 0.  1.
          2   -1    0    0  501    0  0.00000000000E+00 -0.00000000000E+00 -0.23771798480E+04  0.23771798480E+04  0.25500000000E-02 0. -1.
         23    2    1    2    0    0  0.00000000000E+00  0.00000000000E+00 -0.23759711529E+04  0.23783885458E+04  0.10720613483E+03 0.  0.
    9000005    2    3    3    0    0 -0.13151720104E+02 -0.18326243266E+02 -0.22666361973E+04  0.22667509560E+04  0.33803521531E+01 0.  0.
         22    1    3    3    0    0  0.13151720104E+02  0.18326243266E+02 -0.10933495564E+03  0.11163758981E+03  0.00000000000E+00 0.  1.
         22    1    4    4    0    0 -0.87791247930E+01 -0.96131453301E+01 -0.12278606351E+04  0.12279296498E+04  0.00000000000E+00 0.  1.
         22    1    4    4    0    0 -0.43725953110E+01 -0.87130979363E+01 -0.10387755622E+04  0.10388213062E+04  0.00000000000E+00 0.  1.
<mgrwt>
<rscale>  0 0.10720613E+03</rscale>
<asrwt>0</asrwt>
<pdfrwt beam="2">  1        2 0.36571624E+00 0.10720613E+03</pdfrwt>
<pdfrwt beam="1">  1       -2 0.18595520E-03 0.10720613E+03</pdfrwt>
<totfact> 0.10418749E+05</totfact>
</mgrwt>
</event>
<event>
 7    1  0.3337990E-009  0.9208906E+02  0.7818608E-02  0.1297870E+00
          2   -1    0    0  501    0  0.00000000000E+00  0.00000000000E+00  0.38018372233E+03  0.38018372234E+03  0.25500000000E-02 0. -1.
         -2   -1    0    0    0  501 -0.00000000000E+00 -0.00000000000E+00 -0.55765103819E+01  0.55765109649E+01  0.25500000000E-02 0.  1.
         23    2    1    2    0    0  0.00000000000E+00  0.00000000000E+00  0.37460721195E+03  0.38576023330E+03  0.92089056651E+02 0.  0.
    9000005    2    3    3    0    0  0.15636418796E+02  0.41753758379E+02  0.21012069451E+03  0.21533814451E+03  0.15229454551E+02 0.  0.
         22    1    3    3    0    0 -0.15636418796E+02 -0.41753758379E+02  0.16448651744E+03  0.17042208880E+03  0.00000000000E+00 0.  1.
         22    1    4    4    0    0  0.72999578223E+01  0.12018228576E+02  0.39101368306E+02  0.41552908511E+02  0.00000000000E+00 0.  1.
         22    1    4    4    0    0  0.83364609732E+01  0.29735529803E+02  0.17101932620E+03  0.17378523599E+03  0.00000000000E+00 0.  1.
<mgrwt>
<rscale>  0 0.92089057E+02</rscale>
<asrwt>0</asrwt>
<pdfrwt beam="1">  1        2 0.58489817E-01 0.92089057E+02</pdfrwt>
<pdfrwt beam="2">  1       -2 0.85792452E-03 0.92089057E+02</pdfrwt>
<totfact> 0.19088514E+05</totfact>
</mgrwt>
</event>
<event>
 7    1  0.3337990E-009  0.9193704E+02  0.7818608E-02  0.1298228E+00
         -2   -1    0    0    0  501 -0.00000000000E+00  0.00000000000E+00  0.20051896209E+03  0.20051896211E+03  0.25500000000E-02 0.  1.
          2   -1    0    0  501    0  0.00000000000E+00 -0.00000000000E+00 -0.10538180131E+02  0.10538180439E+02  0.25500000000E-02 0. -1.
         23    2    1    2    0    0  0.35527136788E-14 -0.17763568394E-14  0.18998078196E+03  0.21105714255E+03  0.91937043165E+02 0.  0.
    9000005    2    3    3    0    0 -0.25705747502E+02  0.12624298409E+02  0.17387996395E+02  0.36104497542E+02  0.13454886071E+02 0.  0.
         22    1    3    3    0    0  0.25705747502E+02 -0.12624298409E+02  0.17259278557E+03  0.17495264501E+03  0.00000000000E+00 0.  1.
         22    1    4    4    0    0 -0.23030956083E+02  0.78690526914E+01  0.87018914751E+01  0.25847047096E+02  0.00000000000E+00 0. -1.
         22    1    4    4    0    0 -0.26747914192E+01  0.47552457172E+01  0.86861049199E+01  0.10257450446E+02  0.00000000000E+00 0. -1.
<mgrwt>
<rscale>  0 0.91937043E+02</rscale>
<asrwt>0</asrwt>
<pdfrwt beam="2">  1        2 0.16212585E-02 0.91937043E+02</pdfrwt>
<pdfrwt beam="1">  1       -2 0.30849072E-01 0.91937043E+02</pdfrwt>
<totfact> 0.60941922E+04</totfact>
</mgrwt>
</event>
<event>
 7    1  0.3337990E-009  0.8981024E+02  0.7818608E-02  0.1303312E+00
          2   -1    0    0  501    0  0.00000000000E+00  0.00000000000E+00  0.42427015676E+02  0.42427015753E+02  0.25500000000E-02 0. -1.
         -2   -1    0    0    0  501 -0.00000000000E+00 -0.00000000000E+00 -0.47527970844E+02  0.47527970913E+02  0.25500000000E-02 0.  1.
         23    2    1    2    0    0  0.00000000000E+00  0.00000000000E+00 -0.51009551680E+01  0.89954986666E+02  0.89810243750E+02 0.  0.
    9000005    2    3    3    0    0  0.16795661800E+02 -0.10391042222E+02 -0.42346328231E+02  0.47797118736E+02  0.10064046452E+02 0.  0.
         22    1    3    3    0    0 -0.16795661800E+02  0.10391042222E+02  0.37245373063E+02  0.42157867930E+02  0.00000000000E+00 0. -1.
         22    1    4    4    0    0  0.10141124937E+02 -0.10459848607E+02 -0.21969818768E+02  0.26361407105E+02  0.00000000000E+00 0.  1.
         22    1    4    4    0    0  0.66545368629E+01  0.68806385170E-01 -0.20376509464E+02  0.21435711630E+02  0.00000000000E+00 0.  1.
<mgrwt>
<rscale>  0 0.89810244E+02</rscale>
<asrwt>0</asrwt>
<pdfrwt beam="1">  1        2 0.65272332E-02 0.89810244E+02</pdfrwt>
<pdfrwt beam="2">  1       -2 0.73119955E-02 0.89810244E+02</pdfrwt>
<totfact> 0.10115531E+05</totfact>
</mgrwt>
</event>
<event>
 7    1  0.3337990E-009  0.9035588E+02  0.7818608E-02  0.1301992E+00
          2   -1    0    0  501    0  0.00000000000E+00  0.00000000000E+00  0.50658580010E+01  0.50658586428E+01  0.25500000000E-02 0. -1.
         -2   -1    0    0    0  501 -0.00000000000E+00 -0.00000000000E+00 -0.40290232423E+03  0.40290232424E+03  0.25500000000E-02 0.  1.
         23    2    1    2    0    0  0.00000000000E+00  0.00000000000E+00 -0.39783646623E+03  0.40796818288E+03  0.90355876298E+02 0.  0.
    9000005    2    3    3    0    0 -0.34374067491E+02 -0.20358600606E+02 -0.28788927126E+03  0.29098769384E+03  0.14055473158E+02 0.  0.
         22    1    3    3    0    0  0.34374067491E+02  0.20358600606E+02 -0.10994719497E+03  0.11698048904E+03  0.00000000000E+00 0. -1.
         22    1    4    4    0    0 -0.22602155121E+02 -0.72483848937E+01 -0.13321643096E+03  0.13531450024E+03  0.00000000000E+00 0. -1.
         22    1    4    4    0    0 -0.11771912370E+02 -0.13110215713E+02 -0.15467284030E+03  0.15567319359E+03  0.00000000000E+00 0. -1.
<mgrwt>
<rscale>  0 0.90355876E+02</rscale>
<asrwt>0</asrwt>
<pdfrwt beam="1">  1        2 0.77936314E-03 0.90355876E+02</pdfrwt>
<pdfrwt beam="2">  1       -2 0.61984948E-01 0.90355876E+02</pdfrwt>
<totfact> 0.43488059E+04</totfact>
</mgrwt>
</event>
<event>
 7    1  0.3337990E-009  0.8996806E+02  0.7818608E-02  0.1302929E+00
          2   -1    0    0  501    0  0.00000000000E+00  0.00000000000E+00  0.11805242879E+02  0.11805243154E+02  0.25500000000E-02 0. -1.
         -2   -1    0    0    0  501 -0.00000000000E+00 -0.00000000000E+00 -0.17141222513E+03  0.17141222515E+03  0.25500000000E-02 0.  1.
         23    2    1    2    0    0 -0.17763568394E-14  0.00000000000E+00 -0.15960698225E+03  0.18321746830E+03  0.89968060489E+02 0.  0.
    9000005    2    3    3    0    0  0.75791109225E+01  0.27977576266E+02 -0.14979435705E+03  0.15261558422E+03  0.36027000507E+01 0.  0.
         22    1    3    3    0    0 -0.75791109225E+01 -0.27977576266E+02 -0.98126252052E+01  0.30601884084E+02  0.00000000000E+00 0. -1.
         22    1    4    4    0    0  0.19219392369E+01  0.12345846480E+02 -0.58397666454E+02  0.59719353840E+02  0.00000000000E+00 0. -1.
         22    1    4    4    0    0  0.56571716855E+01  0.15631729785E+02 -0.91396690594E+02  0.92896230381E+02  0.00000000000E+00 0. -1.
<mgrwt>
<rscale>  0 0.89968060E+02</rscale>
<asrwt>0</asrwt>
<pdfrwt beam="1">  1        2 0.18161914E-02 0.89968060E+02</pdfrwt>
<pdfrwt beam="2">  1       -2 0.26371110E-01 0.89968060E+02</pdfrwt>
<totfact> 0.68708084E+04</totfact>
</mgrwt>
</event>
<event>
 7    1  0.3337990E-009  0.9317760E+02  0.7818608E-02  0.1295334E+00
         -2   -1    0    0    0  501 -0.00000000000E+00  0.00000000000E+00  0.19121184682E+02  0.19121184852E+02  0.25500000000E-02 0.  1.
          2   -1    0    0  501    0  0.00000000000E+00 -0.00000000000E+00 -0.11351368296E+03  0.11351368299E+03  0.25500000000E-02 0. -1.
         23    2    1    2    0    0  0.00000000000E+00  0.00000000000E+00 -0.94392498276E+02  0.13263486784E+03  0.93177596213E+02 0.  0.
    9000005    2    3    3    0    0 -0.44150770681E+01  0.30023224681E+02 -0.97004955198E+02  0.10217650516E+03  0.10449399440E+02 0.  0.
         22    1    3    3    0    0  0.44150770681E+01 -0.30023224681E+02  0.26124569218E+01  0.30458362676E+02  0.00000000000E+00 0.  1.
         22    1    4    4    0    0 -0.48074869048E+01  0.45663252418E+01 -0.20736497570E+02  0.21770750745E+02  0.00000000000E+00 0. -1.
         22    1    4    4    0    0  0.39240983670E+00  0.25456899439E+02 -0.76268457628E+02  0.80405754418E+02  0.00000000000E+00 0. -1.
<mgrwt>
<rscale>  0 0.93177596E+02</rscale>
<asrwt>0</asrwt>
<pdfrwt beam="2">  1        2 0.17463643E-01 0.93177596E+02</pdfrwt>
<pdfrwt beam="1">  1       -2 0.29417208E-02 0.93177596E+02</pdfrwt>
<totfact> 0.12020819E+05</totfact>
</mgrwt>
</event>
<event>
 7    1  0.5066877E-009  0.9059935E+02  0.7818608E-02  0.1301407E+00
         -2   -1    0    0    0  501 -0.00000000000E+00  0.00000000000E+00  0.10291882146E+01  0.10291913737E+01  0.25500000000E-02 0. -1.
          2   -1    0    0  501    0  0.00000000000E+00 -0.00000000000E+00 -0.19938601287E+04  0.19938601287E+04  0.25500000000E-02 0.  1.
         23    2    1    2    0    0  0.17763568394E-14 -0.17763568394E-14 -0.19928309404E+04  0.19948893200E+04  0.90599348754E+02 0.  0.
    9000005    2    3    3    0    0  0.11577233381E+02 -0.10486583041E+02 -0.19306773723E+04  0.19308029190E+04  0.15517589621E+02 0.  0.
         22    1    3    3    0    0 -0.11577233381E+02  0.10486583041E+02 -0.62153568157E+02  0.64086400986E+02  0.00000000000E+00 0. -1.
         22    1    4    4    0    0  0.15093309096E+02 -0.58832234436E+01 -0.14625095921E+04  0.14625993051E+04  0.00000000000E+00 0.  1.
         22    1    4    4    0    0 -0.35160757146E+01 -0.46033595978E+01 -0.46816778021E+03  0.46820361397E+03  0.00000000000E+00 0.  1.
<mgrwt>
<rscale>  0 0.90599349E+02</rscale>
<asrwt>0</asrwt>
<pdfrwt beam="2">  1        2 0.30674462E+00 0.90599349E+02</pdfrwt>
<pdfrwt beam="1">  1       -2 0.15833849E-03 0.90599349E+02</pdfrwt>
<totfact> 0.20071409E+05</totfact>
</mgrwt>
</event>
<event>
 7    1  0.3337990E-009  0.9039944E+02  0.7818608E-02  0.1301887E+00
         -2   -1    0    0    0  501 -0.00000000000E+00  0.00000000000E+00  0.21211077002E+01  0.21211092330E+01  0.25500000000E-02 0.  1.
          2   -1    0    0  501    0  0.00000000000E+00 -0.00000000000E+00 -0.96318255293E+03  0.96318255293E+03  0.25500000000E-02 0. -1.
         23    2    1    2    0    0 -0.17763568394E-14 -0.35527136788E-14 -0.96106144523E+03  0.96530366216E+03  0.90399439625E+02 0.  0.
    9000005    2    3    3    0    0  0.14430360583E+02  0.27155782165E+02 -0.82948496347E+03  0.83018133846E+03  0.14494077845E+02 0.  0.
         22    1    3    3    0    0 -0.14430360583E+02 -0.27155782165E+02 -0.13157648176E+03  0.13512232370E+03  0.00000000000E+00 0.  1.
         22    1    4    4    0    0  0.15544073255E+02  0.20864369934E+02 -0.74541775782E+03  0.74587168724E+03  0.00000000000E+00 0.  1.
         22    1    4    4    0    0 -0.11137126721E+01  0.62914122307E+01 -0.84067205651E+02  0.84309651226E+02  0.00000000000E+00 0.  1.
<mgrwt>
<rscale>  0 0.90399440E+02</rscale>
<asrwt>0</asrwt>
<pdfrwt beam="2">  1        2 0.14818158E+00 0.90399440E+02</pdfrwt>
<pdfrwt beam="1">  1       -2 0.32632515E-03 0.90399440E+02</pdfrwt>
<totfact> 0.25517011E+05</totfact>
</mgrwt>
</event>
<event>
 7    1  0.3337990E-009  0.9030344E+02  0.7818608E-02  0.1302119E+00
          2   -1    0    0  501    0  0.00000000000E+00  0.00000000000E+00  0.38308487506E+03  0.38308487507E+03  0.25500000000E-02 0.  1.
         -2   -1    0    0    0  501 -0.00000000000E+00 -0.00000000000E+00 -0.53217386075E+01  0.53217392184E+01  0.25500000000E-02 0. -1.
         23    2    1    2    0    0  0.00000000000E+00  0.00000000000E+00  0.37776313645E+03  0.38840661429E+03  0.90303437140E+02 0.  0.
    9000005    2    3    3    0    0  0.10704054742E+01 -0.44004086734E+02  0.18503254805E+03  0.19071345527E+03  0.14038260751E+02 0.  0.
         22    1    3    3    0    0 -0.10704054742E+01  0.44004086734E+02  0.19273058840E+03  0.19769315901E+03  0.00000000000E+00 0.  1.
         22    1    4    4    0    0 -0.64246459763E+01 -0.18214314764E+02  0.80841043548E+02  0.83116253887E+02  0.00000000000E+00 0.  1.
         22    1    4    4    0    0  0.74950514505E+01 -0.25789771970E+02  0.10419150451E+03  0.10759720138E+03  0.00000000000E+00 0.  1.
<mgrwt>
<rscale>  0 0.90303437E+02</rscale>
<asrwt>0</asrwt>
<pdfrwt beam="1">  1        2 0.58936163E-01 0.90303437E+02</pdfrwt>
<pdfrwt beam="2">  1       -2 0.81872867E-03 0.90303437E+02</pdfrwt>
<totfact> 0.20163326E+05</totfact>
</mgrwt>
</event>
<event>
 7    1  0.3482522E-009  0.9129562E+02  0.7818608E-02  0.1299744E+00
         -2   -1    0    0    0  501 -0.00000000000E+00  0.00000000000E+00  0.14440288920E+03  0.14440288922E+03  0.25500000000E-02 0.  1.
          2   -1    0    0  501    0  0.00000000000E+00 -0.00000000000E+00 -0.14429922496E+02  0.14429922721E+02  0.25500000000E-02 0. -1.
         23    2    1    2    0    0  0.35527136788E-14  0.00000000000E+00  0.12997296670E+03  0.15883281194E+03  0.91295619149E+02 0.  0.
    9000005    2    3    3    0    0  0.28891347419E+02  0.42515800025E+01  0.85807516225E+01  0.33977472568E+02  0.15101438854E+02 0.  0.
         22    1    3    3    0    0 -0.28891347419E+02 -0.42515800025E+01  0.12139221508E+03  0.12485533937E+03  0.00000000000E+00 0.  1.
         22    1    4    4    0    0  0.20794717972E+02 -0.26782522438E+01  0.11744199753E+01  0.20999347440E+02  0.00000000000E+00 0. -1.
         22    1    4    4    0    0  0.80966294470E+01  0.69298322462E+01  0.74063316472E+01  0.12978125128E+02  0.00000000000E+00 0. -1.
<mgrwt>
<rscale>  0 0.91295619E+02</rscale>
<asrwt>0</asrwt>
<pdfrwt beam="2">  1        2 0.22199881E-02 0.91295619E+02</pdfrwt>
<pdfrwt beam="1">  1       -2 0.22215829E-01 0.91295619E+02</pdfrwt>
<totfact> 0.70587245E+04</totfact>
</mgrwt>
</event>
<event>
 7    1  0.3337990E-009  0.9204681E+02  0.7818608E-02  0.1297969E+00
          2   -1    0    0  501    0  0.00000000000E+00  0.00000000000E+00  0.31362767105E+03  0.31362767106E+03  0.25500000000E-02 0. -1.
         -2   -1    0    0    0  501 -0.00000000000E+00 -0.00000000000E+00 -0.67537208031E+01  0.67537212845E+01  0.25500000000E-02 0.  1.
         23    2    1    2    0    0  0.00000000000E+00  0.00000000000E+00  0.30687395024E+03  0.32038139234E+03  0.92046809942E+02 0.  0.
    9000005    2    3    3    0    0 -0.40814221548E+02  0.10887068636E+01  0.83287634790E+02  0.93097810837E+02  0.79615520253E+01 0.  0.
         22    1    3    3    0    0  0.40814221548E+02 -0.10887068636E+01  0.22358631545E+03  0.22728358150E+03  0.00000000000E+00 0. -1.
         22    1    4    4    0    0 -0.24303150382E+02  0.65290714115E+00  0.58054627017E+02  0.62939726121E+02  0.00000000000E+00 0.  1.
         22    1    4    4    0    0 -0.16511071166E+02  0.43579972242E+00  0.25233007773E+02  0.30158084716E+02  0.00000000000E+00 0.  1.
<mgrwt>
<rscale>  0 0.92046810E+02</rscale>
<asrwt>0</asrwt>
<pdfrwt beam="1">  1        2 0.48250409E-01 0.92046810E+02</pdfrwt>
<pdfrwt beam="2">  1       -2 0.10390341E-02 0.92046810E+02</pdfrwt>
<totfact> 0.17808110E+05</totfact>
</mgrwt>
</event>
<event>
 7    1  0.3337990E-009  0.9429147E+02  0.7818608E-02  0.1292780E+00
          2   -1    0    0  501    0  0.00000000000E+00  0.00000000000E+00  0.22089874704E+03  0.22089874705E+03  0.25500000000E-02 0. -1.
         -2   -1    0    0    0  501 -0.00000000000E+00 -0.00000000000E+00 -0.10062167918E+02  0.10062168242E+02  0.25500000000E-02 0.  1.
         23    2    1    2    0    0  0.71054273576E-14  0.00000000000E+00  0.21083657912E+03  0.23096091529E+03  0.94291469915E+02 0.  0.
    9000005    2    3    3    0    0  0.44365765085E+02  0.15876332555E+02  0.10660777012E+03  0.11657549808E+03  0.20618085578E+01 0.  0.
         22    1    3    3    0    0 -0.44365765085E+02 -0.15876332555E+02  0.10422880900E+03  0.11438541722E+03  0.00000000000E+00 0.  1.
         22    1    4    4    0    0  0.60525687160E+01  0.15475766995E+01  0.13192703974E+02  0.14597123684E+02  0.00000000000E+00 0.  1.
         22    1    4    4    0    0  0.38313196369E+02  0.14328755856E+02  0.93415066149E+02  0.10197837439E+03  0.00000000000E+00 0.  1.
<mgrwt>
<rscale>  0 0.94291470E+02</rscale>
<asrwt>0</asrwt>
<pdfrwt beam="1">  1        2 0.33984422E-01 0.94291470E+02</pdfrwt>
<pdfrwt beam="2">  1       -2 0.15480259E-02 0.94291470E+02</pdfrwt>
<totfact> 0.14650877E+05</totfact>
</mgrwt>
</event>
<event>
 7    1  0.3337990E-009  0.9797757E+02  0.7818608E-02  0.1284607E+00
         -2   -1    0    0    0  501 -0.00000000000E+00  0.00000000000E+00  0.10357993047E+03  0.10357993050E+03  0.25500000000E-02 0.  1.
          2   -1    0    0  501    0  0.00000000000E+00 -0.00000000000E+00 -0.23169557641E+02  0.23169557781E+02  0.25500000000E-02 0. -1.
         23    2    1    2    0    0  0.00000000000E+00  0.00000000000E+00  0.80410372828E+02  0.12674948828E+03  0.97977572543E+02 0.  0.
    9000005    2    3    3    0    0  0.21046124741E+02 -0.42414665400E+02  0.30522544653E+02  0.57969123295E+02  0.13669320242E+02 0.  0.
         22    1    3    3    0    0 -0.21046124741E+02  0.42414665400E+02  0.49887828175E+02  0.68780364987E+02  0.00000000000E+00 0. -1.
         22    1    4    4    0    0  0.18531581893E+02 -0.22568672224E+02  0.19685841839E+02  0.35217848632E+02  0.00000000000E+00 0. -1.
         22    1    4    4    0    0  0.25145428486E+01 -0.19845993177E+02  0.10836702814E+02  0.22751274663E+02  0.00000000000E+00 0. -1.
<mgrwt>
<rscale>  0 0.97977573E+02</rscale>
<asrwt>0</asrwt>
<pdfrwt beam="2">  1        2 0.35645473E-02 0.97977573E+02</pdfrwt>
<pdfrwt beam="1">  1       -2 0.15935374E-01 0.97977573E+02</pdfrwt>
<totfact> 0.66004215E+04</totfact>
</mgrwt>
</event>
<event>
 7    1  0.3685007E-009  0.9568733E+02  0.7818608E-02  0.1289636E+00
         -2   -1    0    0    0  501 -0.00000000000E+00  0.00000000000E+00  0.68863286198E+01  0.68863290919E+01  0.25500000000E-02 0.  1.
          2   -1    0    0  501    0  0.00000000000E+00 -0.00000000000E+00 -0.33240008572E+03  0.33240008573E+03  0.25500000000E-02 0. -1.
         23    2    1    2    0    0  0.00000000000E+00  0.00000000000E+00 -0.32551375710E+03  0.33928641483E+03  0.95687330516E+02 0.  0.
    9000005    2    3    3    0    0  0.46115120301E+02  0.65579596600E+01 -0.14996251090E+03  0.15766083513E+03  0.14091596922E+02 0.  0.
         22    1    3    3    0    0 -0.46115120301E+02 -0.65579596600E+01 -0.17555124621E+03  0.18162557970E+03  0.00000000000E+00 0. -1.
         22    1    4    4    0    0  0.23787395975E+01 -0.20716654777E+00 -0.16924789762E+01  0.29267396769E+01  0.00000000000E+00 0. -1.
         22    1    4    4    0    0  0.43736380703E+02  0.67651262078E+01 -0.14827003192E+03  0.15473409545E+03  0.00000000000E+00 0. -1.
<mgrwt>
<rscale>  0 0.95687331E+02</rscale>
<asrwt>0</asrwt>
<pdfrwt beam="2">  1        2 0.51138462E-01 0.95687331E+02</pdfrwt>
<pdfrwt beam="1">  1       -2 0.10594355E-02 0.95687331E+02</pdfrwt>
<totfact> 0.16403900E+05</totfact>
</mgrwt>
</event>
<event>
 7    1  0.3337990E-009  0.8381679E+02  0.7818608E-02  0.1318556E+00
          2   -1    0    0  501    0  0.00000000000E+00  0.00000000000E+00  0.11107045347E+03  0.11107045350E+03  0.25500000000E-02 0. -1.
         -2   -1    0    0    0  501 -0.00000000000E+00 -0.00000000000E+00 -0.15812607641E+02  0.15812607847E+02  0.25500000000E-02 0.  1.
         23    2    1    2    0    0 -0.71054273576E-14  0.00000000000E+00  0.95257845832E+02  0.12688306135E+03  0.83816788682E+02 0.  0.
    9000005    2    3    3    0    0 -0.34227221890E+02 -0.22295301963E+02  0.54184749248E+02  0.68955671705E+02  0.12260277377E+02 0.  0.
         22    1    3    3    0    0  0.34227221890E+02  0.22295301963E+02  0.41073096584E+02  0.57927389644E+02  0.00000000000E+00 0. -1.
         22    1    4    4    0    0 -0.24659635060E+01 -0.43876621063E+00  0.63212298878E-01  0.25054914877E+01  0.00000000000E+00 0. -1.
         22    1    4    4    0    0 -0.31761258384E+02 -0.21856535753E+02  0.54121536949E+02  0.66450180218E+02  0.00000000000E+00 0. -1.
<mgrwt>
<rscale>  0 0.83816789E+02</rscale>
<asrwt>0</asrwt>
<pdfrwt beam="1">  1        2 0.17087762E-01 0.83816789E+02</pdfrwt>
<pdfrwt beam="2">  1       -2 0.24327089E-02 0.83816789E+02</pdfrwt>
<totfact> 0.15937050E+05</totfact>
</mgrwt>
</event>
<event>
 7    1  0.3337990E-009  0.9185395E+02  0.7818608E-02  0.1298423E+00
          2   -1    0    0  501    0  0.00000000000E+00  0.00000000000E+00  0.18057672502E+03  0.18057672504E+03  0.25500000000E-02 0. -1.
         -2   -1    0    0    0  501 -0.00000000000E+00 -0.00000000000E+00 -0.11680835670E+02  0.11680835948E+02  0.25500000000E-02 0.  1.
         23    2    1    2    0    0 -0.44408920985E-15 -0.35527136788E-14  0.16889588935E+03  0.19225756099E+03  0.91853951015E+02 0.  0.
    9000005    2    3    3    0    0  0.21318135338E+01  0.31609198189E+02  0.15132498100E+02  0.35264355630E+02  0.33009453484E+01 0.  0.
         22    1    3    3    0    0 -0.21318135338E+01 -0.31609198189E+02  0.15376339125E+03  0.15699320535E+03  0.00000000000E+00 0. -1.
         22    1    4    4    0    0  0.27107884242E+01  0.30224002434E+02  0.14560054969E+02  0.33657597920E+02  0.00000000000E+00 0.  1.
         22    1    4    4    0    0 -0.57897489042E+00  0.13851957551E+01  0.57244313035E+00  0.16067577108E+01  0.00000000000E+00 0.  1.
<mgrwt>
<rscale>  0 0.91853951E+02</rscale>
<asrwt>0</asrwt>
<pdfrwt beam="1">  1        2 0.27781033E-01 0.91853951E+02</pdfrwt>
<pdfrwt beam="2">  1       -2 0.17970517E-02 0.91853951E+02</pdfrwt>
<totfact> 0.14616337E+05</totfact>
</mgrwt>
</event>
<event>
 7    1  0.3337990E-009  0.9190918E+02  0.7818608E-02  0.1298293E+00
          2   -1    0    0  501    0  0.00000000000E+00  0.00000000000E+00  0.45638430555E+02  0.45638430627E+02  0.25500000000E-02 0. -1.
         -2   -1    0    0    0  501 -0.00000000000E+00 -0.00000000000E+00 -0.46272936540E+02  0.46272936610E+02  0.25500000000E-02 0.  1.
         23    2    1    2    0    0  0.00000000000E+00  0.00000000000E+00 -0.63450598439E+00  0.91911367236E+02  0.91909177069E+02 0.  0.
    9000005    2    3    3    0    0  0.22982777942E+02  0.18864647650E+02  0.34369426419E+02  0.45983616403E+02  0.70108838434E+01 0.  0.
         22    1    3    3    0    0 -0.22982777942E+02 -0.18864647650E+02 -0.35003932403E+02  0.45927750833E+02  0.00000000000E+00 0.  1.
         22    1    4    4    0    0  0.83540694087E+01  0.28531989382E+01  0.89874536888E+01  0.12597838849E+02  0.00000000000E+00 0.  1.
         22    1    4    4    0    0  0.14628708533E+02  0.16011448712E+02  0.25381972730E+02  0.33385777554E+02  0.00000000000E+00 0.  1.
<mgrwt>
<rscale>  0 0.91909177E+02</rscale>
<asrwt>0</asrwt>
<pdfrwt beam="1">  1        2 0.70212970E-02 0.91909177E+02</pdfrwt>
<pdfrwt beam="2">  1       -2 0.71189134E-02 0.91909177E+02</pdfrwt>
<totfact> 0.96458713E+04</totfact>
</mgrwt>
</event>
<event>
 7    1  0.3337990E-009  0.9199541E+02  0.7818608E-02  0.1298090E+00
         -2   -1    0    0    0  501 -0.00000000000E+00  0.00000000000E+00  0.69425617662E+01  0.69425622346E+01  0.25500000000E-02 0. -1.
          2   -1    0    0  501    0  0.00000000000E+00 -0.00000000000E+00 -0.30475621684E+03  0.30475621685E+03  0.25500000000E-02 0.  1.
         23    2    1    2    0    0 -0.71054273576E-14  0.00000000000E+00 -0.29781365507E+03  0.31169877908E+03  0.91995411487E+02 0.  0.
    9000005    2    3    3    0    0 -0.37854422880E+02  0.17795327688E+02 -0.86141298470E+02  0.95933124800E+02  0.57628215873E+01 0.  0.
         22    1    3    3    0    0  0.37854422880E+02 -0.17795327688E+02 -0.21167235660E+03  0.21576565428E+03  0.00000000000E+00 0.  1.
         22    1    4    4    0    0 -0.66743378413E+01  0.12205307897E+01 -0.11319384178E+02  0.13197156482E+02  0.00000000000E+00 0. -1.
         22    1    4    4    0    0 -0.31180085038E+02  0.16574796899E+02 -0.74821914292E+02  0.82735968318E+02  0.00000000000E+00 0. -1.
<mgrwt>
<rscale>  0 0.91995411E+02</rscale>
<asrwt>0</asrwt>
<pdfrwt beam="2">  1        2 0.46885562E-01 0.91995411E+02</pdfrwt>
<pdfrwt beam="1">  1       -2 0.10680867E-02 0.91995411E+02</pdfrwt>
<totfact> 0.17645289E+05</totfact>
</mgrwt>
</event>
<event>
 7    1  0.3337990E-009  0.8793261E+02  0.7818608E-02  0.1307937E+00
          2   -1    0    0  501    0  0.00000000000E+00  0.00000000000E+00  0.32523630658E+03  0.32523630659E+03  0.25500000000E-02 0. -1.
         -2   -1    0    0    0  501 -0.00000000000E+00 -0.00000000000E+00 -0.59434815547E+01  0.59434821017E+01  0.25500000000E-02 0.  1.
         23    2    1    2    0    0  0.00000000000E+00  0.00000000000E+00  0.31929282503E+03  0.33117978869E+03  0.87932612410E+02 0.  0.
    9000005    2    3    3    0    0  0.56984466539E+01 -0.34508545117E+02  0.25660909788E+03  0.25939844272E+03  0.14697312395E+02 0.  0.
         22    1    3    3    0    0 -0.56984466539E+01  0.34508545117E+02  0.62683727146E+02  0.71781345970E+02  0.00000000000E+00 0.  1.
         22    1    4    4    0    0 -0.12660744837E+01 -0.40434588163E+01  0.10649084244E+02  0.11461042668E+02  0.00000000000E+00 0. -1.
         22    1    4    4    0    0  0.69645211377E+01 -0.30465086301E+02  0.24596001364E+03  0.24793740006E+03  0.00000000000E+00 0. -1.
<mgrwt>
<rscale>  0 0.87932612E+02</rscale>
<asrwt>0</asrwt>
<pdfrwt beam="1">  1        2 0.50036352E-01 0.87932612E+02</pdfrwt>
<pdfrwt beam="2">  1       -2 0.91438188E-03 0.87932612E+02</pdfrwt>
<totfact> 0.20383916E+05</totfact>
</mgrwt>
</event>
<event>
 7    1  0.3337990E-009  0.8792604E+02  0.7818608E-02  0.1307953E+00
          2   -1    0    0  501    0  0.00000000000E+00  0.00000000000E+00  0.26855122045E+02  0.26855122166E+02  0.25500000000E-02 0. -1.
         -2   -1    0    0    0  501 -0.00000000000E+00 -0.00000000000E+00 -0.71969411060E+02  0.71969411105E+02  0.25500000000E-02 0.  1.
         23    2    1    2    0    0  0.35527136788E-14  0.00000000000E+00 -0.45114289015E+02  0.98824533271E+02  0.87926044509E+02 0.  0.
    9000005    2    3    3    0    0 -0.27016901139E+02 -0.18589463606E+01 -0.61446443869E+02  0.67200050495E+02  0.26101137224E+01 0.  0.
         22    1    3    3    0    0  0.27016901139E+02  0.18589463606E+01  0.16332154853E+02  0.31624482777E+02  0.00000000000E+00 0. -1.
         22    1    4    4    0    0 -0.24492447577E+02 -0.15085336701E+01 -0.53601224340E+02  0.58951224864E+02  0.00000000000E+00 0.  1.
         22    1    4    4    0    0 -0.25244535616E+01 -0.35041269051E+00 -0.78452195287E+01  0.82488256310E+01  0.00000000000E+00 0.  1.
<mgrwt>
<rscale>  0 0.87926045E+02</rscale>
<asrwt>0</asrwt>
<pdfrwt beam="1">  1        2 0.41315573E-02 0.87926045E+02</pdfrwt>
<pdfrwt beam="2">  1       -2 0.11072217E-01 0.87926045E+02</pdfrwt>
<totfact> 0.95677665E+04</totfact>
</mgrwt>
</event>
<event>
 7    1  0.3337990E-009  0.9117411E+02  0.7818608E-02  0.1300033E+00
         -2   -1    0    0    0  501 -0.00000000000E+00  0.00000000000E+00  0.33875862534E+03  0.33875862535E+03  0.25500000000E-02 0. -1.
          2   -1    0    0  501    0  0.00000000000E+00 -0.00000000000E+00 -0.61346908550E+01  0.61346913849E+01  0.25500000000E-02 0.  1.
         23    2    1    2    0    0  0.00000000000E+00  0.71054273576E-14  0.33262393449E+03  0.34489331673E+03  0.91174108912E+02 0.  0.
    9000005    2    3    3    0    0 -0.25107156937E+02  0.37666498424E+02  0.16209635698E+03  0.16845979066E+03  0.73714103426E+01 0.  0.
         22    1    3    3    0    0  0.25107156937E+02 -0.37666498424E+02  0.17052757751E+03  0.17643352607E+03  0.00000000000E+00 0. -1.
         22    1    4    4    0    0 -0.24145118078E+02  0.37821828274E+02  0.15926304955E+03  0.16546358020E+03  0.00000000000E+00 0.  1.
         22    1    4    4    0    0 -0.96203885905E+00 -0.15532985015E+00  0.28333074338E+01  0.29962104637E+01  0.00000000000E+00 0.  1.
<mgrwt>
<rscale>  0 0.91174109E+02</rscale>
<asrwt>0</asrwt>
<pdfrwt beam="2">  1        2 0.94379860E-03 0.91174109E+02</pdfrwt>
<pdfrwt beam="1">  1       -2 0.52116714E-01 0.91174109E+02</pdfrwt>
<totfact> 0.47504315E+04</totfact>
</mgrwt>
</event>
<event>
 7    1  0.3337990E-009  0.9094442E+02  0.7818608E-02  0.1300581E+00
         -2   -1    0    0    0  501 -0.00000000000E+00  0.00000000000E+00  0.67351767425E+02  0.67351767473E+02  0.25500000000E-02 0.  1.
          2   -1    0    0  501    0  0.00000000000E+00 -0.00000000000E+00 -0.30700334954E+02  0.30700335060E+02  0.25500000000E-02 0. -1.
         23    2    1    2    0    0  0.22204460493E-15  0.00000000000E+00  0.36651432471E+02  0.98052102533E+02  0.90944418789E+02 0.  0.
    9000005    2    3    3    0    0  0.16895710314E+01 -0.23811429728E+02 -0.23326852255E+02  0.33497989770E+02  0.28520951168E+01 0.  0.
         22    1    3    3    0    0 -0.16895710314E+01  0.23811429728E+02  0.59978284725E+02  0.64554112763E+02  0.00000000000E+00 0.  1.
         22    1    4    4    0    0  0.32470733716E+00 -0.76603059934E+01 -0.93802660472E+01  0.12115077956E+02  0.00000000000E+00 0.  1.
         22    1    4    4    0    0  0.13648636942E+01 -0.16151123735E+02 -0.13946586207E+02  0.21382911814E+02  0.00000000000E+00 0.  1.
<mgrwt>
<rscale>  0 0.90944419E+02</rscale>
<asrwt>0</asrwt>
<pdfrwt beam="2">  1        2 0.47231285E-02 0.90944419E+02</pdfrwt>
<pdfrwt beam="1">  1       -2 0.10361810E-01 0.90944419E+02</pdfrwt>
<totfact> 0.89686985E+04</totfact>
</mgrwt>
</event>
<event>
 7    1  0.3337990E-009  0.9091228E+02  0.7818608E-02  0.1300657E+00
          2   -1    0    0  501    0  0.00000000000E+00  0.00000000000E+00  0.30358364310E+03  0.30358364311E+03  0.25500000000E-02 0.  1.
         -2   -1    0    0    0  501 -0.00000000000E+00 -0.00000000000E+00 -0.68062311837E+01  0.68062316613E+01  0.25500000000E-02 0. -1.
         23    2    1    2    0    0  0.00000000000E+00  0.00000000000E+00  0.29677741191E+03  0.31038987477E+03  0.90912277153E+02 0.  0.
    9000005    2    3    3    0    0 -0.16530251502E+02 -0.13561773542E+00  0.29272743370E+03  0.29337018234E+03  0.10170832663E+02 0.  0.
         22    1    3    3    0    0  0.16530251502E+02  0.13561773542E+00  0.40499782105E+01  0.17019692429E+02  0.00000000000E+00 0. -1.
         22    1    4    4    0    0 -0.64817294775E+01  0.41526024720E+01  0.82266436441E+02  0.82625804015E+02  0.00000000000E+00 0. -1.
         22    1    4    4    0    0 -0.10048522024E+02 -0.42882202075E+01  0.21046099726E+03  0.21074437832E+03  0.00000000000E+00 0. -1.
<mgrwt>
<rscale>  0 0.90912277E+02</rscale>
<asrwt>0</asrwt>
<pdfrwt beam="1">  1        2 0.46705184E-01 0.90912277E+02</pdfrwt>
<pdfrwt beam="2">  1       -2 0.10471123E-02 0.90912277E+02</pdfrwt>
<totfact> 0.18186021E+05</totfact>
</mgrwt>
</event>
<event>
 7    1  0.3337990E-009  0.9023478E+02  0.7818608E-02  0.1302284E+00
         -2   -1    0    0    0  501 -0.00000000000E+00  0.00000000000E+00  0.16227494334E+03  0.16227494336E+03  0.25500000000E-02 0.  1.
          2   -1    0    0  501    0  0.00000000000E+00 -0.00000000000E+00 -0.12544011887E+02  0.12544012146E+02  0.25500000000E-02 0. -1.
         23    2    1    2    0    0  0.00000000000E+00  0.71054273576E-14  0.14973093145E+03  0.17481895551E+03  0.90234779162E+02 0.  0.
    9000005    2    3    3    0    0 -0.14918645244E+02  0.41430407905E+02  0.67524869201E+02  0.81561884213E+02  0.12397109367E+02 0.  0.
         22    1    3    3    0    0  0.14918645244E+02 -0.41430407905E+02  0.82206062252E+02  0.93257071293E+02  0.00000000000E+00 0. -1.
         22    1    4    4    0    0 -0.10497954929E+02  0.31731931456E+02  0.59407539226E+02  0.68164347342E+02  0.00000000000E+00 0. -1.
         22    1    4    4    0    0 -0.44206903153E+01  0.96984764491E+01  0.81173299747E+01  0.13397536871E+02  0.00000000000E+00 0. -1.
<mgrwt>
<rscale>  0 0.90234779E+02</rscale>
<asrwt>0</asrwt>
<pdfrwt beam="2">  1        2 0.19298482E-02 0.90234779E+02</pdfrwt>
<pdfrwt beam="1">  1       -2 0.24965374E-01 0.90234779E+02</pdfrwt>
<totfact> 0.69651334E+04</totfact>
</mgrwt>
</event>
<event>
 7    1  0.3337990E-009  0.9168546E+02  0.7818608E-02  0.1298821E+00
          2   -1    0    0  501    0  0.00000000000E+00  0.00000000000E+00  0.65936815756E+02  0.65936815806E+02  0.25500000000E-02 0. -1.
         -2   -1    0    0    0  501 -0.00000000000E+00 -0.00000000000E+00 -0.31872265042E+02  0.31872265144E+02  0.25500000000E-02 0.  1.
         23    2    1    2    0    0 -0.55511151231E-16  0.00000000000E+00  0.34064550714E+02  0.97809080950E+02  0.91685455231E+02 0.  0.
    9000005    2    3    3    0    0  0.47771125326E+00  0.40008427565E+02  0.38219531692E+02  0.57582642490E+02  0.15941318300E+02 0.  0.
         22    1    3    3    0    0 -0.47771125326E+00 -0.40008427565E+02 -0.41549809777E+01  0.40226438460E+02  0.00000000000E+00 0.  1.
         22    1    4    4    0    0 -0.11724429553E+01  0.26974907515E+02  0.34727574094E+02  0.43988915199E+02  0.00000000000E+00 0.  1.
         22    1    4    4    0    0  0.16501542086E+01  0.13033520050E+02  0.34919575977E+01  0.13593727291E+02  0.00000000000E+00 0.  1.
<mgrwt>
<rscale>  0 0.91685455E+02</rscale>
<asrwt>0</asrwt>
<pdfrwt beam="1">  1        2 0.10144125E-01 0.91685455E+02</pdfrwt>
<pdfrwt beam="2">  1       -2 0.49034254E-02 0.91685455E+02</pdfrwt>
<totfact> 0.10712617E+05</totfact>
</mgrwt>
</event>
<event>
 7    1  0.3337990E-009  0.8497629E+02  0.7818608E-02  0.1315495E+00
          2   -1    0    0  501    0  0.00000000000E+00  0.00000000000E+00  0.15357889724E+02  0.15357889936E+02  0.25500000000E-02 0.  1.
         -2   -1    0    0    0  501 -0.00000000000E+00 -0.00000000000E+00 -0.11754495902E+03  0.11754495904E+03  0.25500000000E-02 0. -1.
         23    2    1    2    0    0  0.00000000000E+00  0.00000000000E+00 -0.10218706929E+03  0.13290284898E+03  0.84976291614E+02 0.  0.
    9000005    2    3    3    0    0 -0.16099310454E+02 -0.71439888349E+00 -0.11234406889E+03  0.11385389091E+03  0.90454683781E+01 0.  0.
         22    1    3    3    0    0  0.16099310454E+02  0.71439888349E+00  0.10156999594E+02  0.19048958072E+02  0.00000000000E+00 0.  1.
         22    1    4    4    0    0 -0.13107150958E+02 -0.33830571650E+00 -0.10623467026E+03  0.10704072599E+03  0.00000000000E+00 0. -1.
         22    1    4    4    0    0 -0.29921594962E+01 -0.37609316700E+00 -0.61093986296E+01  0.68131649134E+01  0.00000000000E+00 0. -1.
<mgrwt>
<rscale>  0 0.84976292E+02</rscale>
<asrwt>0</asrwt>
<pdfrwt beam="1">  1        2 0.23627524E-02 0.84976292E+02</pdfrwt>
<pdfrwt beam="2">  1       -2 0.18083839E-01 0.84976292E+02</pdfrwt>
<totfact> 0.90572226E+04</totfact>
</mgrwt>
</event>
<event>
 7    1  0.3337990E-009  0.8400794E+02  0.7818608E-02  0.1318047E+00
         -2   -1    0    0    0  501 -0.00000000000E+00  0.00000000000E+00  0.12521693979E+02  0.12521694238E+02  0.25500000000E-02 0.  1.
          2   -1    0    0  501    0  0.00000000000E+00 -0.00000000000E+00 -0.14090215195E+03  0.14090215197E+03  0.25500000000E-02 0. -1.
         23    2    1    2    0    0  0.00000000000E+00  0.00000000000E+00 -0.12838045797E+03  0.15342384621E+03  0.84007943655E+02 0.  0.
    9000005    2    3    3    0    0  0.11979590533E+02  0.13942299790E+02 -0.13269901547E+03  0.13454136089E+03  0.12427822502E+02 0.  0.
         22    1    3    3    0    0 -0.11979590533E+02 -0.13942299790E+02  0.43185574999E+01  0.18882485315E+02  0.00000000000E+00 0.  1.
         22    1    4    4    0    0  0.67601636889E+01  0.48849548043E+00 -0.25914945051E+02  0.26786616396E+02  0.00000000000E+00 0.  1.
         22    1    4    4    0    0  0.52194268445E+01  0.13453804309E+02 -0.10678407042E+03  0.10775474450E+03  0.00000000000E+00 0.  1.
<mgrwt>
<rscale>  0 0.84007944E+02</rscale>
<asrwt>0</asrwt>
<pdfrwt beam="2">  1        2 0.21677253E-01 0.84007944E+02</pdfrwt>
<pdfrwt beam="1">  1       -2 0.19264146E-02 0.84007944E+02</pdfrwt>
<totfact> 0.17080414E+05</totfact>
</mgrwt>
</event>
<event>
 7    1  0.3337990E-009  0.6586537E+02  0.7818608E-02  0.1374746E+00
          2   -1    0    0  501    0  0.00000000000E+00  0.00000000000E+00  0.11117939570E+03  0.11117939573E+03  0.25500000000E-02 0. -1.
         -2   -1    0    0    0  501 -0.00000000000E+00 -0.00000000000E+00 -0.97550591710E+01  0.97550595043E+01  0.25500000000E-02 0.  1.
         23    2    1    2    0    0  0.00000000000E+00  0.00000000000E+00  0.10142433653E+03  0.12093445524E+03  0.65865365880E+02 0.  0.
    9000005    2    3    3    0    0  0.18692388631E+02 -0.57334372029E+01  0.32747794382E+01  0.20856419422E+02  0.64798422689E+01 0.  0.
         22    1    3    3    0    0 -0.18692388631E+02  0.57334372029E+01  0.98149557095E+02  0.10007803582E+03  0.00000000000E+00 0. -1.
         22    1    4    4    0    0  0.71725087684E+01 -0.20268875666E+01 -0.19049686730E+01  0.76929877737E+01  0.00000000000E+00 0.  1.
         22    1    4    4    0    0  0.11519879862E+02 -0.37065496363E+01  0.51797481112E+01  0.13163431648E+02  0.00000000000E+00 0.  1.
<mgrwt>
<rscale>  0 0.65865366E+02</rscale>
<asrwt>0</asrwt>
<pdfrwt beam="1">  1        2 0.17104522E-01 0.65865366E+02</pdfrwt>
<pdfrwt beam="2">  1       -2 0.15007784E-02 0.65865366E+02</pdfrwt>
<totfact> 0.30297472E+05</totfact>
</mgrwt>
</event>
<event>
 7    1  0.3337990E-009  0.8948724E+02  0.7818608E-02  0.1304098E+00
         -2   -1    0    0    0  501 -0.00000000000E+00  0.00000000000E+00  0.80570826728E+01  0.80570830763E+01  0.25500000000E-02 0.  1.
          2   -1    0    0  501    0  0.00000000000E+00 -0.00000000000E+00 -0.24847598710E+03  0.24847598711E+03  0.25500000000E-02 0. -1.
         23    2    1    2    0    0  0.00000000000E+00  0.00000000000E+00 -0.24041890442E+03  0.25653307019E+03  0.89487242078E+02 0.  0.
    9000005    2    3    3    0    0 -0.42698547905E+02  0.35872396625E+01 -0.15189948405E+03  0.15818815641E+03  0.10677326129E+02 0.  0.
         22    1    3    3    0    0  0.42698547905E+02 -0.35872396625E+01 -0.88519420377E+02  0.98344913775E+02  0.00000000000E+00 0.  1.
         22    1    4    4    0    0 -0.63397205557E+01  0.37344284877E+01 -0.34990413557E+02  0.35755657646E+02  0.00000000000E+00 0.  1.
         22    1    4    4    0    0 -0.36358827350E+02 -0.14718882521E+00 -0.11690907049E+03  0.12243249877E+03  0.00000000000E+00 0.  1.
<mgrwt>
<rscale>  0 0.89487242E+02</rscale>
<asrwt>0</asrwt>
<pdfrwt beam="2">  1        2 0.38227069E-01 0.89487242E+02</pdfrwt>
<pdfrwt beam="1">  1       -2 0.12395514E-02 0.89487242E+02</pdfrwt>
<totfact> 0.17607083E+05</totfact>
</mgrwt>
</event>
<event>
 7    1  0.3337990E-009  0.9101079E+02  0.7818608E-02  0.1300422E+00
          2   -1    0    0  501    0  0.00000000000E+00  0.00000000000E+00  0.55087811694E+02  0.55087811753E+02  0.25500000000E-02 0.  1.
         -2   -1    0    0    0  501 -0.00000000000E+00 -0.00000000000E+00 -0.37589822396E+02  0.37589822483E+02  0.25500000000E-02 0. -1.
         23    2    1    2    0    0  0.00000000000E+00  0.00000000000E+00  0.17497989297E+02  0.92677634236E+02  0.91010791987E+02 0.  0.
    9000005    2    3    3    0    0 -0.26461732130E+02  0.33898481405E+01 -0.27092505972E+02  0.40715853992E+02  0.14562367553E+02 0.  0.
         22    1    3    3    0    0  0.26461732130E+02 -0.33898481405E+01  0.44590495269E+02  0.51961780244E+02  0.00000000000E+00 0.  1.
         22    1    4    4    0    0 -0.37546379501E+01  0.31802012650E+01  0.53974986068E+00  0.49499814276E+01  0.00000000000E+00 0. -1.
         22    1    4    4    0    0 -0.22707094180E+02  0.20964687553E+00 -0.27632255832E+02  0.35765872565E+02  0.00000000000E+00 0. -1.
<mgrwt>
<rscale>  0 0.91010792E+02</rscale>
<asrwt>0</asrwt>
<pdfrwt beam="1">  1        2 0.84750480E-02 0.91010792E+02</pdfrwt>
<pdfrwt beam="2">  1       -2 0.57830496E-02 0.91010792E+02</pdfrwt>
<totfact> 0.10422174E+05</totfact>
</mgrwt>
</event>
<event>
 7    1  0.3337990E-009  0.9107164E+02  0.7818608E-02  0.1300277E+00
          2   -1    0    0  501    0  0.00000000000E+00  0.00000000000E+00  0.20172016320E+04  0.20172016320E+04  0.25500000000E-02 0. -1.
         -2   -1    0    0    0  501 -0.00000000000E+00 -0.00000000000E+00 -0.10279129570E+01  0.10279161199E+01  0.25500000000E-02 0.  1.
         23    2    1    2    0    0  0.88817841970E-15  0.00000000000E+00  0.20161737190E+04  0.20182295481E+04  0.91071639664E+02 0.  0.
    9000005    2    3    3    0    0  0.71370346316E+01 -0.89012987399E+01  0.19841111731E+04  0.19841975450E+04  0.14580125436E+02 0.  0.
         22    1    3    3    0    0 -0.71370346316E+01  0.89012987399E+01  0.32062545888E+02  0.34032003047E+02  0.00000000000E+00 0.  1.
         22    1    4    4    0    0  0.69143922139E+01 -0.84106634657E+01  0.68711236486E+03  0.68719862487E+03  0.00000000000E+00 0. -1.
         22    1    4    4    0    0  0.22264241768E+00 -0.49063527421E+00  0.12969988083E+04  0.12969989202E+04  0.00000000000E+00 0. -1.
<mgrwt>
<rscale>  0 0.91071640E+02</rscale>
<asrwt>0</asrwt>
<pdfrwt beam="1">  1        2 0.31033616E+00 0.91071640E+02</pdfrwt>
<pdfrwt beam="2">  1       -2 0.15814200E-03 0.91071640E+02</pdfrwt>
<totfact> 0.19581948E+05</totfact>
</mgrwt>
</event>
<event>
 7    1  0.3337990E-009  0.9068505E+02  0.7818608E-02  0.1301201E+00
          2   -1    0    0  501    0  0.00000000000E+00  0.00000000000E+00  0.55896804310E+03  0.55896804310E+03  0.25500000000E-02 0. -1.
         -2   -1    0    0    0  501 -0.00000000000E+00 -0.00000000000E+00 -0.36781070378E+01  0.36781079217E+01  0.25500000000E-02 0.  1.
         23    2    1    2    0    0  0.00000000000E+00 -0.17763568394E-14  0.55528993606E+03  0.56264615102E+03  0.90685049342E+02 0.  0.
    9000005    2    3    3    0    0 -0.40963506835E+02  0.14202986962E+02  0.33088790091E+03  0.33409417201E+03  0.15886443079E+02 0.  0.
         22    1    3    3    0    0  0.40963506835E+02 -0.14202986962E+02  0.22440203515E+03  0.22855197901E+03  0.00000000000E+00 0. -1.
         22    1    4    4    0    0 -0.29844005837E+02  0.43036627338E+01  0.25352778086E+03  0.25531455475E+03  0.00000000000E+00 0.  1.
         22    1    4    4    0    0 -0.11119500998E+02  0.98993242284E+01  0.77360120048E+02  0.78779617265E+02  0.00000000000E+00 0.  1.
<mgrwt>
<rscale>  0 0.90685049E+02</rscale>
<asrwt>0</asrwt>
<pdfrwt beam="1">  1        2 0.85995019E-01 0.90685049E+02</pdfrwt>
<pdfrwt beam="2">  1       -2 0.56586311E-03 0.90685049E+02</pdfrwt>
<totfact> 0.22638184E+05</totfact>
</mgrwt>
</event>
<event>
 7    1  0.3337990E-009  0.9202719E+02  0.7818608E-02  0.1298016E+00
          2   -1    0    0  501    0  0.00000000000E+00  0.00000000000E+00  0.26663270990E+03  0.26663270992E+03  0.25500000000E-02 0.  1.
         -2   -1    0    0    0  501 -0.00000000000E+00 -0.00000000000E+00 -0.79407026224E+01  0.79407030318E+01  0.25500000000E-02 0. -1.
         23    2    1    2    0    0  0.00000000000E+00  0.00000000000E+00  0.25869200728E+03  0.27457341295E+03  0.92027194168E+02 0.  0.
    9000005    2    3    3    0    0  0.23848796894E+02 -0.30059704038E+02  0.55330637827E+02  0.67623666617E+02  0.62553884114E+01 0.  0.
         22    1    3    3    0    0 -0.23848796894E+02  0.30059704038E+02  0.20336136945E+03  0.20694974633E+03  0.00000000000E+00 0.  1.
         22    1    4    4    0    0  0.12561326791E+02 -0.11827819201E+02  0.27938581676E+02  0.32836695690E+02  0.00000000000E+00 0.  1.
         22    1    4    4    0    0  0.11287470103E+02 -0.18231884837E+02  0.27392056151E+02  0.34786970926E+02  0.00000000000E+00 0.  1.
<mgrwt>
<rscale>  0 0.92027194E+02</rscale>
<asrwt>0</asrwt>
<pdfrwt beam="1">  1        2 0.41020417E-01 0.92027194E+02</pdfrwt>
<pdfrwt beam="2">  1       -2 0.12216466E-02 0.92027194E+02</pdfrwt>
<totfact> 0.16770854E+05</totfact>
</mgrwt>
</event>
<event>
 7    1  0.3337990E-009  0.9178072E+02  0.7818608E-02  0.1298596E+00
          2   -1    0    0  501    0  0.00000000000E+00  0.00000000000E+00  0.32117552216E+03  0.32117552217E+03  0.25500000000E-02 0. -1.
         -2   -1    0    0    0  501 -0.00000000000E+00 -0.00000000000E+00 -0.65569285325E+01  0.65569290283E+01  0.25500000000E-02 0.  1.
         23    2    1    2    0    0 -0.71054273576E-14  0.35527136788E-14  0.31461859363E+03  0.32773245120E+03  0.91780717541E+02 0.  0.
    9000005    2    3    3    0    0 -0.38660213529E+02  0.24136693263E+02  0.13882159551E+03  0.14612359508E+03  0.18648294137E+01 0.  0.
         22    1    3    3    0    0  0.38660213529E+02 -0.24136693263E+02  0.17579699812E+03  0.18160885611E+03  0.00000000000E+00 0. -1.
         22    1    4    4    0    0 -0.60626309821E+01  0.45638155460E+01  0.23786351657E+02  0.24967467471E+02  0.00000000000E+00 0. -1.
         22    1    4    4    0    0 -0.32597582547E+02  0.19572877717E+02  0.11503524385E+03  0.12115612761E+03  0.00000000000E+00 0. -1.
<mgrwt>
<rscale>  0 0.91780718E+02</rscale>
<asrwt>0</asrwt>
<pdfrwt beam="1">  1        2 0.49411618E-01 0.91780718E+02</pdfrwt>
<pdfrwt beam="2">  1       -2 0.10087583E-02 0.91780718E+02</pdfrwt>
<totfact> 0.18105383E+05</totfact>
</mgrwt>
</event>
<event>
 7    1  0.3337990E-009  0.9294600E+02  0.7818608E-02  0.1295870E+00
          2   -1    0    0  501    0  0.00000000000E+00  0.00000000000E+00  0.90606943421E+02  0.90606943457E+02  0.25500000000E-02 0. -1.
         -2   -1    0    0    0  501 -0.00000000000E+00 -0.00000000000E+00 -0.23836359280E+02  0.23836359417E+02  0.25500000000E-02 0.  1.
         23    2    1    2    0    0  0.00000000000E+00  0.00000000000E+00  0.66770584141E+02  0.11444330287E+03  0.92945998656E+02 0.  0.
    9000005    2    3    3    0    0 -0.18481193061E+02  0.37642363052E+02  0.91932778419E+01  0.43213757082E+02  0.49406933228E+01 0.  0.
         22    1    3    3    0    0  0.18481193061E+02 -0.37642363052E+02  0.57577306299E+02  0.71229545792E+02  0.00000000000E+00 0. -1.
         22    1    4    4    0    0 -0.30519797710E+01  0.75266217588E+01 -0.10074541472E+00  0.81224851654E+01  0.00000000000E+00 0. -1.
         22    1    4    4    0    0 -0.15429213290E+02  0.30115741293E+02  0.92940232567E+01  0.35091271916E+02  0.00000000000E+00 0. -1.
<mgrwt>
<rscale>  0 0.92945999E+02</rscale>
<asrwt>0</asrwt>
<pdfrwt beam="1">  1        2 0.13939530E-01 0.92945999E+02</pdfrwt>
<pdfrwt beam="2">  1       -2 0.36671322E-02 0.92945999E+02</pdfrwt>
<totfact> 0.11291964E+05</totfact>
</mgrwt>
</event>
<event>
 7    1  0.3337990E-009  0.8726465E+02  0.7818608E-02  0.1309614E+00
          2   -1    0    0  501    0  0.00000000000E+00  0.00000000000E+00  0.48662676157E+03  0.48662676158E+03  0.25500000000E-02 0. -1.
         -2   -1    0    0    0  501 -0.00000000000E+00 -0.00000000000E+00 -0.39121965404E+01  0.39121973715E+01  0.25500000000E-02 0.  1.
         23    2    1    2    0    0  0.35527136788E-14 -0.35527136788E-14  0.48271456503E+03  0.49053895895E+03  0.87264648938E+02 0.  0.
    9000005    2    3    3    0    0  0.19822130133E+02 -0.31263933550E+02  0.37102193676E+03  0.37287165850E+03  0.23760839086E+01 0.  0.
         22    1    3    3    0    0 -0.19822130133E+02  0.31263933550E+02  0.11169262827E+03  0.11766730045E+03  0.00000000000E+00 0.  1.
         22    1    4    4    0    0  0.18331327377E+01 -0.42019487767E+01  0.42541223239E+02  0.42787526498E+02  0.00000000000E+00 0. -1.
         22    1    4    4    0    0  0.17988997395E+02 -0.27061984773E+02  0.32848071352E+03  0.33008413201E+03  0.00000000000E+00 0. -1.
<mgrwt>
<rscale>  0 0.87264649E+02</rscale>
<asrwt>0</asrwt>
<pdfrwt beam="1">  1        2 0.74865676E-01 0.87264649E+02</pdfrwt>
<pdfrwt beam="2">  1       -2 0.60187629E-03 0.87264649E+02</pdfrwt>
<totfact> 0.23981510E+05</totfact>
</mgrwt>
</event>
<event>
 7    1  0.3337990E-009  0.9366755E+02  0.7818608E-02  0.1294206E+00
         -2   -1    0    0    0  501 -0.00000000000E+00  0.00000000000E+00  0.74004677648E+01  0.74004682041E+01  0.25500000000E-02 0. -1.
          2   -1    0    0  501    0  0.00000000000E+00 -0.00000000000E+00 -0.29638701604E+03  0.29638701605E+03  0.25500000000E-02 0.  1.
         23    2    1    2    0    0  0.44408920985E-15  0.00000000000E+00 -0.28898654827E+03  0.30378748425E+03  0.93667553112E+02 0.  0.
    9000005    2    3    3    0    0  0.11445206155E+01  0.39534147768E+02 -0.22347358204E+03  0.22726162253E+03  0.11964298554E+02 0.  0.
         22    1    3    3    0    0 -0.11445206155E+01 -0.39534147768E+02 -0.65512966236E+02  0.76525861722E+02  0.00000000000E+00 0. -1.
         22    1    4    4    0    0  0.59679497197E+01  0.30510970958E+02 -0.16835127194E+03  0.17119779945E+03  0.00000000000E+00 0. -1.
         22    1    4    4    0    0 -0.48234291042E+01  0.90231768104E+01 -0.55122310093E+02  0.56063823077E+02  0.00000000000E+00 0. -1.
<mgrwt>
<rscale>  0 0.93667553E+02</rscale>
<asrwt>0</asrwt>
<pdfrwt beam="2">  1        2 0.45597993E-01 0.93667553E+02</pdfrwt>
<pdfrwt beam="1">  1       -2 0.11385338E-02 0.93667553E+02</pdfrwt>
<totfact> 0.16641349E+05</totfact>
</mgrwt>
</event>
<event>
 7    1  0.3337990E-009  0.9472325E+02  0.7818608E-02  0.1291801E+00
         -2   -1    0    0    0  501 -0.00000000000E+00  0.00000000000E+00  0.20465214847E+02  0.20465215006E+02  0.25500000000E-02 0.  1.
          2   -1    0    0  501    0  0.00000000000E+00 -0.00000000000E+00 -0.10960664453E+03  0.10960664456E+03  0.25500000000E-02 0. -1.
         23    2    1    2    0    0  0.00000000000E+00  0.00000000000E+00 -0.89141429679E+02  0.13007185956E+03  0.94723250390E+02 0.  0.
    9000005    2    3    3    0    0 -0.23077068332E+02 -0.39575895637E+02 -0.56665490644E+02  0.73915922970E+02  0.12400937075E+02 0.  0.
         22    1    3    3    0    0  0.23077068332E+02  0.39575895637E+02 -0.32475939035E+02  0.56155936591E+02  0.00000000000E+00 0. -1.
         22    1    4    4    0    0 -0.14696508691E+02 -0.17166423327E+02 -0.34864871834E+02  0.41547957177E+02  0.00000000000E+00 0. -1.
         22    1    4    4    0    0 -0.83805596406E+01 -0.22409472310E+02 -0.21800618809E+02  0.32367965793E+02  0.00000000000E+00 0. -1.
<mgrwt>
<rscale>  0 0.94723250E+02</rscale>
<asrwt>0</asrwt>
<pdfrwt beam="2">  1        2 0.16862560E-01 0.94723250E+02</pdfrwt>
<pdfrwt beam="1">  1       -2 0.31484947E-02 0.94723250E+02</pdfrwt>
<totfact> 0.11361187E+05</totfact>
</mgrwt>
</event>
<event>
 7    1  0.3337990E-009  0.9298981E+02  0.7818608E-02  0.1295769E+00
          2   -1    0    0  501    0  0.00000000000E+00  0.00000000000E+00  0.11277250978E+04  0.11277250978E+04  0.25500000000E-02 0. -1.
         -2   -1    0    0    0  501 -0.00000000000E+00 -0.00000000000E+00 -0.19169346139E+01  0.19169363100E+01  0.25500000000E-02 0.  1.
         23    2    1    2    0    0  0.00000000000E+00  0.00000000000E+00  0.11258081632E+04  0.11296420341E+04  0.92989810938E+02 0.  0.
    9000005    2    3    3    0    0 -0.10444780693E+02 -0.27196542379E+02  0.10002715493E+04  0.10007692799E+04  0.12133994605E+02 0.  0.
         22    1    3    3    0    0  0.10444780693E+02  0.27196542379E+02  0.12553661390E+03  0.12887275426E+03  0.00000000000E+00 0.  1.
         22    1    4    4    0    0 -0.12106098473E+02 -0.19742938047E+02  0.64492045591E+03  0.64533614161E+03  0.00000000000E+00 0.  1.
         22    1    4    4    0    0  0.16613177800E+01 -0.74536043315E+01  0.35535109340E+03  0.35543313826E+03  0.00000000000E+00 0.  1.
<mgrwt>
<rscale>  0 0.92989811E+02</rscale>
<asrwt>0</asrwt>
<pdfrwt beam="1">  1        2 0.17349673E+00 0.92989811E+02</pdfrwt>
<pdfrwt beam="2">  1       -2 0.29491220E-03 0.92989811E+02</pdfrwt>
<totfact> 0.23729586E+05</totfact>
</mgrwt>
</event>
<event>
 7    1  0.3337990E-009  0.9053895E+02  0.7818608E-02  0.1301552E+00
         -2   -1    0    0    0  501 -0.00000000000E+00  0.00000000000E+00  0.38538944507E+02  0.38538944591E+02  0.25500000000E-02 0.  1.
          2   -1    0    0  501    0  0.00000000000E+00 -0.00000000000E+00 -0.53175442745E+02  0.53175442806E+02  0.25500000000E-02 0. -1.
         23    2    1    2    0    0  0.00000000000E+00  0.00000000000E+00 -0.14636498239E+02  0.91714387398E+02  0.90538951700E+02 0.  0.
    9000005    2    3    3    0    0  0.20218112707E+02 -0.22713165689E+02 -0.40335705563E+02  0.51900957074E+02  0.11919740974E+02 0.  0.
         22    1    3    3    0    0 -0.20218112707E+02  0.22713165689E+02  0.25699207324E+02  0.39813430324E+02  0.00000000000E+00 0.  1.
         22    1    4    4    0    0  0.85403912936E+01 -0.92233037273E+01 -0.77982367226E+01  0.14792569455E+02  0.00000000000E+00 0.  1.
         22    1    4    4    0    0  0.11677721414E+02 -0.13489861962E+02 -0.32537468840E+02  0.37108387619E+02  0.00000000000E+00 0.  1.
<mgrwt>
<rscale>  0 0.90538952E+02</rscale>
<asrwt>0</asrwt>
<pdfrwt beam="2">  1        2 0.81808374E-02 0.90538952E+02</pdfrwt>
<pdfrwt beam="1">  1       -2 0.59290684E-02 0.90538952E+02</pdfrwt>
<totfact> 0.10478946E+05</totfact>
</mgrwt>
</event>
<event>
 7    1  0.3337990E-009  0.7818452E+02  0.7818608E-02  0.1334284E+00
         -2   -1    0    0    0  501 -0.00000000000E+00  0.00000000000E+00  0.11811391007E+03  0.11811391010E+03  0.25500000000E-02 0. -1.
          2   -1    0    0  501    0  0.00000000000E+00 -0.00000000000E+00 -0.12938397072E+02  0.12938397323E+02  0.25500000000E-02 0.  1.
         23    2    1    2    0    0 -0.35527136788E-14  0.00000000000E+00  0.10517551300E+03  0.13105230742E+03  0.78184517302E+02 0.  0.
    9000005    2    3    3    0    0 -0.21407041242E+02  0.14050375353E+01  0.10701597508E+03  0.10952040444E+03  0.90589470500E+01 0.  0.
         22    1    3    3    0    0  0.21407041242E+02 -0.14050375353E+01 -0.18404620818E+01  0.21531902979E+02  0.00000000000E+00 0.  1.
         22    1    4    4    0    0 -0.21417472353E+02  0.27412154859E+01  0.10405839916E+03  0.10627498681E+03  0.00000000000E+00 0. -1.
         22    1    4    4    0    0  0.10431111467E-01 -0.13361779506E+01  0.29575759130E+01  0.32454176318E+01  0.00000000000E+00 0. -1.
<mgrwt>
<rscale>  0 0.78184517E+02</rscale>
<asrwt>0</asrwt>
<pdfrwt beam="2">  1        2 0.19905227E-02 0.78184517E+02</pdfrwt>
<pdfrwt beam="1">  1       -2 0.18171370E-01 0.78184517E+02</pdfrwt>
<totfact> 0.11143336E+05</totfact>
</mgrwt>
</event>
<event>
 7    1  0.3337990E-009  0.9103329E+02  0.7818608E-02  0.1300369E+00
         -2   -1    0    0    0  501 -0.00000000000E+00  0.00000000000E+00  0.36945595625E+03  0.36945595626E+03  0.25500000000E-02 0.  1.
          2   -1    0    0  501    0  0.00000000000E+00 -0.00000000000E+00 -0.56076102086E+01  0.56076107884E+01  0.25500000000E-02 0. -1.
         23    2    1    2    0    0  0.00000000000E+00  0.00000000000E+00  0.36384834604E+03  0.37506356704E+03  0.91033292861E+02 0.  0.
    9000005    2    3    3    0    0 -0.22523628073E+02 -0.36470743482E+02  0.24268433575E+03  0.24654062613E+03  0.70117446649E+01 0.  0.
         22    1    3    3    0    0  0.22523628073E+02  0.36470743482E+02  0.12116401029E+03  0.12852294092E+03  0.00000000000E+00 0.  1.
         22    1    4    4    0    0 -0.11304272900E+02 -0.24582540356E+02  0.14669684207E+03  0.14917121489E+03  0.00000000000E+00 0.  1.
         22    1    4    4    0    0 -0.11219355174E+02 -0.11888203126E+02  0.95987493674E+02  0.97369411243E+02  0.00000000000E+00 0.  1.
<mgrwt>
<rscale>  0 0.91033293E+02</rscale>
<asrwt>0</asrwt>
<pdfrwt beam="2">  1        2 0.86270937E-03 0.91033293E+02</pdfrwt>
<pdfrwt beam="1">  1       -2 0.56839374E-01 0.91033293E+02</pdfrwt>
<totfact> 0.45172619E+04</totfact>
</mgrwt>
</event>
<event>
 7    1  0.3337990E-009  0.9146878E+02  0.7818608E-02  0.1299333E+00
         -2   -1    0    0    0  501 -0.00000000000E+00  0.00000000000E+00  0.65679089378E+02  0.65679089427E+02  0.25500000000E-02 0. -1.
          2   -1    0    0  501    0  0.00000000000E+00 -0.00000000000E+00 -0.31846278361E+02  0.31846278463E+02  0.25500000000E-02 0.  1.
         23    2    1    2    0    0 -0.22204460493E-15  0.00000000000E+00  0.33832811017E+02  0.97525367890E+02  0.91468783095E+02 0.  0.
    9000005    2    3    3    0    0 -0.15866688225E+01  0.23935529866E+02  0.57797865159E+02  0.63617390540E+02  0.11452163734E+02 0.  0.
         22    1    3    3    0    0  0.15866688225E+01 -0.23935529866E+02 -0.23965054143E+02  0.33907977350E+02  0.00000000000E+00 0.  1.
         22    1    4    4    0    0  0.26548292840E+01  0.17192552096E+02  0.47584522249E+02  0.50664768072E+02  0.00000000000E+00 0. -1.
         22    1    4    4    0    0 -0.42414981064E+01  0.67429777699E+01  0.10213342911E+02  0.12952622468E+02  0.00000000000E+00 0. -1.
<mgrwt>
<rscale>  0 0.91468783E+02</rscale>
<asrwt>0</asrwt>
<pdfrwt beam="2">  1        2 0.48994275E-02 0.91468783E+02</pdfrwt>
<pdfrwt beam="1">  1       -2 0.10104475E-01 0.91468783E+02</pdfrwt>
<totfact> 0.89035282E+04</totfact>
</mgrwt>
</event>
<event>
 7    1  0.3337990E-009  0.9172937E+02  0.7818608E-02  0.1298717E+00
          2   -1    0    0  501    0  0.00000000000E+00  0.00000000000E+00  0.15406201442E+04  0.15406201442E+04  0.25500000000E-02 0. -1.
         -2   -1    0    0    0  501 -0.00000000000E+00 -0.00000000000E+00 -0.13654031787E+01  0.13654055599E+01  0.25500000000E-02 0.  1.
         23    2    1    2    0    0  0.00000000000E+00  0.00000000000E+00  0.15392547410E+04  0.15419855497E+04  0.91729373257E+02 0.  0.
    9000005    2    3    3    0    0  0.72433101932E+01  0.26042938231E+02  0.13920351329E+04  0.13923048456E+04  0.45024171801E+01 0.  0.
         22    1    3    3    0    0 -0.72433101932E+01 -0.26042938231E+02  0.14721960811E+03  0.14968070412E+03  0.00000000000E+00 0.  1.
         22    1    4    4    0    0  0.15431558292E+01  0.13725755032E+01  0.92314751258E+02  0.92337850275E+02  0.00000000000E+00 0. -1.
         22    1    4    4    0    0  0.57001543640E+01  0.24670362728E+02  0.12997203816E+04  0.12999669953E+04  0.00000000000E+00 0. -1.
<mgrwt>
<rscale>  0 0.91729373E+02</rscale>
<asrwt>0</asrwt>
<pdfrwt beam="1">  1        2 0.23701797E+00 0.91729373E+02</pdfrwt>
<pdfrwt beam="2">  1       -2 0.21006267E-03 0.91729373E+02</pdfrwt>
<totfact> 0.22978049E+05</totfact>
</mgrwt>
</event>
<event>
 7    1  0.3337990E-009  0.9170868E+02  0.7818608E-02  0.1298766E+00
          2   -1    0    0  501    0  0.00000000000E+00  0.00000000000E+00  0.51119091967E+03  0.51119091968E+03  0.25500000000E-02 0. -1.
         -2   -1    0    0    0  501 -0.00000000000E+00 -0.00000000000E+00 -0.41131803562E+01  0.41131811466E+01  0.25500000000E-02 0.  1.
         23    2    1    2    0    0  0.00000000000E+00  0.00000000000E+00  0.50707773932E+03  0.51530410082E+03  0.91708683435E+02 0.  0.
    9000005    2    3    3    0    0  0.23679929293E+02 -0.37440259707E+02  0.30540191821E+03  0.30882008470E+03  0.11704741214E+02 0.  0.
         22    1    3    3    0    0 -0.23679929293E+02  0.37440259707E+02  0.20167582111E+03  0.20648401613E+03  0.00000000000E+00 0.  1.
         22    1    4    4    0    0  0.18470870640E+02 -0.18368247959E+02  0.17438788603E+03  0.17632271660E+03  0.00000000000E+00 0.  1.
         22    1    4    4    0    0  0.52090586527E+01 -0.19072011748E+02  0.13101403218E+03  0.13249736809E+03  0.00000000000E+00 0.  1.
<mgrwt>
<rscale>  0 0.91708683E+02</rscale>
<asrwt>0</asrwt>
<pdfrwt beam="1">  1        2 0.78644729E-01 0.91708683E+02</pdfrwt>
<pdfrwt beam="2">  1       -2 0.63279726E-03 0.91708683E+02</pdfrwt>
<totfact> 0.21372538E+05</totfact>
</mgrwt>
</event>
<event>
 7    1  0.3337990E-009  0.8457326E+02  0.7818608E-02  0.1316552E+00
          2   -1    0    0  501    0  0.00000000000E+00  0.00000000000E+00  0.64010470582E+02  0.64010470633E+02  0.25500000000E-02 0. -1.
         -2   -1    0    0    0  501 -0.00000000000E+00 -0.00000000000E+00 -0.27935415172E+02  0.27935415289E+02  0.25500000000E-02 0.  1.
         23    2    1    2    0    0  0.00000000000E+00  0.88817841970E-15  0.36075055409E+02  0.91945885921E+02  0.84573260047E+02 0.  0.
    9000005    2    3    3    0    0  0.41059800318E+02  0.65733369315E+01  0.14204598277E+02  0.44962560626E+02  0.95260319813E+01 0.  0.
         22    1    3    3    0    0 -0.41059800318E+02 -0.65733369315E+01  0.21870457133E+02  0.46983325295E+02  0.00000000000E+00 0. -1.
         22    1    4    4    0    0  0.38288917961E+02  0.48194058242E+01  0.15287952522E+02  0.41508907519E+02  0.00000000000E+00 0. -1.
         22    1    4    4    0    0  0.27708823572E+01  0.17539311072E+01 -0.10833542450E+01  0.34536531075E+01  0.00000000000E+00 0. -1.
<mgrwt>
<rscale>  0 0.84573260E+02</rscale>
<asrwt>0</asrwt>
<pdfrwt beam="1">  1        2 0.98477645E-02 0.84573260E+02</pdfrwt>
<pdfrwt beam="2">  1       -2 0.42977563E-02 0.84573260E+02</pdfrwt>
<totfact> 0.13313376E+05</totfact>
</mgrwt>
</event>
<event>
 7    1  0.3337990E-009  0.9026526E+02  0.7818608E-02  0.1302211E+00
         -2   -1    0    0    0  501 -0.00000000000E+00  0.00000000000E+00  0.18227976951E+03  0.18227976952E+03  0.25500000000E-02 0.  1.
          2   -1    0    0  501    0  0.00000000000E+00 -0.00000000000E+00 -0.11174877216E+02  0.11174877507E+02  0.25500000000E-02 0. -1.
         23    2    1    2    0    0  0.00000000000E+00  0.55511151231E-16  0.17110489229E+03  0.19345464703E+03  0.90265255177E+02 0.  0.
    9000005    2    3    3    0    0 -0.21352026444E+02 -0.14359788408E+00  0.17051646792E+03  0.17209403148E+03  0.91956611077E+01 0.  0.
         22    1    3    3    0    0  0.21352026444E+02  0.14359788408E+00  0.58842436658E+00  0.21360615554E+02  0.00000000000E+00 0. -1.
         22    1    4    4    0    0 -0.76042798326E+01  0.35362441880E+01  0.83665765729E+02  0.84085019175E+02  0.00000000000E+00 0. -1.
         22    1    4    4    0    0 -0.13747746611E+02 -0.36798420721E+01  0.86850702195E+02  0.88009012302E+02  0.00000000000E+00 0. -1.
<mgrwt>
<rscale>  0 0.90265255E+02</rscale>
<asrwt>0</asrwt>
<pdfrwt beam="2">  1        2 0.17192118E-02 0.90265255E+02</pdfrwt>
<pdfrwt beam="1">  1       -2 0.28043043E-01 0.90265255E+02</pdfrwt>
<totfact> 0.66479041E+04</totfact>
</mgrwt>
</event>
<event>
 7    1  0.3337990E-009  0.9101838E+02  0.7818608E-02  0.1300404E+00
         -2   -1    0    0    0  501 -0.00000000000E+00  0.00000000000E+00  0.36293671380E+02  0.36293671470E+02  0.25500000000E-02 0.  1.
          2   -1    0    0  501    0  0.00000000000E+00 -0.00000000000E+00 -0.57064669094E+02  0.57064669151E+02  0.25500000000E-02 0. -1.
         23    2    1    2    0    0  0.00000000000E+00  0.00000000000E+00 -0.20770997713E+02  0.93358340620E+02  0.91018379558E+02 0.  0.
    9000005    2    3    3    0    0  0.20651408637E+02 -0.59788267924E+01 -0.50426068906E+02  0.56729795796E+02  0.14603227631E+02 0.  0.
         22    1    3    3    0    0 -0.20651408637E+02  0.59788267924E+01  0.29655071193E+02  0.36628544824E+02  0.00000000000E+00 0.  1.
         22    1    4    4    0    0 -0.36033353634E+00 -0.40997396312E+01 -0.14452068460E+02  0.15026642608E+02  0.00000000000E+00 0.  1.
         22    1    4    4    0    0  0.21011742173E+02 -0.18790871612E+01 -0.35974000446E+02  0.41703153188E+02  0.00000000000E+00 0.  1.
<mgrwt>
<rscale>  0 0.91018380E+02</rscale>
<asrwt>0</asrwt>
<pdfrwt beam="2">  1        2 0.87791798E-02 0.91018380E+02</pdfrwt>
<pdfrwt beam="1">  1       -2 0.55836418E-02 0.91018380E+02</pdfrwt>
<totfact> 0.10517444E+05</totfact>
</mgrwt>
</event>
<event>
 7    1  0.3337990E-009  0.9075490E+02  0.7818608E-02  0.1301034E+00
          2   -1    0    0  501    0  0.00000000000E+00  0.00000000000E+00  0.14207178702E+03  0.14207178705E+03  0.25500000000E-02 0. -1.
         -2   -1    0    0    0  501 -0.00000000000E+00 -0.00000000000E+00 -0.14493469169E+02  0.14493469393E+02  0.25500000000E-02 0.  1.
         23    2    1    2    0    0  0.00000000000E+00  0.00000000000E+00  0.12757831785E+03  0.15656525644E+03  0.90754902552E+02 0.  0.
    9000005    2    3    3    0    0  0.37818578937E+02  0.19886249477E+02  0.90113377777E+02  0.99738066062E+02  0.12462489079E+01 0.  0.
         22    1    3    3    0    0 -0.37818578937E+02 -0.19886249477E+02  0.37464940076E+02  0.56827190376E+02  0.00000000000E+00 0. -1.
         22    1    4    4    0    0  0.10360702079E+02  0.52907708967E+01  0.23297330543E+02  0.26040391984E+02  0.00000000000E+00 0.  1.
         22    1    4    4    0    0  0.27457876859E+02  0.14595478581E+02  0.66816047234E+02  0.73697674079E+02  0.00000000000E+00 0.  1.
<mgrwt>
<rscale>  0 0.90754903E+02</rscale>
<asrwt>0</asrwt>
<pdfrwt beam="1">  1        2 0.21857197E-01 0.90754903E+02</pdfrwt>
<pdfrwt beam="2">  1       -2 0.22297646E-02 0.90754903E+02</pdfrwt>
<totfact> 0.13900839E+05</totfact>
</mgrwt>
</event>
<event>
 7    1  0.3337990E-009  0.9653134E+02  0.7818608E-02  0.1287764E+00
          2   -1    0    0  501    0  0.00000000000E+00  0.00000000000E+00  0.15727222787E+03  0.15727222790E+03  0.25500000000E-02 0. -1.
         -2   -1    0    0    0  501 -0.00000000000E+00 -0.00000000000E+00 -0.14812372767E+02  0.14812372987E+02  0.25500000000E-02 0.  1.
         23    2    1    2    0    0  0.00000000000E+00  0.00000000000E+00  0.14245985511E+03  0.17208460088E+03  0.96531339695E+02 0.  0.
    9000005    2    3    3    0    0 -0.38843235193E+02  0.74656397999E+01  0.12016436750E+03  0.12667951895E+03  0.66100382511E+01 0.  0.
         22    1    3    3    0    0  0.38843235193E+02 -0.74656397999E+01  0.22295487605E+02  0.45405081934E+02  0.00000000000E+00 0.  1.
         22    1    4    4    0    0 -0.38693899647E+02  0.74230222248E+01  0.12022233899E+03  0.12651375388E+03  0.00000000000E+00 0. -1.
         22    1    4    4    0    0 -0.14933554572E+00  0.42617575037E-01 -0.57971489916E-01  0.16576506435E+00  0.00000000000E+00 0. -1.
<mgrwt>
<rscale>  0 0.96531340E+02</rscale>
<asrwt>0</asrwt>
<pdfrwt beam="1">  1        2 0.24195727E-01 0.96531340E+02</pdfrwt>
<pdfrwt beam="2">  1       -2 0.22788266E-02 0.96531340E+02</pdfrwt>
<totfact> 0.12164749E+05</totfact>
</mgrwt>
</event>
<event>
 7    1  0.3337990E-009  0.9138799E+02  0.7818608E-02  0.1299525E+00
          2   -1    0    0  501    0  0.00000000000E+00  0.00000000000E+00  0.12304555080E+03  0.12304555083E+03  0.25500000000E-02 0. -1.
         -2   -1    0    0    0  501 -0.00000000000E+00 -0.00000000000E+00 -0.16968848652E+02  0.16968848843E+02  0.25500000000E-02 0.  1.
         23    2    1    2    0    0 -0.35527136788E-14  0.00000000000E+00  0.10607670215E+03  0.14001439967E+03  0.91387993610E+02 0.  0.
    9000005    2    3    3    0    0 -0.26474001332E+02  0.18346388246E+02  0.47403547930E+01  0.33682287852E+02  0.86349778911E+01 0.  0.
         22    1    3    3    0    0  0.26474001332E+02 -0.18346388246E+02  0.10133634735E+03  0.10633211182E+03  0.00000000000E+00 0. -1.
         22    1    4    4    0    0 -0.23202052717E+02  0.13465268751E+02  0.63939904362E+01  0.27577741505E+02  0.00000000000E+00 0. -1.
         22    1    4    4    0    0 -0.32719486155E+01  0.48811194951E+01 -0.16536356431E+01  0.61045463475E+01  0.00000000000E+00 0. -1.
<mgrwt>
<rscale>  0 0.91387994E+02</rscale>
<asrwt>0</asrwt>
<pdfrwt beam="1">  1        2 0.18930084E-01 0.91387994E+02</pdfrwt>
<pdfrwt beam="2">  1       -2 0.26105922E-02 0.91387994E+02</pdfrwt>
<totfact> 0.13008982E+05</totfact>
</mgrwt>
</event>
<event>
 7    1  0.3337990E-009  0.9092791E+02  0.7818608E-02  0.1300620E+00
         -2   -1    0    0    0  501 -0.00000000000E+00  0.00000000000E+00  0.67889088802E+01  0.67889093592E+01  0.25500000000E-02 0.  1.
          2   -1    0    0  501    0  0.00000000000E+00 -0.00000000000E+00 -0.30446292157E+03  0.30446292158E+03  0.25500000000E-02 0. -1.
         23    2    1    2    0    0  0.00000000000E+00 -0.35527136788E-14 -0.29767401269E+03  0.31125183094E+03  0.90927907886E+02 0.  0.
    9000005    2    3    3    0    0 -0.31693624373E+02  0.30311325880E+02 -0.12385816326E+03  0.13198886261E+03  0.12528086195E+02 0.  0.
         22    1    3    3    0    0  0.31693624373E+02 -0.30311325880E+02 -0.17381584942E+03  0.17926296833E+03  0.00000000000E+00 0. -1.
         22    1    4    4    0    0 -0.39773999486E+01  0.10313251035E+02 -0.38100405407E+02  0.39671447534E+02  0.00000000000E+00 0. -1.
         22    1    4    4    0    0 -0.27716224424E+02  0.19998074845E+02 -0.85757757857E+02  0.92317415077E+02  0.00000000000E+00 0. -1.
<mgrwt>
<rscale>  0 0.90927908E+02</rscale>
<asrwt>0</asrwt>
<pdfrwt beam="2">  1        2 0.46840439E-01 0.90927908E+02</pdfrwt>
<pdfrwt beam="1">  1       -2 0.10444478E-02 0.90927908E+02</pdfrwt>
<totfact> 0.18197253E+05</totfact>
</mgrwt>
</event>
<event>
 7    1  0.3337990E-009  0.9279468E+02  0.7818608E-02  0.1296222E+00
          2   -1    0    0  501    0  0.00000000000E+00  0.00000000000E+00  0.13821745119E+03  0.13821745121E+03  0.25500000000E-02 0.  1.
         -2   -1    0    0    0  501 -0.00000000000E+00 -0.00000000000E+00 -0.15574829478E+02  0.15574829687E+02  0.25500000000E-02 0. -1.
         23    2    1    2    0    0  0.00000000000E+00 -0.88817841970E-15  0.12264262171E+03  0.15379228090E+03  0.92794681982E+02 0.  0.
    9000005    2    3    3    0    0  0.31177315772E+02  0.45375312429E+01  0.64049744731E+01  0.33360537394E+02  0.89043556019E+01 0.  0.
         22    1    3    3    0    0 -0.31177315772E+02 -0.45375312429E+01  0.11623764723E+03  0.12043174350E+03  0.00000000000E+00 0.  1.
         22    1    4    4    0    0  0.86642815731E+01 -0.25104869625E+01  0.31064078180E+01  0.95405497482E+01  0.00000000000E+00 0. -1.
         22    1    4    4    0    0  0.22513034199E+02  0.70480182054E+01  0.32985666551E+01  0.23819987646E+02  0.00000000000E+00 0. -1.
<mgrwt>
<rscale>  0 0.92794682E+02</rscale>
<asrwt>0</asrwt>
<pdfrwt beam="1">  1        2 0.21264224E-01 0.92794682E+02</pdfrwt>
<pdfrwt beam="2">  1       -2 0.23961276E-02 0.92794682E+02</pdfrwt>
<totfact> 0.12964163E+05</totfact>
</mgrwt>
</event>
<event>
 7    1  0.3337990E-009  0.9092250E+02  0.7818608E-02  0.1300633E+00
          2   -1    0    0  501    0  0.00000000000E+00  0.00000000000E+00  0.30554509983E+03  0.30554509984E+03  0.25500000000E-02 0. -1.
         -2   -1    0    0    0  501 -0.00000000000E+00 -0.00000000000E+00 -0.67640598207E+01  0.67640603014E+01  0.25500000000E-02 0.  1.
         23    2    1    2    0    0 -0.22204460493E-15 -0.35527136788E-14  0.29878104001E+03  0.31230916014E+03  0.90922503483E+02 0.  0.
    9000005    2    3    3    0    0 -0.15576958163E+01 -0.28685440780E+02  0.26992794223E+03  0.27159328878E+03  0.87486905684E+01 0.  0.
         22    1    3    3    0    0  0.15576958163E+01  0.28685440780E+02  0.28853097778E+02  0.40715871358E+02  0.00000000000E+00 0.  1.
         22    1    4    4    0    0  0.59097292375E+00 -0.15065381014E+02  0.10310975140E+03  0.10420621761E+03  0.00000000000E+00 0. -1.
         22    1    4    4    0    0 -0.21486687400E+01 -0.13620059767E+02  0.16681819083E+03  0.16738707117E+03  0.00000000000E+00 0. -1.
<mgrwt>
<rscale>  0 0.90922503E+02</rscale>
<asrwt>0</asrwt>
<pdfrwt beam="1">  1        2 0.47006940E-01 0.90922503E+02</pdfrwt>
<pdfrwt beam="2">  1       -2 0.10406246E-02 0.90922503E+02</pdfrwt>
<totfact> 0.18224165E+05</totfact>
</mgrwt>
</event>
<event>
 7    1  0.3337990E-009  0.9225168E+02  0.7818608E-02  0.1297489E+00
         -2   -1    0    0    0  501 -0.00000000000E+00  0.00000000000E+00  0.25436932208E+02  0.25436932336E+02  0.25500000000E-02 0. -1.
          2   -1    0    0  501    0  0.00000000000E+00 -0.00000000000E+00 -0.83641885263E+02  0.83641885302E+02  0.25500000000E-02 0.  1.
         23    2    1    2    0    0  0.00000000000E+00 -0.88817841970E-15 -0.58204953055E+02  0.10907881764E+03  0.92251676935E+02 0.  0.
    9000005    2    3    3    0    0 -0.17993264812E+02  0.64629650344E+01  0.19423178745E+02  0.29130995014E+02  0.10287249499E+02 0.  0.
         22    1    3    3    0    0  0.17993264812E+02 -0.64629650344E+01 -0.77628131800E+02  0.79947822625E+02  0.00000000000E+00 0.  1.
         22    1    4    4    0    0 -0.12944857133E+01 -0.82918904231E-01  0.74587976241E+01  0.75707483649E+01  0.00000000000E+00 0. -1.
         22    1    4    4    0    0 -0.16698779099E+02  0.65458839387E+01  0.11964381121E+02  0.21560246649E+02  0.00000000000E+00 0. -1.
<mgrwt>
<rscale>  0 0.92251677E+02</rscale>
<asrwt>0</asrwt>
<pdfrwt beam="2">  1        2 0.12867982E-01 0.92251677E+02</pdfrwt>
<pdfrwt beam="1">  1       -2 0.39133742E-02 0.92251677E+02</pdfrwt>
<totfact> 0.11260872E+05</totfact>
</mgrwt>
</event>
<event>
 7    1  0.3337990E-009  0.8875569E+02  0.7818608E-02  0.1305893E+00
         -2   -1    0    0    0  501 -0.00000000000E+00  0.00000000000E+00  0.31671118882E+02  0.31671118984E+02  0.25500000000E-02 0. -1.
          2   -1    0    0  501    0  0.00000000000E+00 -0.00000000000E+00 -0.62182623668E+02  0.62182623721E+02  0.25500000000E-02 0.  1.
         23    2    1    2    0    0  0.00000000000E+00  0.00000000000E+00 -0.30511504787E+02  0.93853742705E+02  0.88755693312E+02 0.  0.
    9000005    2    3    3    0    0 -0.34523241412E+02 -0.69649211429E+01  0.12109489622E+02  0.38564381264E+02  0.10010366592E+02 0.  0.
         22    1    3    3    0    0  0.34523241412E+02  0.69649211429E+01 -0.42620994409E+02  0.55289361440E+02  0.00000000000E+00 0.  1.
         22    1    4    4    0    0 -0.16516716427E+02 -0.65506505704E+01  0.19229606052E+01  0.17872065407E+02  0.00000000000E+00 0.  1.
         22    1    4    4    0    0 -0.18006524985E+02 -0.41427057253E+00  0.10186529017E+02  0.20692315858E+02  0.00000000000E+00 0.  1.
<mgrwt>
<rscale>  0 0.88755693E+02</rscale>
<asrwt>0</asrwt>
<pdfrwt beam="2">  1        2 0.95665575E-02 0.88755693E+02</pdfrwt>
<pdfrwt beam="1">  1       -2 0.48724799E-02 0.88755693E+02</pdfrwt>
<totfact> 0.11549572E+05</totfact>
</mgrwt>
</event>
<event>
 7    1  0.3881022E-009  0.9135370E+02  0.7818608E-02  0.1299606E+00
         -2   -1    0    0    0  501 -0.00000000000E+00  0.00000000000E+00  0.27416390189E+01  0.27416402048E+01  0.25500000000E-02 0.  1.
          2   -1    0    0  501    0  0.00000000000E+00 -0.00000000000E+00 -0.76099518424E+03  0.76099518424E+03  0.25500000000E-02 0. -1.
         23    2    1    2    0    0 -0.61062266354E-15  0.00000000000E+00 -0.75825354522E+03  0.76373682445E+03  0.91353698223E+02 0.  0.
    9000005    2    3    3    0    0  0.18589434140E+00 -0.16928328132E+02 -0.73298167386E+03  0.73331856789E+03  0.14400866144E+02 0.  0.
         22    1    3    3    0    0 -0.18589434140E+00  0.16928328132E+02 -0.25271871357E+02  0.30418256557E+02  0.00000000000E+00 0.  1.
         22    1    4    4    0    0 -0.54871749734E+01 -0.84609589337E+01 -0.51502408352E+03  0.51512280431E+03  0.00000000000E+00 0. -1.
         22    1    4    4    0    0  0.56730693148E+01 -0.84673691979E+01 -0.21795759034E+03  0.21819576358E+03  0.00000000000E+00 0. -1.
<mgrwt>
<rscale>  0 0.91353698E+02</rscale>
<asrwt>0</asrwt>
<pdfrwt beam="2">  1        2 0.11707601E+00 0.91353698E+02</pdfrwt>
<pdfrwt beam="1">  1       -2 0.42179132E-03 0.91353698E+02</pdfrwt>
<totfact> 0.24023670E+05</totfact>
</mgrwt>
</event>
<event>
 7    1  0.3337990E-009  0.9198041E+02  0.7818608E-02  0.1298125E+00
          2   -1    0    0  501    0  0.00000000000E+00  0.00000000000E+00  0.23955199449E+03  0.23955199450E+03  0.25500000000E-02 0. -1.
         -2   -1    0    0    0  501 -0.00000000000E+00 -0.00000000000E+00 -0.88293937085E+01  0.88293940768E+01  0.25500000000E-02 0.  1.
         23    2    1    2    0    0  0.00000000000E+00  0.00000000000E+00  0.23072260078E+03  0.24838138858E+03  0.91980409228E+02 0.  0.
    9000005    2    3    3    0    0  0.35271370893E+02 -0.27713273860E+02  0.96870059122E+02  0.10721270203E+03  0.99327725355E+01 0.  0.
         22    1    3    3    0    0 -0.35271370893E+02  0.27713273860E+02  0.13385254166E+03  0.14116868655E+03  0.00000000000E+00 0.  1.
         22    1    4    4    0    0  0.28154770256E+02 -0.24163330885E+02  0.86678926104E+02  0.94285703467E+02  0.00000000000E+00 0. -1.
         22    1    4    4    0    0  0.71166006371E+01 -0.35499429750E+01  0.10191133018E+02  0.12926998567E+02  0.00000000000E+00 0. -1.
<mgrwt>
<rscale>  0 0.91980409E+02</rscale>
<asrwt>0</asrwt>
<pdfrwt beam="1">  1        2 0.36854151E-01 0.91980409E+02</pdfrwt>
<pdfrwt beam="2">  1       -2 0.13583684E-02 0.91980409E+02</pdfrwt>
<totfact> 0.16138715E+05</totfact>
</mgrwt>
</event>
<event>
 7    1  0.3337990E-009  0.8594606E+02  0.7818608E-02  0.1312977E+00
          2   -1    0    0  501    0  0.00000000000E+00  0.00000000000E+00  0.31885676803E+02  0.31885676905E+02  0.25500000000E-02 0.  1.
         -2   -1    0    0    0  501 -0.00000000000E+00 -0.00000000000E+00 -0.57915702664E+02  0.57915702720E+02  0.25500000000E-02 0. -1.
         23    2    1    2    0    0 -0.22204460493E-15  0.00000000000E+00 -0.26030025860E+02  0.89801379625E+02  0.85946061785E+02 0.  0.
    9000005    2    3    3    0    0 -0.11112978696E+01 -0.22116344053E+02  0.23291922309E+02  0.35736398090E+02  0.15627182931E+02 0.  0.
         22    1    3    3    0    0  0.11112978696E+01  0.22116344053E+02 -0.49321948169E+02  0.54064981536E+02  0.00000000000E+00 0. -1.
         22    1    4    4    0    0 -0.26952487135E+01 -0.38731068680E+01  0.14832498542E+02  0.15564971424E+02  0.00000000000E+00 0. -1.
         22    1    4    4    0    0  0.15839508439E+01 -0.18243237185E+02  0.84594237674E+01  0.20171426666E+02  0.00000000000E+00 0. -1.
<mgrwt>
<rscale>  0 0.85946062E+02</rscale>
<asrwt>0</asrwt>
<pdfrwt beam="1">  1        2 0.49054888E-02 0.85946062E+02</pdfrwt>
<pdfrwt beam="2">  1       -2 0.89101081E-02 0.85946062E+02</pdfrwt>
<totfact> 0.10689305E+05</totfact>
</mgrwt>
</event>
<event>
 7    1  0.3337990E-009  0.9146100E+02  0.7818608E-02  0.1299352E+00
          2   -1    0    0  501    0  0.00000000000E+00  0.00000000000E+00  0.33486505566E+02  0.33486505664E+02  0.25500000000E-02 0. -1.
         -2   -1    0    0    0  501 -0.00000000000E+00 -0.00000000000E+00 -0.62451386008E+02  0.62451386060E+02  0.25500000000E-02 0.  1.
         23    2    1    2    0    0  0.00000000000E+00  0.00000000000E+00 -0.28964880441E+02  0.95937891723E+02  0.91461001358E+02 0.  0.
    9000005    2    3    3    0    0 -0.43720203674E+01  0.11825957926E+02 -0.59733025051E+02  0.62686627602E+02  0.14234154535E+02 0.  0.
         22    1    3    3    0    0  0.43720203674E+01 -0.11825957926E+02  0.30768144610E+02  0.33251264122E+02  0.00000000000E+00 0. -1.
         22    1    4    4    0    0 -0.34069239479E-01  0.86826419256E+01 -0.54536101123E+02  0.55222964039E+02  0.00000000000E+00 0.  1.
         22    1    4    4    0    0 -0.43379511279E+01  0.31433160002E+01 -0.51969239283E+01  0.74636635630E+01  0.00000000000E+00 0.  1.
<mgrwt>
<rscale>  0 0.91461001E+02</rscale>
<asrwt>0</asrwt>
<pdfrwt beam="1">  1        2 0.51517701E-02 0.91461001E+02</pdfrwt>
<pdfrwt beam="2">  1       -2 0.96079055E-02 0.91461001E+02</pdfrwt>
<totfact> 0.90247103E+04</totfact>
</mgrwt>
</event>
<event>
 7    1  0.3337990E-009  0.9033367E+02  0.7818608E-02  0.1302046E+00
          2   -1    0    0  501    0  0.00000000000E+00  0.00000000000E+00  0.57329213524E+02  0.57329213581E+02  0.25500000000E-02 0. -1.
         -2   -1    0    0    0  501 -0.00000000000E+00 -0.00000000000E+00 -0.35584700908E+02  0.35584700999E+02  0.25500000000E-02 0.  1.
         23    2    1    2    0    0  0.00000000000E+00  0.00000000000E+00  0.21744512616E+02  0.92913914580E+02  0.90333668661E+02 0.  0.
    9000005    2    3    3    0    0  0.39634240683E+02 -0.12509054495E+02  0.25832691019E+02  0.51151938076E+02  0.14894407163E+02 0.  0.
         22    1    3    3    0    0 -0.39634240683E+02  0.12509054495E+02 -0.40881784035E+01  0.41761976504E+02  0.00000000000E+00 0.  1.
         22    1    4    4    0    0  0.81637208279E+01  0.21395953379E+01  0.10591146160E+01  0.85056410538E+01  0.00000000000E+00 0. -1.
         22    1    4    4    0    0  0.31470519855E+02 -0.14648649833E+02  0.24773576404E+02  0.42646297022E+02  0.00000000000E+00 0. -1.
<mgrwt>
<rscale>  0 0.90333669E+02</rscale>
<asrwt>0</asrwt>
<pdfrwt beam="1">  1        2 0.88198788E-02 0.90333669E+02</pdfrwt>
<pdfrwt beam="2">  1       -2 0.54745695E-02 0.90333669E+02</pdfrwt>
<totfact> 0.10757202E+05</totfact>
</mgrwt>
</event>
<event>
 7    1  0.3337990E-009  0.9018252E+02  0.7818608E-02  0.1302410E+00
          2   -1    0    0  501    0  0.00000000000E+00  0.00000000000E+00  0.26764778859E+03  0.26764778861E+03  0.25500000000E-02 0. -1.
         -2   -1    0    0    0  501 -0.00000000000E+00 -0.00000000000E+00 -0.75966314734E+01  0.75966319014E+01  0.25500000000E-02 0.  1.
         23    2    1    2    0    0  0.00000000000E+00  0.00000000000E+00  0.26005115712E+03  0.27524442051E+03  0.90182518820E+02 0.  0.
    9000005    2    3    3    0    0 -0.20644890776E+02  0.15346695710E+02  0.24267425935E+03  0.24420107725E+03  0.90353414284E+01 0.  0.
         22    1    3    3    0    0  0.20644890776E+02 -0.15346695710E+02  0.17376897768E+02  0.31043343254E+02  0.00000000000E+00 0.  1.
         22    1    4    4    0    0  0.20256625096E+00  0.24879522729E+01  0.14214898617E+02  0.14432403899E+02  0.00000000000E+00 0. -1.
         22    1    4    4    0    0 -0.20847457027E+02  0.12858743437E+02  0.22845936074E+03  0.22976867335E+03  0.00000000000E+00 0. -1.
<mgrwt>
<rscale>  0 0.90182519E+02</rscale>
<asrwt>0</asrwt>
<pdfrwt beam="1">  1        2 0.41176585E-01 0.90182519E+02</pdfrwt>
<pdfrwt beam="2">  1       -2 0.11687125E-02 0.90182519E+02</pdfrwt>
<totfact> 0.17729113E+05</totfact>
</mgrwt>
</event>
<event>
 7    1  0.4249683E-009  0.9272533E+02  0.7818608E-02  0.1296383E+00
          2   -1    0    0  501    0  0.00000000000E+00  0.00000000000E+00  0.76915875744E+03  0.76915875744E+03  0.25500000000E-02 0. -1.
         -2   -1    0    0    0  501 -0.00000000000E+00 -0.00000000000E+00 -0.27946065137E+01  0.27946076771E+01  0.25500000000E-02 0.  1.
         23    2    1    2    0    0  0.00000000000E+00  0.00000000000E+00  0.76636415092E+03  0.77195336512E+03  0.92725326083E+02 0.  0.
    9000005    2    3    3    0    0  0.10269032133E+02 -0.10257874065E+02  0.74910908577E+03  0.74940532142E+03  0.15272078606E+02 0.  0.
         22    1    3    3    0    0 -0.10269032133E+02  0.10257874065E+02  0.17255065154E+02  0.22548043701E+02  0.00000000000E+00 0.  1.
         22    1    4    4    0    0 -0.25867689537E+01  0.31091333242E-01  0.27177318881E+03  0.27178550090E+03  0.00000000000E+00 0. -1.
         22    1    4    4    0    0  0.12855801086E+02 -0.10288965399E+02  0.47733589696E+03  0.47761982052E+03  0.00000000000E+00 0. -1.
<mgrwt>
<rscale>  0 0.92725326E+02</rscale>
<asrwt>0</asrwt>
<pdfrwt beam="1">  1        2 0.11833233E+00 0.92725326E+02</pdfrwt>
<pdfrwt beam="2">  1       -2 0.42993879E-03 0.92725326E+02</pdfrwt>
<totfact> 0.23145715E+05</totfact>
</mgrwt>
</event>
<event>
 7    1  0.3337990E-009  0.9077328E+02  0.7818608E-02  0.1300990E+00
          2   -1    0    0  501    0  0.00000000000E+00  0.00000000000E+00  0.45929044134E+03  0.45929044135E+03  0.25500000000E-02 0.  1.
         -2   -1    0    0    0  501 -0.00000000000E+00 -0.00000000000E+00 -0.44850633252E+01  0.44850640501E+01  0.25500000000E-02 0. -1.
         23    2    1    2    0    0  0.44408920985E-15  0.00000000000E+00  0.45480537802E+03  0.46377550540E+03  0.90773275447E+02 0.  0.
    9000005    2    3    3    0    0 -0.38543722738E+01 -0.44568826681E+02  0.22083789969E+03  0.22556967547E+03  0.10538693232E+02 0.  0.
         22    1    3    3    0    0  0.38543722738E+01  0.44568826681E+02  0.23396747833E+03  0.23820582993E+03  0.00000000000E+00 0.  1.
         22    1    4    4    0    0  0.12067584794E+00 -0.11789824471E+02  0.38454000029E+02  0.40220947801E+02  0.00000000000E+00 0. -1.
         22    1    4    4    0    0 -0.39750481218E+01 -0.32779002211E+02  0.18238389966E+03  0.18534872767E+03  0.00000000000E+00 0. -1.
<mgrwt>
<rscale>  0 0.90773275E+02</rscale>
<asrwt>0</asrwt>
<pdfrwt beam="1">  1        2 0.70660084E-01 0.90773275E+02</pdfrwt>
<pdfrwt beam="2">  1       -2 0.69000964E-03 0.90773275E+02</pdfrwt>
<totfact> 0.21197181E+05</totfact>
</mgrwt>
</event>
<event>
 7    1  0.3337990E-009  0.1126759E+03  0.7818608E-02  0.1255693E+00
         -2   -1    0    0    0  501 -0.00000000000E+00  0.00000000000E+00  0.21270397457E+01  0.21270412743E+01  0.25500000000E-02 0.  1.
          2   -1    0    0  501    0  0.00000000000E+00 -0.00000000000E+00 -0.14921986366E+04  0.14921986366E+04  0.25500000000E-02 0. -1.
         23    2    1    2    0    0  0.00000000000E+00  0.00000000000E+00 -0.14900715968E+04  0.14943256778E+04  0.11267594157E+03 0.  0.
    9000005    2    3    3    0    0  0.10020167848E+02 -0.13365725148E+02 -0.14583913325E+04  0.14585110786E+04  0.83810076805E+01 0.  0.
         22    1    3    3    0    0 -0.10020167848E+02  0.13365725148E+02 -0.31680264360E+02  0.35814599291E+02  0.00000000000E+00 0.  1.
         22    1    4    4    0    0  0.21353183178E+01 -0.15960561417E+01 -0.75268163357E+02  0.75315359620E+02  0.00000000000E+00 0.  1.
         22    1    4    4    0    0  0.78848495305E+01 -0.11769669007E+02 -0.13831231691E+04  0.13831957189E+04  0.00000000000E+00 0.  1.
<mgrwt>
<rscale>  0 0.11267594E+03</rscale>
<asrwt>0</asrwt>
<pdfrwt beam="2">  1        2 0.22956818E+00 0.11267594E+03</pdfrwt>
<pdfrwt beam="1">  1       -2 0.32723819E-03 0.11267594E+03</pdfrwt>
<totfact> 0.13457048E+05</totfact>
</mgrwt>
</event>
<event>
 7    1  0.3337990E-009  0.9074149E+02  0.7818608E-02  0.1301066E+00
          2   -1    0    0  501    0  0.00000000000E+00  0.00000000000E+00  0.32209522171E+03  0.32209522172E+03  0.25500000000E-02 0. -1.
         -2   -1    0    0    0  501 -0.00000000000E+00 -0.00000000000E+00 -0.63909813987E+01  0.63909819074E+01  0.25500000000E-02 0.  1.
         23    2    1    2    0    0  0.00000000000E+00  0.00000000000E+00  0.31570424031E+03  0.32848620362E+03  0.90741493391E+02 0.  0.
    9000005    2    3    3    0    0 -0.18238874480E+02  0.16311306124E+02  0.29507987658E+03  0.29648495944E+03  0.15247372428E+02 0.  0.
         22    1    3    3    0    0  0.18238874480E+02 -0.16311306124E+02  0.20624363729E+02  0.32001244179E+02  0.00000000000E+00 0.  1.
         22    1    4    4    0    0 -0.18223713101E+02  0.12289101450E+02  0.28051724060E+03  0.28137705665E+03  0.00000000000E+00 0.  1.
         22    1    4    4    0    0 -0.15161378399E-01  0.40222046741E+01  0.14562635973E+02  0.15107902793E+02  0.00000000000E+00 0.  1.
<mgrwt>
<rscale>  0 0.90741493E+02</rscale>
<asrwt>0</asrwt>
<pdfrwt beam="1">  1        2 0.49553103E-01 0.90741493E+02</pdfrwt>
<pdfrwt beam="2">  1       -2 0.98322811E-03 0.90741493E+02</pdfrwt>
<totfact> 0.18683189E+05</totfact>
</mgrwt>
</event>
<event>
 7    1  0.3337990E-009  0.9103213E+02  0.7818608E-02  0.1300371E+00
          2   -1    0    0  501    0  0.00000000000E+00  0.00000000000E+00  0.18888501315E+03  0.18888501317E+03  0.25500000000E-02 0. -1.
         -2   -1    0    0    0  501 -0.00000000000E+00 -0.00000000000E+00 -0.10968113604E+02  0.10968113901E+02  0.25500000000E-02 0.  1.
         23    2    1    2    0    0  0.00000000000E+00 -0.71054273576E-14  0.17791689955E+03  0.19985312707E+03  0.91032133091E+02 0.  0.
    9000005    2    3    3    0    0 -0.22761812189E+02 -0.38001217272E+02  0.80741896988E+02  0.93058119084E+02  0.13355410512E+02 0.  0.
         22    1    3    3    0    0  0.22761812189E+02  0.38001217272E+02  0.97175002558E+02  0.10679500798E+03  0.00000000000E+00 0. -1.
         22    1    4    4    0    0 -0.70189849414E+01 -0.25368613200E+01  0.13284018465E+02  0.15237026007E+02  0.00000000000E+00 0. -1.
         22    1    4    4    0    0 -0.15742827247E+02 -0.35464355952E+02  0.67457878523E+02  0.77821093077E+02  0.00000000000E+00 0. -1.
<mgrwt>
<rscale>  0 0.91032133E+02</rscale>
<asrwt>0</asrwt>
<pdfrwt beam="1">  1        2 0.29059231E-01 0.91032133E+02</pdfrwt>
<pdfrwt beam="2">  1       -2 0.16874022E-02 0.91032133E+02</pdfrwt>
<totfact> 0.15217926E+05</totfact>
</mgrwt>
</event>
<event>
 7    1  0.3337990E-009  0.9048996E+02  0.7818608E-02  0.1301670E+00
         -2   -1    0    0    0  501 -0.00000000000E+00  0.00000000000E+00  0.67816043016E+02  0.67816043064E+02  0.25500000000E-02 0.  1.
          2   -1    0    0  501    0  0.00000000000E+00 -0.00000000000E+00 -0.30186192233E+02  0.30186192341E+02  0.25500000000E-02 0. -1.
         23    2    1    2    0    0  0.00000000000E+00  0.00000000000E+00  0.37629850783E+02  0.98002235405E+02  0.90489957865E+02 0.  0.
    9000005    2    3    3    0    0  0.10569071527E+02 -0.36171900630E+02 -0.57732521547E+01  0.40522317061E+02  0.13733756637E+02 0.  0.
         22    1    3    3    0    0 -0.10569071527E+02  0.36171900630E+02  0.43403102938E+02  0.57479918344E+02  0.00000000000E+00 0.  1.
         22    1    4    4    0    0 -0.33584533684E+01 -0.65635542208E+01 -0.15006594945E+01  0.75240568815E+01  0.00000000000E+00 0. -1.
         22    1    4    4    0    0  0.13927524895E+02 -0.29608346410E+02 -0.42725926602E+01  0.32998260179E+02  0.00000000000E+00 0. -1.
<mgrwt>
<rscale>  0 0.90489958E+02</rscale>
<asrwt>0</asrwt>
<pdfrwt beam="2">  1        2 0.46440297E-02 0.90489958E+02</pdfrwt>
<pdfrwt beam="1">  1       -2 0.10433237E-01 0.90489958E+02</pdfrwt>
<totfact> 0.90619161E+04</totfact>
</mgrwt>
</event>
<event>
 7    1  0.3337990E-009  0.8990926E+02  0.7818608E-02  0.1303072E+00
          2   -1    0    0  501    0  0.00000000000E+00  0.00000000000E+00  0.61793356952E+02  0.61793357005E+02  0.25500000000E-02 0.  1.
         -2   -1    0    0    0  501 -0.00000000000E+00 -0.00000000000E+00 -0.32704467453E+02  0.32704467553E+02  0.25500000000E-02 0. -1.
         23    2    1    2    0    0  0.00000000000E+00  0.00000000000E+00  0.29088889499E+02  0.94497824558E+02  0.89909261780E+02 0.  0.
    9000005    2    3    3    0    0  0.12154551783E+02 -0.38912270124E+02 -0.12239675915E+01  0.43696572603E+02  0.15684210701E+02 0.  0.
         22    1    3    3    0    0 -0.12154551783E+02  0.38912270124E+02  0.30312857091E+02  0.50801251955E+02  0.00000000000E+00 0.  1.
         22    1    4    4    0    0  0.67213165904E+01 -0.25578217747E+02 -0.82115807545E+01  0.27692081509E+02  0.00000000000E+00 0. -1.
         22    1    4    4    0    0  0.54332351927E+01 -0.13334052376E+02  0.69876131630E+01  0.16004491093E+02  0.00000000000E+00 0. -1.
<mgrwt>
<rscale>  0 0.89909262E+02</rscale>
<asrwt>0</asrwt>
<pdfrwt beam="1">  1        2 0.95066702E-02 0.89909262E+02</pdfrwt>
<pdfrwt beam="2">  1       -2 0.50314566E-02 0.89909262E+02</pdfrwt>
<totfact> 0.11120359E+05</totfact>
</mgrwt>
</event>
<event>
 7    1  0.3337990E-009  0.8287091E+02  0.7818608E-02  0.1321096E+00
         -2   -1    0    0    0  501 -0.00000000000E+00  0.00000000000E+00  0.32153642180E+01  0.32153652291E+01  0.25500000000E-02 0.  1.
          2   -1    0    0  501    0  0.00000000000E+00 -0.00000000000E+00 -0.53396648556E+03  0.53396648556E+03  0.25500000000E-02 0. -1.
         23    2    1    2    0    0  0.16653345369E-15  0.00000000000E+00 -0.53075112134E+03  0.53718185079E+03  0.82870911772E+02 0.  0.
    9000005    2    3    3    0    0  0.48647126730E+00  0.17498720440E+02 -0.50818501838E+03  0.50862189852E+03  0.11738009673E+02 0.  0.
         22    1    3    3    0    0 -0.48647126730E+00 -0.17498720440E+02 -0.22566102956E+02  0.28559952275E+02  0.00000000000E+00 0.  1.
         22    1    4    4    0    0  0.32747596762E+01  0.15834700955E+02 -0.31947255941E+03  0.31988150622E+03  0.00000000000E+00 0.  1.
         22    1    4    4    0    0 -0.27882884089E+01  0.16640194848E+01 -0.18871245897E+03  0.18874039229E+03  0.00000000000E+00 0.  1.
<mgrwt>
<rscale>  0 0.82870912E+02</rscale>
<asrwt>0</asrwt>
<pdfrwt beam="2">  1        2 0.82148620E-01 0.82870912E+02</pdfrwt>
<pdfrwt beam="1">  1       -2 0.49467192E-03 0.82870912E+02</pdfrwt>
<totfact> 0.28292138E+05</totfact>
</mgrwt>
</event>
<event>
 7    1  0.3337990E-009  0.9019336E+02  0.7818608E-02  0.1302384E+00
         -2   -1    0    0    0  501 -0.00000000000E+00  0.00000000000E+00  0.18803463612E+01  0.18803480902E+01  0.25500000000E-02 0. -1.
          2   -1    0    0  501    0  0.00000000000E+00 -0.00000000000E+00 -0.10815611498E+04  0.10815611498E+04  0.25500000000E-02 0.  1.
         23    2    1    2    0    0  0.35527136788E-14  0.00000000000E+00 -0.10796808034E+04  0.10834414979E+04  0.90193359195E+02 0.  0.
    9000005    2    3    3    0    0  0.25077192703E+02  0.15721878225E+02 -0.94417763268E+03  0.94474343614E+03  0.13882183727E+02 0.  0.
         22    1    3    3    0    0 -0.25077192703E+02 -0.15721878225E+02 -0.13550317076E+03  0.13869806176E+03  0.00000000000E+00 0. -1.
         22    1    4    4    0    0  0.25115644352E+01  0.30698658748E+01 -0.32672144623E+03  0.32674552095E+03  0.00000000000E+00 0. -1.
         22    1    4    4    0    0  0.22565628268E+02  0.12652012351E+02 -0.61745618645E+03  0.61799791519E+03  0.00000000000E+00 0. -1.
<mgrwt>
<rscale>  0 0.90193359E+02</rscale>
<asrwt>0</asrwt>
<pdfrwt beam="2">  1        2 0.16639353E+00 0.90193359E+02</pdfrwt>
<pdfrwt beam="1">  1       -2 0.28928505E-03 0.90193359E+02</pdfrwt>
<totfact> 0.25753556E+05</totfact>
</mgrwt>
</event>
<event>
 7    1  0.3337990E-009  0.9173672E+02  0.7818608E-02  0.1298700E+00
          2   -1    0    0  501    0  0.00000000000E+00  0.00000000000E+00  0.24819846452E+01  0.24819859552E+01  0.25500000000E-02 0. -1.
         -2   -1    0    0    0  501 -0.00000000000E+00 -0.00000000000E+00 -0.84767087391E+03  0.84767087392E+03  0.25500000000E-02 0.  1.
         23    2    1    2    0    0  0.00000000000E+00  0.00000000000E+00 -0.84518888927E+03  0.85015285987E+03  0.91736724418E+02 0.  0.
    9000005    2    3    3    0    0  0.20565593829E+02 -0.21448184364E+02 -0.74634165184E+03  0.74693588157E+03  0.20932386596E+01 0.  0.
         22    1    3    3    0    0 -0.20565593829E+02  0.21448184364E+02 -0.98847237425E+02  0.10321697830E+03  0.00000000000E+00 0. -1.
         22    1    4    4    0    0  0.11644940636E+01 -0.74233556965E+00 -0.42756996386E+02  0.42779292286E+02  0.00000000000E+00 0.  1.
         22    1    4    4    0    0  0.19401099765E+02 -0.20705848794E+02 -0.70358465546E+03  0.70415658929E+03  0.00000000000E+00 0.  1.
<mgrwt>
<rscale>  0 0.91736724E+02</rscale>
<asrwt>0</asrwt>
<pdfrwt beam="1">  1        2 0.38184457E-03 0.91736724E+02</pdfrwt>
<pdfrwt beam="2">  1       -2 0.13041067E+00 0.91736724E+02</pdfrwt>
<totfact> 0.22097924E+04</totfact>
</mgrwt>
</event>
<event>
 7    1  0.3337990E-009  0.9116839E+02  0.7818608E-02  0.1300047E+00
         -2   -1    0    0    0  501 -0.00000000000E+00  0.00000000000E+00  0.68345432852E+02  0.68345432900E+02  0.25500000000E-02 0.  1.
          2   -1    0    0  501    0  0.00000000000E+00 -0.00000000000E+00 -0.30403188068E+02  0.30403188175E+02  0.25500000000E-02 0. -1.
         23    2    1    2    0    0  0.00000000000E+00  0.35527136788E-14  0.37942244784E+02  0.98748621075E+02  0.91168394880E+02 0.  0.
    9000005    2    3    3    0    0  0.24778369902E+02 -0.22379054366E+02  0.51256822403E+02  0.62803278310E+02  0.14219712877E+02 0.  0.
         22    1    3    3    0    0 -0.24778369902E+02  0.22379054366E+02 -0.13314577619E+02  0.35945342765E+02  0.00000000000E+00 0. -1.
         22    1    4    4    0    0  0.12285348578E+02 -0.61249730017E+01  0.31368724358E+02  0.34240939704E+02  0.00000000000E+00 0. -1.
         22    1    4    4    0    0  0.12493021324E+02 -0.16254081364E+02  0.19888098045E+02  0.28562338606E+02  0.00000000000E+00 0. -1.
<mgrwt>
<rscale>  0 0.91168395E+02</rscale>
<asrwt>0</asrwt>
<pdfrwt beam="2">  1        2 0.46774136E-02 0.91168395E+02</pdfrwt>
<pdfrwt beam="1">  1       -2 0.10514682E-01 0.91168395E+02</pdfrwt>
<totfact> 0.88805951E+04</totfact>
</mgrwt>
</event>
<event>
 7    1  0.3337990E-009  0.8889586E+02  0.7818608E-02  0.1305548E+00
         -2   -1    0    0    0  501 -0.00000000000E+00  0.00000000000E+00  0.56765911028E+01  0.56765916755E+01  0.25500000000E-02 0.  1.
          2   -1    0    0  501    0  0.00000000000E+00 -0.00000000000E+00 -0.34802900319E+03  0.34802900320E+03  0.25500000000E-02 0. -1.
         23    2    1    2    0    0  0.00000000000E+00 -0.35527136788E-14 -0.34235241209E+03  0.35370559487E+03  0.88895859205E+02 0.  0.
    9000005    2    3    3    0    0  0.22102251242E+02  0.27417560416E+02 -0.27870123539E+03  0.28096149254E+03  0.49748924354E+01 0.  0.
         22    1    3    3    0    0 -0.22102251242E+02 -0.27417560416E+02 -0.63651176695E+02  0.72744102330E+02  0.00000000000E+00 0.  1.
         22    1    4    4    0    0  0.13105387363E+02  0.14572662311E+02 -0.13691801348E+03  0.13831361495E+03  0.00000000000E+00 0.  1.
         22    1    4    4    0    0  0.89968638799E+01  0.12844898104E+02 -0.14178322191E+03  0.14264787759E+03  0.00000000000E+00 0.  1.
<mgrwt>
<rscale>  0 0.88895859E+02</rscale>
<asrwt>0</asrwt>
<pdfrwt beam="2">  1        2 0.53542907E-01 0.88895859E+02</pdfrwt>
<pdfrwt beam="1">  1       -2 0.87332203E-03 0.88895859E+02</pdfrwt>
<totfact> 0.20301457E+05</totfact>
</mgrwt>
</event>
<event>
 7    1  0.3337990E-009  0.9097822E+02  0.7818608E-02  0.1300500E+00
         -2   -1    0    0    0  501 -0.00000000000E+00  0.00000000000E+00  0.88890147813E+01  0.88890151470E+01  0.25500000000E-02 0. -1.
          2   -1    0    0  501    0  0.00000000000E+00 -0.00000000000E+00 -0.23278837505E+03  0.23278837507E+03  0.25500000000E-02 0.  1.
         23    2    1    2    0    0  0.00000000000E+00 -0.35527136788E-14 -0.22389936027E+03  0.24167739021E+03  0.90978224925E+02 0.  0.
    9000005    2    3    3    0    0  0.32076167477E+02 -0.27978404771E+02 -0.15158682321E+03  0.15776806612E+03  0.10026268649E+02 0.  0.
         22    1    3    3    0    0 -0.32076167477E+02  0.27978404771E+02 -0.72312537065E+02  0.83909324096E+02  0.00000000000E+00 0. -1.
         22    1    4    4    0    0  0.13393060704E+02 -0.11813498323E+02 -0.82102214523E+02  0.84022059290E+02  0.00000000000E+00 0.  1.
         22    1    4    4    0    0  0.18683106773E+02 -0.16164906448E+02 -0.69484608684E+02  0.73746006828E+02  0.00000000000E+00 0.  1.
<mgrwt>
<rscale>  0 0.90978225E+02</rscale>
<asrwt>0</asrwt>
<pdfrwt beam="2">  1        2 0.35813592E-01 0.90978225E+02</pdfrwt>
<pdfrwt beam="1">  1       -2 0.13675409E-02 0.90978225E+02</pdfrwt>
<totfact> 0.16445728E+05</totfact>
</mgrwt>
</event>
<event>
 7    1  0.3337990E-009  0.9101147E+02  0.7818608E-02  0.1300421E+00
          2   -1    0    0  501    0  0.00000000000E+00  0.00000000000E+00  0.23918175807E+03  0.23918175809E+03  0.25500000000E-02 0. -1.
         -2   -1    0    0    0  501 -0.00000000000E+00 -0.00000000000E+00 -0.86577327804E+01  0.86577331560E+01  0.25500000000E-02 0.  1.
         23    2    1    2    0    0  0.00000000000E+00  0.00000000000E+00  0.23052402529E+03  0.24783949124E+03  0.91011467312E+02 0.  0.
    9000005    2    3    3    0    0  0.41473977493E+02 -0.10369268390E+02  0.15560078061E+03  0.16157765072E+03  0.82535901768E+01 0.  0.
         22    1    3    3    0    0 -0.41473977493E+02  0.10369268390E+02  0.74923244686E+02  0.86261840522E+02  0.00000000000E+00 0.  1.
         22    1    4    4    0    0  0.14460270353E+01  0.10198626261E+01  0.95849432067E+01  0.97469097789E+01  0.00000000000E+00 0. -1.
         22    1    4    4    0    0  0.40027950458E+02 -0.11389131017E+02  0.14601583740E+03  0.15183074094E+03  0.00000000000E+00 0. -1.
<mgrwt>
<rscale>  0 0.91011467E+02</rscale>
<asrwt>0</asrwt>
<pdfrwt beam="1">  1        2 0.36797190E-01 0.91011467E+02</pdfrwt>
<pdfrwt beam="2">  1       -2 0.13319590E-02 0.91011467E+02</pdfrwt>
<totfact> 0.16594465E+05</totfact>
</mgrwt>
</event>
<event>
 7    1  0.3337990E-009  0.9157150E+02  0.7818608E-02  0.1299090E+00
          2   -1    0    0  501    0  0.00000000000E+00  0.00000000000E+00  0.13551623542E+02  0.13551623782E+02  0.25500000000E-02 0. -1.
         -2   -1    0    0    0  501 -0.00000000000E+00 -0.00000000000E+00 -0.15469251975E+03  0.15469251977E+03  0.25500000000E-02 0.  1.
         23    2    1    2    0    0  0.00000000000E+00  0.17763568394E-14 -0.14114089621E+03  0.16824414355E+03  0.91571498063E+02 0.  0.
    9000005    2    3    3    0    0  0.11362240808E+02 -0.83762818063E+01 -0.15049649550E+03  0.15130927269E+03  0.67851479205E+01 0.  0.
         22    1    3    3    0    0 -0.11362240808E+02  0.83762818063E+01  0.93555992885E+01  0.16934870862E+02  0.00000000000E+00 0. -1.
         22    1    4    4    0    0  0.99575611805E+01 -0.83431287636E+01 -0.10635889403E+03  0.10714931246E+03  0.00000000000E+00 0. -1.
         22    1    4    4    0    0  0.14046796274E+01 -0.33153042761E-01 -0.44137601470E+02  0.44159960230E+02  0.00000000000E+00 0. -1.
<mgrwt>
<rscale>  0 0.91571498E+02</rscale>
<asrwt>0</asrwt>
<pdfrwt beam="1">  1        2 0.20848653E-02 0.91571498E+02</pdfrwt>
<pdfrwt beam="2">  1       -2 0.23798848E-01 0.91571498E+02</pdfrwt>
<totfact> 0.68318172E+04</totfact>
</mgrwt>
</event>
<event>
 7    1  0.3337990E-009  0.8990427E+02  0.7818608E-02  0.1303084E+00
          2   -1    0    0  501    0  0.00000000000E+00  0.00000000000E+00  0.20210471182E+02  0.20210471343E+02  0.25500000000E-02 0. -1.
         -2   -1    0    0    0  501 -0.00000000000E+00 -0.00000000000E+00 -0.99982539606E+02  0.99982539639E+02  0.25500000000E-02 0.  1.
         23    2    1    2    0    0  0.00000000000E+00  0.00000000000E+00 -0.79772068425E+02  0.12019301098E+03  0.89904265683E+02 0.  0.
    9000005    2    3    3    0    0 -0.14223474987E+02  0.31418020378E+02 -0.35311399130E+01  0.36514588282E+02  0.11465032191E+02 0.  0.
         22    1    3    3    0    0  0.14223474987E+02 -0.31418020378E+02 -0.76240928512E+02  0.83678422699E+02  0.00000000000E+00 0.  1.
         22    1    4    4    0    0 -0.23997857944E+01  0.17207275819E+02  0.12538982950E+01  0.17419000370E+02  0.00000000000E+00 0. -1.
         22    1    4    4    0    0 -0.11823689192E+02  0.14210744559E+02 -0.47850382079E+01  0.19095587912E+02  0.00000000000E+00 0. -1.
<mgrwt>
<rscale>  0 0.89904266E+02</rscale>
<asrwt>0</asrwt>
<pdfrwt beam="1">  1        2 0.31093033E-02 0.89904266E+02</pdfrwt>
<pdfrwt beam="2">  1       -2 0.15381929E-01 0.89904266E+02</pdfrwt>
<totfact> 0.82649127E+04</totfact>
</mgrwt>
</event>
<event>
 7    1  0.3337990E-009  0.9870945E+02  0.7818608E-02  0.1283033E+00
          2   -1    0    0  501    0  0.00000000000E+00  0.00000000000E+00  0.12240442729E+02  0.12240442994E+02  0.25500000000E-02 0. -1.
         -2   -1    0    0    0  501 -0.00000000000E+00 -0.00000000000E+00 -0.19900331905E+03  0.19900331906E+03  0.25500000000E-02 0.  1.
         23    2    1    2    0    0  0.00000000000E+00  0.00000000000E+00 -0.18676287632E+03  0.21124376206E+03  0.98709447560E+02 0.  0.
    9000005    2    3    3    0    0 -0.33589753333E+02  0.76121133422E+01 -0.18274715755E+02  0.39271450191E+02  0.46974211769E+01 0.  0.
         22    1    3    3    0    0  0.33589753333E+02 -0.76121133422E+01 -0.16848816056E+03  0.17197231187E+03  0.00000000000E+00 0.  1.
         22    1    4    4    0    0 -0.20638233000E+02  0.60209748322E+01 -0.92401984989E+01  0.23400215119E+02  0.00000000000E+00 0. -1.
         22    1    4    4    0    0 -0.12951520332E+02  0.15911385101E+01 -0.90345172556E+01  0.15871235072E+02  0.00000000000E+00 0. -1.
<mgrwt>
<rscale>  0 0.98709448E+02</rscale>
<asrwt>0</asrwt>
<pdfrwt beam="1">  1        2 0.18831452E-02 0.98709448E+02</pdfrwt>
<pdfrwt beam="2">  1       -2 0.30615893E-01 0.98709448E+02</pdfrwt>
<totfact> 0.50979876E+04</totfact>
</mgrwt>
</event>
<event>
 7    1  0.3337990E-009  0.9398813E+02  0.7818608E-02  0.1293471E+00
         -2   -1    0    0    0  501 -0.00000000000E+00  0.00000000000E+00  0.71425264864E+02  0.71425264909E+02  0.25500000000E-02 0.  1.
          2   -1    0    0  501    0  0.00000000000E+00 -0.00000000000E+00 -0.30919619595E+02  0.30919619700E+02  0.25500000000E-02 0. -1.
         23    2    1    2    0    0  0.00000000000E+00  0.00000000000E+00  0.40505645269E+02  0.10234488461E+03  0.93988127479E+02 0.  0.
    9000005    2    3    3    0    0  0.11220708491E+02  0.38888696063E+01 -0.27746793137E+02  0.33067016900E+02  0.13509828697E+02 0.  0.
         22    1    3    3    0    0 -0.11220708491E+02 -0.38888696063E+01  0.68252438406E+02  0.69277867709E+02  0.00000000000E+00 0.  1.
         22    1    4    4    0    0  0.88856966323E+01  0.88245509029E+01 -0.18997369255E+02  0.22753644585E+02  0.00000000000E+00 0. -1.
         22    1    4    4    0    0  0.23350118589E+01 -0.49356812966E+01 -0.87494238819E+01  0.10313372315E+02  0.00000000000E+00 0. -1.
<mgrwt>
<rscale>  0 0.93988127E+02</rscale>
<asrwt>0</asrwt>
<pdfrwt beam="2">  1        2 0.47568646E-02 0.93988127E+02</pdfrwt>
<pdfrwt beam="1">  1       -2 0.10988502E-01 0.93988127E+02</pdfrwt>
<totfact> 0.81480597E+04</totfact>
</mgrwt>
</event>
<event>
 7    1  0.3337990E-009  0.9144954E+02  0.7818608E-02  0.1299379E+00
          2   -1    0    0  501    0  0.00000000000E+00  0.00000000000E+00  0.41768167193E+03  0.41768167194E+03  0.25500000000E-02 0. -1.
         -2   -1    0    0    0  501 -0.00000000000E+00 -0.00000000000E+00 -0.50056174009E+01  0.50056180505E+01  0.25500000000E-02 0.  1.
         23    2    1    2    0    0  0.00000000000E+00  0.00000000000E+00  0.41267605453E+03  0.42268728999E+03  0.91449544209E+02 0.  0.
    9000005    2    3    3    0    0  0.19607095162E+02 -0.12284142501E+02  0.38840330895E+03  0.38915365738E+03  0.69354391877E+01 0.  0.
         22    1    3    3    0    0 -0.19607095162E+02  0.12284142501E+02  0.24272745589E+02  0.33533632611E+02  0.00000000000E+00 0.  1.
         22    1    4    4    0    0  0.70039994354E+01 -0.17081922465E+01  0.85282539901E+02  0.85586713576E+02  0.00000000000E+00 0.  1.
         22    1    4    4    0    0  0.12603095726E+02 -0.10575950255E+02  0.30312076904E+03  0.30356694381E+03  0.00000000000E+00 0.  1.
<mgrwt>
<rscale>  0 0.91449544E+02</rscale>
<asrwt>0</asrwt>
<pdfrwt beam="1">  1        2 0.64258716E-01 0.91449544E+02</pdfrwt>
<pdfrwt beam="2">  1       -2 0.77009507E-03 0.91449544E+02</pdfrwt>
<totfact> 0.20111429E+05</totfact>
</mgrwt>
</event>
<event>
 7    1  0.3337990E-009  0.9613728E+02  0.7818608E-02  0.1288635E+00
         -2   -1    0    0    0  501 -0.00000000000E+00  0.00000000000E+00  0.13285965889E+02  0.13285966134E+02  0.25500000000E-02 0.  1.
          2   -1    0    0  501    0  0.00000000000E+00 -0.00000000000E+00 -0.17391240459E+03  0.17391240461E+03  0.25500000000E-02 0. -1.
         23    2    1    2    0    0  0.00000000000E+00  0.00000000000E+00 -0.16062643870E+03  0.18719837074E+03  0.96137283086E+02 0.  0.
    9000005    2    3    3    0    0 -0.18763740542E+02 -0.15734100373E+02 -0.16072586713E+03  0.16271062361E+03  0.65040599344E+01 0.  0.
         22    1    3    3    0    0  0.18763740542E+02  0.15734100373E+02  0.99428433012E-01  0.24487747134E+02  0.00000000000E+00 0.  1.
         22    1    4    4    0    0 -0.22889259604E+01 -0.16756978259E+01 -0.87252208149E+01  0.91747819333E+01  0.00000000000E+00 0.  1.
         22    1    4    4    0    0 -0.16474814581E+02 -0.14058402548E+02 -0.15200064632E+03  0.15353584168E+03  0.00000000000E+00 0.  1.
<mgrwt>
<rscale>  0 0.96137283E+02</rscale>
<asrwt>0</asrwt>
<pdfrwt beam="2">  1        2 0.26755753E-01 0.96137283E+02</pdfrwt>
<pdfrwt beam="1">  1       -2 0.20439949E-02 0.96137283E+02</pdfrwt>
<totfact> 0.12744723E+05</totfact>
</mgrwt>
</event>
<event>
 7    1  0.3337990E-009  0.9132999E+02  0.7818608E-02  0.1299663E+00
         -2   -1    0    0    0  501 -0.00000000000E+00  0.00000000000E+00  0.77411399992E+02  0.77411400034E+02  0.25500000000E-02 0.  1.
          2   -1    0    0  501    0  0.00000000000E+00 -0.00000000000E+00 -0.26937787416E+02  0.26937787536E+02  0.25500000000E-02 0. -1.
         23    2    1    2    0    0  0.00000000000E+00  0.00000000000E+00  0.50473612577E+02  0.10434918757E+03  0.91329991679E+02 0.  0.
    9000005    2    3    3    0    0  0.24632340723E+02  0.19678895261E+02  0.62455588519E+02  0.70621174351E+02  0.96248948688E+01 0.  0.
         22    1    3    3    0    0 -0.24632340723E+02 -0.19678895261E+02 -0.11981975943E+02  0.33728013219E+02  0.00000000000E+00 0.  1.
         22    1    4    4    0    0  0.50999721764E+01  0.31296783925E+01  0.52972638545E+01  0.79915960474E+01  0.00000000000E+00 0. -1.
         22    1    4    4    0    0  0.19532368547E+02  0.16549216869E+02  0.57158324665E+02  0.62629578304E+02  0.00000000000E+00 0. -1.
<mgrwt>
<rscale>  0 0.91329992E+02</rscale>
<asrwt>0</asrwt>
<pdfrwt beam="2">  1        2 0.41442751E-02 0.91329992E+02</pdfrwt>
<pdfrwt beam="1">  1       -2 0.11909446E-01 0.91329992E+02</pdfrwt>
<totfact> 0.85498803E+04</totfact>
</mgrwt>
</event>
<event>
 7    1  0.3337990E-009  0.9236197E+02  0.7818608E-02  0.1297231E+00
         -2   -1    0    0    0  501 -0.00000000000E+00  0.00000000000E+00  0.18416692581E+02  0.18416692757E+02  0.25500000000E-02 0.  1.
          2   -1    0    0  501    0  0.00000000000E+00 -0.00000000000E+00 -0.11580165335E+03  0.11580165337E+03  0.25500000000E-02 0. -1.
         23    2    1    2    0    0  0.00000000000E+00  0.00000000000E+00 -0.97384960765E+02  0.13421834613E+03  0.92361971909E+02 0.  0.
    9000005    2    3    3    0    0  0.88222360179E+01 -0.44842101972E+02 -0.45961645578E+02  0.65421519878E+02  0.88801149338E+01 0.  0.
         22    1    3    3    0    0 -0.88222360179E+01  0.44842101972E+02 -0.51423315187E+02  0.68796826253E+02  0.00000000000E+00 0. -1.
         22    1    4    4    0    0  0.84483004624E+01 -0.44047209873E+02 -0.42281918612E+02  0.61638389984E+02  0.00000000000E+00 0. -1.
         22    1    4    4    0    0  0.37393555551E+00 -0.79489209953E+00 -0.36797269667E+01  0.37831298945E+01  0.00000000000E+00 0. -1.
<mgrwt>
<rscale>  0 0.92361972E+02</rscale>
<asrwt>0</asrwt>
<pdfrwt beam="2">  1        2 0.17815639E-01 0.92361972E+02</pdfrwt>
<pdfrwt beam="1">  1       -2 0.28333374E-02 0.92361972E+02</pdfrwt>
<totfact> 0.12393110E+05</totfact>
</mgrwt>
</event>
<event>
 7    1  0.3337990E-009  0.9234685E+02  0.7818608E-02  0.1297266E+00
          2   -1    0    0  501    0  0.00000000000E+00  0.00000000000E+00  0.65111423842E+02  0.65111423892E+02  0.25500000000E-02 0.  1.
         -2   -1    0    0    0  501 -0.00000000000E+00 -0.00000000000E+00 -0.32743645555E+02  0.32743645655E+02  0.25500000000E-02 0. -1.
         23    2    1    2    0    0  0.00000000000E+00  0.00000000000E+00  0.32367778286E+02  0.97855069546E+02  0.92346854655E+02 0.  0.
    9000005    2    3    3    0    0 -0.24578499258E+02  0.33268310984E+02  0.37760831212E+02  0.56142143955E+02  0.38957428798E+01 0.  0.
         22    1    3    3    0    0  0.24578499258E+02 -0.33268310984E+02 -0.53930529255E+01  0.41712925591E+02  0.00000000000E+00 0. -1.
         22    1    4    4    0    0 -0.13100863069E+02  0.15190385366E+02  0.16606625344E+02  0.26041513513E+02  0.00000000000E+00 0.  1.
         22    1    4    4    0    0 -0.11477636188E+02  0.18077925618E+02  0.21154205867E+02  0.30100630442E+02  0.00000000000E+00 0.  1.
<mgrwt>
<rscale>  0 0.92346855E+02</rscale>
<asrwt>0</asrwt>
<pdfrwt beam="1">  1        2 0.10017142E-01 0.92346855E+02</pdfrwt>
<pdfrwt beam="2">  1       -2 0.50374840E-02 0.92346855E+02</pdfrwt>
<totfact> 0.10461867E+05</totfact>
</mgrwt>
</event>
<event>
 7    1  0.3337990E-009  0.9475989E+02  0.7818608E-02  0.1291718E+00
         -2   -1    0    0    0  501 -0.00000000000E+00  0.00000000000E+00  0.22256398347E+02  0.22256398494E+02  0.25500000000E-02 0.  1.
          2   -1    0    0  501    0  0.00000000000E+00 -0.00000000000E+00 -0.10086354290E+03  0.10086354293E+03  0.25500000000E-02 0. -1.
         23    2    1    2    0    0  0.88817841970E-15  0.35527136788E-14 -0.78607144548E+02  0.12311994142E+03  0.94759890257E+02 0.  0.
    9000005    2    3    3    0    0  0.51411456269E+01  0.19154240699E+02  0.14578436400E+02  0.27847338792E+02  0.13024099002E+02 0.  0.
         22    1    3    3    0    0 -0.51411456269E+01 -0.19154240699E+02 -0.93185580948E+02  0.95272602629E+02  0.00000000000E+00 0. -1.
         22    1    4    4    0    0  0.87849484116E+01  0.17762394830E+02  0.11880843323E+02  0.23104813930E+02  0.00000000000E+00 0. -1.
         22    1    4    4    0    0 -0.36438027847E+01  0.13918458693E+01  0.26975930770E+01  0.47425248620E+01  0.00000000000E+00 0. -1.
<mgrwt>
<rscale>  0 0.94759890E+02</rscale>
<asrwt>0</asrwt>
<pdfrwt beam="2">  1        2 0.15517468E-01 0.94759890E+02</pdfrwt>
<pdfrwt beam="1">  1       -2 0.34240614E-02 0.94759890E+02</pdfrwt>
<totfact> 0.11057571E+05</totfact>
</mgrwt>
</event>
<event>
 7    1  0.3337990E-009  0.9108908E+02  0.7818608E-02  0.1300236E+00
          2   -1    0    0  501    0  0.00000000000E+00  0.00000000000E+00  0.10983958118E+03  0.10983958121E+03  0.25500000000E-02 0.  1.
         -2   -1    0    0    0  501 -0.00000000000E+00 -0.00000000000E+00 -0.18884858893E+02  0.18884859066E+02  0.25500000000E-02 0. -1.
         23    2    1    2    0    0  0.00000000000E+00  0.00000000000E+00  0.90954722287E+02  0.12872444028E+03  0.91089077380E+02 0.  0.
    9000005    2    3    3    0    0 -0.25091473881E+02 -0.23244343936E+02  0.86805743570E+02  0.94270186387E+02  0.13481444218E+02 0.  0.
         22    1    3    3    0    0  0.25091473881E+02  0.23244343936E+02  0.41489787163E+01  0.34454253888E+02  0.00000000000E+00 0. -1.
         22    1    4    4    0    0 -0.11598737311E+02 -0.78517169065E+01  0.52364988818E+02  0.54205831970E+02  0.00000000000E+00 0. -1.
         22    1    4    4    0    0 -0.13492736570E+02 -0.15392627030E+02  0.34440754752E+02  0.40064354418E+02  0.00000000000E+00 0. -1.
<mgrwt>
<rscale>  0 0.91089077E+02</rscale>
<asrwt>0</asrwt>
<pdfrwt beam="1">  1        2 0.16898397E-01 0.91089077E+02</pdfrwt>
<pdfrwt beam="2">  1       -2 0.29053630E-02 0.91089077E+02</pdfrwt>
<totfact> 0.12661468E+05</totfact>
</mgrwt>
</event>
<event>
 7    1  0.3337990E-009  0.9163435E+02  0.7818608E-02  0.1298941E+00
         -2   -1    0    0    0  501 -0.00000000000E+00  0.00000000000E+00  0.15251763971E+03  0.15251763973E+03  0.25500000000E-02 0.  1.
          2   -1    0    0  501    0  0.00000000000E+00 -0.00000000000E+00 -0.13763742080E+02  0.13763742316E+02  0.25500000000E-02 0. -1.
         23    2    1    2    0    0  0.00000000000E+00  0.00000000000E+00  0.13875389763E+03  0.16628138205E+03  0.91634348953E+02 0.  0.
    9000005    2    3    3    0    0  0.44266542264E+02 -0.79576806289E+01  0.58882516776E+02  0.74617381891E+02  0.88176784625E+01 0.  0.
         22    1    3    3    0    0 -0.44266542264E+02  0.79576806289E+01  0.79871380857E+02  0.91664000158E+02  0.00000000000E+00 0.  1.
         22    1    4    4    0    0  0.14224326883E+02 -0.56101595275E+01  0.24689850172E+02  0.29041247679E+02  0.00000000000E+00 0. -1.
         22    1    4    4    0    0  0.30042215381E+02 -0.23475211014E+01  0.34192666603E+02  0.45576134213E+02  0.00000000000E+00 0. -1.
<mgrwt>
<rscale>  0 0.91634349E+02</rscale>
<asrwt>0</asrwt>
<pdfrwt beam="2">  1        2 0.21174989E-02 0.91634349E+02</pdfrwt>
<pdfrwt beam="1">  1       -2 0.23464252E-01 0.91634349E+02</pdfrwt>
<totfact> 0.68556946E+04</totfact>
</mgrwt>
</event>
<event>
 7    1  0.3337990E-009  0.9347985E+02  0.7818608E-02  0.1294637E+00
         -2   -1    0    0    0  501 -0.00000000000E+00  0.00000000000E+00  0.17330968308E+01  0.17330987067E+01  0.25500000000E-02 0.  1.
          2   -1    0    0  501    0  0.00000000000E+00 -0.00000000000E+00 -0.12605292780E+04  0.12605292780E+04  0.25500000000E-02 0. -1.
         23    2    1    2    0    0  0.00000000000E+00  0.00000000000E+00 -0.12587961812E+04  0.12622623767E+04  0.93479847719E+02 0.  0.
    9000005    2    3    3    0    0  0.36271707554E+00 -0.32369673545E+02 -0.10791893313E+04  0.10797615607E+04  0.13692618991E+02 0.  0.
         22    1    3    3    0    0 -0.36271707554E+00  0.32369673545E+02 -0.17960684986E+03  0.18250081602E+03  0.00000000000E+00 0.  1.
         22    1    4    4    0    0 -0.24853525388E+01 -0.22574978472E+02 -0.54233621097E+03  0.54281154405E+03  0.00000000000E+00 0.  1.
         22    1    4    4    0    0  0.28480696143E+01 -0.97946950734E+01 -0.53685312033E+03  0.53695001663E+03  0.00000000000E+00 0.  1.
<mgrwt>
<rscale>  0 0.93479848E+02</rscale>
<asrwt>0</asrwt>
<pdfrwt beam="2">  1        2 0.19392685E+00 0.93479848E+02</pdfrwt>
<pdfrwt beam="1">  1       -2 0.26663143E-03 0.93479848E+02</pdfrwt>
<totfact> 0.23131909E+05</totfact>
</mgrwt>
</event>
<event>
 7    1  0.3337990E-009  0.9110653E+02  0.7818608E-02  0.1300194E+00
          2   -1    0    0  501    0  0.00000000000E+00  0.00000000000E+00  0.81639706402E+01  0.81639710385E+01  0.25500000000E-02 0. -1.
         -2   -1    0    0    0  501 -0.00000000000E+00 -0.00000000000E+00 -0.25417777815E+03  0.25417777816E+03  0.25500000000E-02 0.  1.
         23    2    1    2    0    0  0.00000000000E+00  0.00000000000E+00 -0.24601380751E+03  0.26234174920E+03  0.91106530438E+02 0.  0.
    9000005    2    3    3    0    0 -0.30087710818E+02  0.11831682897E+02 -0.21536456380E+03  0.21779250451E+03  0.25338940023E+01 0.  0.
         22    1    3    3    0    0  0.30087710818E+02 -0.11831682897E+02 -0.30649243714E+02  0.44549244692E+02  0.00000000000E+00 0. -1.
         22    1    4    4    0    0 -0.29819404994E+02  0.11964088390E+02 -0.21348114229E+03  0.21588546602E+03  0.00000000000E+00 0. -1.
         22    1    4    4    0    0 -0.26830582361E+00 -0.13240549238E+00 -0.18834215019E+01  0.19070384850E+01  0.00000000000E+00 0. -1.
<mgrwt>
<rscale>  0 0.91106530E+02</rscale>
<asrwt>0</asrwt>
<pdfrwt beam="1">  1        2 0.12559957E-02 0.91106530E+02</pdfrwt>
<pdfrwt beam="2">  1       -2 0.39104268E-01 0.91106530E+02</pdfrwt>
<totfact> 0.55822380E+04</totfact>
</mgrwt>
</event>
<event>
 7    1  0.4458754E-009  0.8933411E+02  0.7818608E-02  0.1304472E+00
         -2   -1    0    0    0  501 -0.00000000000E+00  0.00000000000E+00  0.12483455255E+02  0.12483455516E+02  0.25500000000E-02 0.  1.
          2   -1    0    0  501    0  0.00000000000E+00 -0.00000000000E+00 -0.15982321558E+03  0.15982321560E+03  0.25500000000E-02 0. -1.
         23    2    1    2    0    0  0.00000000000E+00  0.88817841970E-15 -0.14733976033E+03  0.17230667112E+03  0.89334114081E+02 0.  0.
    9000005    2    3    3    0    0  0.12635956766E+02  0.44735512783E+01 -0.15543442918E+03  0.15664768877E+03  0.14105196129E+02 0.  0.
         22    1    3    3    0    0 -0.12635956766E+02 -0.44735512783E+01  0.80946688513E+01  0.15658982350E+02  0.00000000000E+00 0.  1.
         22    1    4    4    0    0  0.38793187982E+00 -0.56667632881E+00 -0.37927332628E-01  0.68778753084E+00  0.00000000000E+00 0.  1.
         22    1    4    4    0    0  0.12248024886E+02  0.50402276071E+01 -0.15539650185E+03  0.15595990124E+03  0.00000000000E+00 0.  1.
<mgrwt>
<rscale>  0 0.89334114E+02</rscale>
<asrwt>0</asrwt>
<pdfrwt beam="2">  1        2 0.24588186E-01 0.89334114E+02</pdfrwt>
<pdfrwt beam="1">  1       -2 0.19205317E-02 0.89334114E+02</pdfrwt>
<totfact> 0.15098994E+05</totfact>
</mgrwt>
</event>
<event>
 7    1  0.3337990E-009  0.8874738E+02  0.7818608E-02  0.1305914E+00
          2   -1    0    0  501    0  0.00000000000E+00  0.00000000000E+00  0.26814931818E+03  0.26814931819E+03  0.25500000000E-02 0. -1.
         -2   -1    0    0    0  501 -0.00000000000E+00 -0.00000000000E+00 -0.73430152007E+01  0.73430156435E+01  0.25500000000E-02 0.  1.
         23    2    1    2    0    0  0.00000000000E+00  0.35527136788E-14  0.26080630298E+03  0.27549233384E+03  0.88747384911E+02 0.  0.
    9000005    2    3    3    0    0  0.19626207176E+02 -0.31676343221E+02  0.58498062985E+02  0.69780878886E+02  0.76660913831E+01 0.  0.
         22    1    3    3    0    0 -0.19626207176E+02  0.31676343221E+02  0.20230824000E+03  0.20571145495E+03  0.00000000000E+00 0. -1.
         22    1    4    4    0    0  0.13589188352E+02 -0.25467678906E+02  0.49433467145E+02  0.57244531467E+02  0.00000000000E+00 0. -1.
         22    1    4    4    0    0  0.60370188236E+01 -0.62086643151E+01  0.90645958404E+01  0.12536347419E+02  0.00000000000E+00 0. -1.
<mgrwt>
<rscale>  0 0.88747385E+02</rscale>
<asrwt>0</asrwt>
<pdfrwt beam="1">  1        2 0.41253737E-01 0.88747385E+02</pdfrwt>
<pdfrwt beam="2">  1       -2 0.11296948E-02 0.88747385E+02</pdfrwt>
<totfact> 0.18516891E+05</totfact>
</mgrwt>
</event>
<event>
 7    1  0.3337990E-009  0.9037463E+02  0.7818608E-02  0.1301947E+00
          2   -1    0    0  501    0  0.00000000000E+00  0.00000000000E+00  0.20989897116E+02  0.20989897271E+02  0.25500000000E-02 0. -1.
         -2   -1    0    0    0  501 -0.00000000000E+00 -0.00000000000E+00 -0.97279815333E+02  0.97279815366E+02  0.25500000000E-02 0.  1.
         23    2    1    2    0    0  0.35527136788E-14  0.00000000000E+00 -0.76289918217E+02  0.11826971264E+03  0.90374627554E+02 0.  0.
    9000005    2    3    3    0    0 -0.14733563840E+02 -0.18796634440E+02  0.10200171986E+02  0.28542754185E+02  0.11842885552E+02 0.  0.
         22    1    3    3    0    0  0.14733563840E+02  0.18796634440E+02 -0.86490090203E+02  0.89726958452E+02  0.00000000000E+00 0.  1.
         22    1    4    4    0    0 -0.16230501574E+02 -0.18080983556E+02  0.11034696370E+02  0.26685495530E+02  0.00000000000E+00 0. -1.
         22    1    4    4    0    0  0.14969377331E+01 -0.71565088377E+00 -0.83452438426E+00  0.18572586552E+01  0.00000000000E+00 0. -1.
<mgrwt>
<rscale>  0 0.90374628E+02</rscale>
<asrwt>0</asrwt>
<pdfrwt beam="1">  1        2 0.32292150E-02 0.90374628E+02</pdfrwt>
<pdfrwt beam="2">  1       -2 0.14966125E-01 0.90374628E+02</pdfrwt>
<totfact> 0.82247438E+04</totfact>
</mgrwt>
</event>
<event>
 7    1  0.3337990E-009  0.9114423E+02  0.7818608E-02  0.1300104E+00
          2   -1    0    0  501    0  0.00000000000E+00  0.00000000000E+00  0.10662131667E+03  0.10662131670E+03  0.25500000000E-02 0. -1.
         -2   -1    0    0    0  501 -0.00000000000E+00 -0.00000000000E+00 -0.19478447096E+02  0.19478447263E+02  0.25500000000E-02 0.  1.
         23    2    1    2    0    0 -0.71054273576E-14  0.00000000000E+00  0.87142869577E+02  0.12609976397E+03  0.91144230505E+02 0.  0.
    9000005    2    3    3    0    0  0.36224458514E+02  0.24363210923E+02  0.27672686984E+02  0.52326597715E+02  0.81558434571E+01 0.  0.
         22    1    3    3    0    0 -0.36224458514E+02 -0.24363210923E+02  0.59470182593E+02  0.73773166251E+02  0.00000000000E+00 0.  1.
         22    1    4    4    0    0  0.15054875571E+02  0.11607818274E+02  0.16625356593E+02  0.25254568011E+02  0.00000000000E+00 0. -1.
         22    1    4    4    0    0  0.21169582942E+02  0.12755392649E+02  0.11047330390E+02  0.27072029705E+02  0.00000000000E+00 0. -1.
<mgrwt>
<rscale>  0 0.91144231E+02</rscale>
<asrwt>0</asrwt>
<pdfrwt beam="1">  1        2 0.16403279E-01 0.91144231E+02</pdfrwt>
<pdfrwt beam="2">  1       -2 0.29966842E-02 0.91144231E+02</pdfrwt>
<totfact> 0.12523985E+05</totfact>
</mgrwt>
</event>
<event>
 7    1  0.3337990E-009  0.9179560E+02  0.7818608E-02  0.1298561E+00
         -2   -1    0    0    0  501 -0.00000000000E+00  0.00000000000E+00  0.22011534233E+02  0.22011534380E+02  0.25500000000E-02 0.  1.
          2   -1    0    0  501    0  0.00000000000E+00 -0.00000000000E+00 -0.95704725964E+02  0.95704725998E+02  0.25500000000E-02 0. -1.
         23    2    1    2    0    0 -0.22204460493E-15 -0.35527136788E-14 -0.73693191731E+02  0.11771626038E+03  0.91795596027E+02 0.  0.
    9000005    2    3    3    0    0  0.31121220281E+00  0.28325633554E+02 -0.82870988434E+02  0.87939250427E+02  0.79544121319E+01 0.  0.
         22    1    3    3    0    0 -0.31121220281E+00 -0.28325633554E+02  0.91777967031E+01  0.29777009951E+02  0.00000000000E+00 0.  1.
         22    1    4    4    0    0 -0.21377020216E+01  0.67994933478E+01 -0.13530940951E+02  0.15293437898E+02  0.00000000000E+00 0.  1.
         22    1    4    4    0    0  0.24489142244E+01  0.21526140206E+02 -0.69340047484E+02  0.72645812530E+02  0.00000000000E+00 0.  1.
<mgrwt>
<rscale>  0 0.91795596E+02</rscale>
<asrwt>0</asrwt>
<pdfrwt beam="2">  1        2 0.14723804E-01 0.91795596E+02</pdfrwt>
<pdfrwt beam="1">  1       -2 0.33863900E-02 0.91795596E+02</pdfrwt>
<totfact> 0.11881672E+05</totfact>
</mgrwt>
</event>
<event>
 7    1  0.3337990E-009  0.1025437E+03  0.7818608E-02  0.1275036E+00
         -2   -1    0    0    0  501 -0.00000000000E+00  0.00000000000E+00  0.31458882238E+03  0.31458882239E+03  0.25500000000E-02 0.  1.
          2   -1    0    0  501    0  0.00000000000E+00 -0.00000000000E+00 -0.83563126627E+01  0.83563130517E+01  0.25500000000E-02 0. -1.
         23    2    1    2    0    0  0.00000000000E+00  0.00000000000E+00  0.30623250972E+03  0.32294513545E+03  0.10254370043E+03 0.  0.
    9000005    2    3    3    0    0  0.12222733357E+01 -0.49833481675E+02  0.17952908652E+03  0.18678850762E+03  0.13205446871E+02 0.  0.
         22    1    3    3    0    0 -0.12222733357E+01  0.49833481675E+02  0.12670342321E+03  0.13615662782E+03  0.00000000000E+00 0.  1.
         22    1    4    4    0    0  0.31715039272E+01 -0.34600501785E+02  0.10207194484E+03  0.10782362952E+03  0.00000000000E+00 0.  1.
         22    1    4    4    0    0 -0.19492305915E+01 -0.15232979890E+02  0.77457141677E+02  0.78964878098E+02  0.00000000000E+00 0.  1.
<mgrwt>
<rscale>  0 0.10254370E+03</rscale>
<asrwt>0</asrwt>
<pdfrwt beam="2">  1        2 0.12855867E-02 0.10254370E+03</pdfrwt>
<pdfrwt beam="1">  1       -2 0.48398276E-01 0.10254370E+03</pdfrwt>
<totfact> 0.36636359E+04</totfact>
</mgrwt>
</event>
<event>
 7    1  0.3337990E-009  0.9291858E+02  0.7818608E-02  0.1295934E+00
         -2   -1    0    0    0  501 -0.00000000000E+00  0.00000000000E+00  0.69729682728E+01  0.69729687391E+01  0.25500000000E-02 0.  1.
          2   -1    0    0  501    0  0.00000000000E+00 -0.00000000000E+00 -0.30954758767E+03  0.30954758769E+03  0.25500000000E-02 0. -1.
         23    2    1    2    0    0  0.00000000000E+00  0.00000000000E+00 -0.30257461940E+03  0.31652055642E+03  0.92918579052E+02 0.  0.
    9000005    2    3    3    0    0 -0.45290205502E+02  0.53021567119E+01 -0.15556714555E+03  0.16260332884E+03  0.12624982919E+02 0.  0.
         22    1    3    3    0    0  0.45290205502E+02 -0.53021567119E+01 -0.14700747385E+03  0.15391722758E+03  0.00000000000E+00 0. -1.
         22    1    4    4    0    0 -0.38303896319E+02  0.87414752071E+01 -0.13540187985E+03  0.14098677572E+03  0.00000000000E+00 0. -1.
         22    1    4    4    0    0 -0.69863091828E+01 -0.34393184952E+01 -0.20165265707E+02  0.21616553119E+02  0.00000000000E+00 0. -1.
<mgrwt>
<rscale>  0 0.92918579E+02</rscale>
<asrwt>0</asrwt>
<pdfrwt beam="2">  1        2 0.47622695E-01 0.92918579E+02</pdfrwt>
<pdfrwt beam="1">  1       -2 0.10727646E-02 0.92918579E+02</pdfrwt>
<totfact> 0.17280756E+05</totfact>
</mgrwt>
</event>
<event>
 7    1  0.3337990E-009  0.9095701E+02  0.7818608E-02  0.1300551E+00
          2   -1    0    0  501    0  0.00000000000E+00  0.00000000000E+00  0.12603410650E+03  0.12603410653E+03  0.25500000000E-02 0. -1.
         -2   -1    0    0    0  501 -0.00000000000E+00 -0.00000000000E+00 -0.16410594021E+02  0.16410594219E+02  0.25500000000E-02 0.  1.
         23    2    1    2    0    0  0.00000000000E+00  0.00000000000E+00  0.10962351248E+03  0.14244470075E+03  0.90957013377E+02 0.  0.
    9000005    2    3    3    0    0  0.18646392322E+02 -0.18674975291E+02  0.11281267041E+03  0.11586250037E+03  0.98880574167E+00 0.  0.
         22    1    3    3    0    0 -0.18646392322E+02  0.18674975291E+02 -0.31891579319E+01  0.26582200381E+02  0.00000000000E+00 0.  1.
         22    1    4    4    0    0  0.17746223477E+02 -0.17459978841E+02  0.10608877729E+03  0.10897067485E+03  0.00000000000E+00 0. -1.
         22    1    4    4    0    0  0.90016884486E+00 -0.12149964503E+01  0.67238931202E+01  0.68918255212E+01  0.00000000000E+00 0. -1.
<mgrwt>
<rscale>  0 0.90957013E+02</rscale>
<asrwt>0</asrwt>
<pdfrwt beam="1">  1        2 0.19389862E-01 0.90957013E+02</pdfrwt>
<pdfrwt beam="2">  1       -2 0.25247068E-02 0.90957013E+02</pdfrwt>
<totfact> 0.13281044E+05</totfact>
</mgrwt>
</event>
<event>
 7    1  0.3337990E-009  0.9129415E+02  0.7818608E-02  0.1299748E+00
         -2   -1    0    0    0  501 -0.00000000000E+00  0.00000000000E+00  0.12301280487E+02  0.12301280751E+02  0.25500000000E-02 0.  1.
          2   -1    0    0  501    0  0.00000000000E+00 -0.00000000000E+00 -0.16938522830E+03  0.16938522832E+03  0.25500000000E-02 0. -1.
         23    2    1    2    0    0 -0.71054273576E-14  0.35527136788E-14 -0.15708394781E+03  0.18168650907E+03  0.91294145034E+02 0.  0.
    9000005    2    3    3    0    0 -0.39451395251E+02  0.19580615249E+02 -0.95595285749E+02  0.10605140714E+03  0.12985731371E+02 0.  0.
         22    1    3    3    0    0  0.39451395251E+02 -0.19580615249E+02 -0.61488662062E+02  0.75635101923E+02  0.00000000000E+00 0. -1.
         22    1    4    4    0    0 -0.13259344334E+02  0.73132221973E+00 -0.34295593365E+02  0.36776796606E+02  0.00000000000E+00 0. -1.
         22    1    4    4    0    0 -0.26192050917E+02  0.18849293029E+02 -0.61299692383E+02  0.69274610538E+02  0.00000000000E+00 0. -1.
<mgrwt>
<rscale>  0 0.91294145E+02</rscale>
<asrwt>0</asrwt>
<pdfrwt beam="2">  1        2 0.26059264E-01 0.91294145E+02</pdfrwt>
<pdfrwt beam="1">  1       -2 0.18925048E-02 0.91294145E+02</pdfrwt>
<totfact> 0.14528725E+05</totfact>
</mgrwt>
</event>
<event>
 7    1  0.3337990E-009  0.9374291E+02  0.7818608E-02  0.1294033E+00
         -2   -1    0    0    0  501 -0.00000000000E+00  0.00000000000E+00  0.33661157127E+02  0.33661157223E+02  0.25500000000E-02 0.  1.
          2   -1    0    0  501    0  0.00000000000E+00 -0.00000000000E+00 -0.65266120175E+02  0.65266120225E+02  0.25500000000E-02 0. -1.
         23    2    1    2    0    0  0.00000000000E+00  0.00000000000E+00 -0.31604963049E+02  0.98927277449E+02  0.93742906580E+02 0.  0.
    9000005    2    3    3    0    0  0.42829443065E+02  0.23972256901E+01 -0.33552487669E+02  0.55986612149E+02  0.12985508342E+02 0.  0.
         22    1    3    3    0    0 -0.42829443065E+02 -0.23972256901E+01  0.19475246208E+01  0.42940665300E+02  0.00000000000E+00 0.  1.
         22    1    4    4    0    0  0.28407276464E+02  0.25504285233E+01 -0.29436938537E+02  0.40987942034E+02  0.00000000000E+00 0. -1.
         22    1    4    4    0    0  0.14422166601E+02 -0.15320283320E+00 -0.41155491327E+01  0.14998670115E+02  0.00000000000E+00 0. -1.
<mgrwt>
<rscale>  0 0.93742907E+02</rscale>
<asrwt>0</asrwt>
<pdfrwt beam="2">  1        2 0.10040942E-01 0.93742907E+02</pdfrwt>
<pdfrwt beam="1">  1       -2 0.51786396E-02 0.93742907E+02</pdfrwt>
<totfact> 0.10034951E+05</totfact>
</mgrwt>
</event>
<event>
 7    1  0.3337990E-009  0.9058379E+02  0.7818608E-02  0.1301444E+00
          2   -1    0    0  501    0  0.00000000000E+00  0.00000000000E+00  0.17094770164E+02  0.17094770354E+02  0.25500000000E-02 0. -1.
         -2   -1    0    0    0  501 -0.00000000000E+00 -0.00000000000E+00 -0.11999903551E+03  0.11999903554E+03  0.25500000000E-02 0.  1.
         23    2    1    2    0    0 -0.35527136788E-14  0.00000000000E+00 -0.10290426535E+03  0.13709380589E+03  0.90583794288E+02 0.  0.
    9000005    2    3    3    0    0  0.22191501014E+02 -0.16488520215E+01 -0.11114125554E+03  0.11336556454E+03  0.20472202957E+01 0.  0.
         22    1    3    3    0    0 -0.22191501014E+02  0.16488520215E+01  0.82369901910E+01  0.23728241351E+02  0.00000000000E+00 0. -1.
         22    1    4    4    0    0  0.17163593467E+02 -0.16873977277E+01 -0.82042972577E+02  0.83836063845E+02  0.00000000000E+00 0.  1.
         22    1    4    4    0    0  0.50279075463E+01  0.38545706217E-01 -0.29098282964E+02  0.29529500698E+02  0.00000000000E+00 0.  1.
<mgrwt>
<rscale>  0 0.90583794E+02</rscale>
<asrwt>0</asrwt>
<pdfrwt beam="1">  1        2 0.26299647E-02 0.90583794E+02</pdfrwt>
<pdfrwt beam="2">  1       -2 0.18461390E-01 0.90583794E+02</pdfrwt>
<totfact> 0.76661477E+04</totfact>
</mgrwt>
</event>
<event>
 7    1  0.3337990E-009  0.9356084E+02  0.7818608E-02  0.1294451E+00
          2   -1    0    0  501    0  0.00000000000E+00  0.00000000000E+00  0.83274623398E+02  0.83274623438E+02  0.25500000000E-02 0.  1.
         -2   -1    0    0    0  501 -0.00000000000E+00 -0.00000000000E+00 -0.26279408049E+02  0.26279408172E+02  0.25500000000E-02 0. -1.
         23    2    1    2    0    0  0.00000000000E+00  0.88817841970E-15  0.56995215350E+02  0.10955403161E+03  0.93560842607E+02 0.  0.
    9000005    2    3    3    0    0  0.39612210182E+02  0.68487369592E+01  0.30683339524E+01  0.42292297090E+02  0.12774636060E+02 0.  0.
         22    1    3    3    0    0 -0.39612210182E+02 -0.68487369592E+01  0.53926881397E+02  0.67261734520E+02  0.00000000000E+00 0.  1.
         22    1    4    4    0    0  0.17758682262E+02  0.58661516390E+01 -0.43342530838E+01  0.19198132215E+02  0.00000000000E+00 0. -1.
         22    1    4    4    0    0  0.21853527920E+02  0.98258532021E+00  0.74025870362E+01  0.23094164875E+02  0.00000000000E+00 0. -1.
<mgrwt>
<rscale>  0 0.93560843E+02</rscale>
<asrwt>0</asrwt>
<pdfrwt beam="1">  1        2 0.12811480E-01 0.93560843E+02</pdfrwt>
<pdfrwt beam="2">  1       -2 0.40429860E-02 0.93560843E+02</pdfrwt>
<totfact> 0.10813686E+05</totfact>
</mgrwt>
</event>
<event>
 7    1  0.3337990E-009  0.9372385E+02  0.7818608E-02  0.1294076E+00
          2   -1    0    0  501    0  0.00000000000E+00  0.00000000000E+00  0.52086678762E+02  0.52086678825E+02  0.25500000000E-02 0. -1.
         -2   -1    0    0    0  501 -0.00000000000E+00 -0.00000000000E+00 -0.42161263320E+02  0.42161263397E+02  0.25500000000E-02 0.  1.
         23    2    1    2    0    0  0.00000000000E+00 -0.35527136788E-14  0.99254154424E+01  0.94247942222E+02  0.93723853641E+02 0.  0.
    9000005    2    3    3    0    0  0.35842624108E+02  0.20557147701E+02  0.26631823527E+02  0.49678960904E+02  0.71732215611E+01 0.  0.
         22    1    3    3    0    0 -0.35842624108E+02 -0.20557147701E+02 -0.16706408085E+02  0.44568981317E+02  0.00000000000E+00 0. -1.
         22    1    4    4    0    0  0.33736289454E+02  0.21030567666E+02  0.25618649551E+02  0.47294156165E+02  0.00000000000E+00 0.  1.
         22    1    4    4    0    0  0.21063346539E+01 -0.47341996579E+00  0.10131739763E+01  0.23848047393E+01  0.00000000000E+00 0.  1.
<mgrwt>
<rscale>  0 0.93723854E+02</rscale>
<asrwt>0</asrwt>
<pdfrwt beam="1">  1        2 0.80133353E-02 0.93723854E+02</pdfrwt>
<pdfrwt beam="2">  1       -2 0.64863482E-02 0.93723854E+02</pdfrwt>
<totfact> 0.94437256E+04</totfact>
</mgrwt>
</event>
<event>
 7    1  0.3502442E-009  0.9316359E+02  0.7818608E-02  0.1295367E+00
          2   -1    0    0  501    0  0.00000000000E+00  0.00000000000E+00  0.54198640667E+03  0.54198640667E+03  0.25500000000E-02 0.  1.
         -2   -1    0    0    0  501 -0.00000000000E+00 -0.00000000000E+00 -0.40035382306E+01  0.40035390427E+01  0.25500000000E-02 0. -1.
         23    2    1    2    0    0  0.00000000000E+00  0.22204460493E-15  0.53798286844E+03  0.54598994572E+03  0.93163587799E+02 0.  0.
    9000005    2    3    3    0    0  0.22164944995E+02 -0.13657183854E+01  0.50794172935E+03  0.50863194776E+03  0.14439802574E+02 0.  0.
         22    1    3    3    0    0 -0.22164944995E+02  0.13657183854E+01  0.30041139090E+02  0.37357997954E+02  0.00000000000E+00 0. -1.
         22    1    4    4    0    0  0.22486922167E+02  0.24197026361E+01  0.42061506520E+03  0.42122268422E+03  0.00000000000E+00 0.  1.
         22    1    4    4    0    0 -0.32197717209E+00 -0.37854210216E+01  0.87326664146E+02  0.87409263539E+02  0.00000000000E+00 0.  1.
<mgrwt>
<rscale>  0 0.93163588E+02</rscale>
<asrwt>0</asrwt>
<pdfrwt beam="1">  1        2 0.83382538E-01 0.93163588E+02</pdfrwt>
<pdfrwt beam="2">  1       -2 0.61592892E-03 0.93163588E+02</pdfrwt>
<totfact> 0.20880919E+05</totfact>
</mgrwt>
</event>
<event>
 7    1  0.3337990E-009  0.9135180E+02  0.7818608E-02  0.1299611E+00
         -2   -1    0    0    0  501 -0.00000000000E+00  0.00000000000E+00  0.22708567893E+03  0.22708567895E+03  0.25500000000E-02 0.  1.
          2   -1    0    0  501    0  0.00000000000E+00 -0.00000000000E+00 -0.91872274189E+01  0.91872277728E+01  0.25500000000E-02 0. -1.
         23    2    1    2    0    0  0.71054273576E-14  0.17763568394E-14  0.21789845151E+03  0.23627290672E+03  0.91351799532E+02 0.  0.
    9000005    2    3    3    0    0  0.44413562296E+02  0.10445205306E+02  0.10955805897E+03  0.11871735608E+03  0.30291120289E+01 0.  0.
         22    1    3    3    0    0 -0.44413562296E+02 -0.10445205306E+02  0.10834039254E+03  0.11755555064E+03  0.00000000000E+00 0. -1.
         22    1    4    4    0    0  0.40243250574E+02  0.90330497281E+01  0.10089530645E+03  0.10899989939E+03  0.00000000000E+00 0. -1.
         22    1    4    4    0    0  0.41703117220E+01  0.14121555775E+01  0.86627525198E+01  0.97174566865E+01  0.00000000000E+00 0. -1.
<mgrwt>
<rscale>  0 0.91351800E+02</rscale>
<asrwt>0</asrwt>
<pdfrwt beam="2">  1        2 0.14134197E-02 0.91351800E+02</pdfrwt>
<pdfrwt beam="1">  1       -2 0.34936257E-01 0.91351800E+02</pdfrwt>
<totfact> 0.58563526E+04</totfact>
</mgrwt>
</event>
<event>
 7    1  0.3337990E-009  0.8991403E+02  0.7818608E-02  0.1303060E+00
          2   -1    0    0  501    0  0.00000000000E+00  0.00000000000E+00  0.60670656806E+02  0.60670656859E+02  0.25500000000E-02 0. -1.
         -2   -1    0    0    0  501 -0.00000000000E+00 -0.00000000000E+00 -0.33313191419E+02  0.33313191517E+02  0.25500000000E-02 0.  1.
         23    2    1    2    0    0  0.35527136788E-14  0.17763568394E-14  0.27357465386E+02  0.93983848376E+02  0.89914030292E+02 0.  0.
    9000005    2    3    3    0    0 -0.21604829282E+02 -0.14639084619E+02 -0.23877525744E+02  0.36485189584E+02  0.89421125321E+01 0.  0.
         22    1    3    3    0    0  0.21604829282E+02  0.14639084619E+02  0.51234991130E+02  0.57498658792E+02  0.00000000000E+00 0. -1.
         22    1    4    4    0    0 -0.18738385834E+02 -0.10924164194E+02 -0.14774699359E+02  0.26244165221E+02  0.00000000000E+00 0.  1.
         22    1    4    4    0    0 -0.28664434477E+01 -0.37149204257E+01 -0.91028263849E+01  0.10241024363E+02  0.00000000000E+00 0.  1.
<mgrwt>
<rscale>  0 0.89914030E+02</rscale>
<asrwt>0</asrwt>
<pdfrwt beam="1">  1        2 0.93339471E-02 0.89914030E+02</pdfrwt>
<pdfrwt beam="2">  1       -2 0.51251065E-02 0.89914030E+02</pdfrwt>
<totfact> 0.11064366E+05</totfact>
</mgrwt>
</event>
<event>
 7    1  0.3337990E-009  0.9211690E+02  0.7818608E-02  0.1297805E+00
          2   -1    0    0  501    0  0.00000000000E+00  0.00000000000E+00  0.92844871301E+02  0.92844871336E+02  0.25500000000E-02 0. -1.
         -2   -1    0    0    0  501 -0.00000000000E+00 -0.00000000000E+00 -0.22848658781E+02  0.22848658923E+02  0.25500000000E-02 0.  1.
         23    2    1    2    0    0  0.00000000000E+00  0.00000000000E+00  0.69996212520E+02  0.11569353026E+03  0.92116899517E+02 0.  0.
    9000005    2    3    3    0    0 -0.10717524205E+02  0.36237357867E+02  0.32198510532E+01  0.38966130453E+02  0.89431790414E+01 0.  0.
         22    1    3    3    0    0  0.10717524205E+02 -0.36237357867E+02  0.66776361467E+02  0.76727399806E+02  0.00000000000E+00 0. -1.
         22    1    4    4    0    0  0.15664418038E+01  0.47240567954E+01 -0.12295109961E+00  0.49785107716E+01  0.00000000000E+00 0. -1.
         22    1    4    4    0    0 -0.12283966008E+02  0.31513301072E+02  0.33428021528E+01  0.33987619681E+02  0.00000000000E+00 0. -1.
<mgrwt>
<rscale>  0 0.92116900E+02</rscale>
<asrwt>0</asrwt>
<pdfrwt beam="1">  1        2 0.14283826E-01 0.92116900E+02</pdfrwt>
<pdfrwt beam="2">  1       -2 0.35151783E-02 0.92116900E+02</pdfrwt>
<totfact> 0.11660622E+05</totfact>
</mgrwt>
</event>
<event>
 7    1  0.3337990E-009  0.9195411E+02  0.7818608E-02  0.1298187E+00
         -2   -1    0    0    0  501 -0.00000000000E+00  0.00000000000E+00  0.97572852713E+01  0.97572856045E+01  0.25500000000E-02 0.  1.
          2   -1    0    0  501    0  0.00000000000E+00 -0.00000000000E+00 -0.21664728407E+03  0.21664728408E+03  0.25500000000E-02 0. -1.
         23    2    1    2    0    0  0.00000000000E+00  0.00000000000E+00 -0.20688999880E+03  0.22640456969E+03  0.91954105799E+02 0.  0.
    9000005    2    3    3    0    0 -0.32825799228E+02  0.28300276322E+02 -0.67775891134E+02  0.80695360350E+02  0.63032553679E+01 0.  0.
         22    1    3    3    0    0  0.32825799228E+02 -0.28300276322E+02 -0.13911410766E+03  0.14570920934E+03  0.00000000000E+00 0.  1.
         22    1    4    4    0    0 -0.24735931725E+01  0.99585254710E+00 -0.22374563268E+01  0.34808901581E+01  0.00000000000E+00 0. -1.
         22    1    4    4    0    0 -0.30352206055E+02  0.27304423775E+02 -0.65538434807E+02  0.77214470192E+02  0.00000000000E+00 0. -1.
<mgrwt>
<rscale>  0 0.91954106E+02</rscale>
<asrwt>0</asrwt>
<pdfrwt beam="2">  1        2 0.33330348E-01 0.91954106E+02</pdfrwt>
<pdfrwt beam="1">  1       -2 0.15011210E-02 0.91954106E+02</pdfrwt>
<totfact> 0.15564732E+05</totfact>
</mgrwt>
</event>
<event>
 7    1  0.3337990E-009  0.9103885E+02  0.7818608E-02  0.1300355E+00
         -2   -1    0    0    0  501 -0.00000000000E+00  0.00000000000E+00  0.15230416823E+02  0.15230417036E+02  0.25500000000E-02 0. -1.
          2   -1    0    0  501    0  0.00000000000E+00 -0.00000000000E+00 -0.13604473236E+03  0.13604473238E+03  0.25500000000E-02 0.  1.
         23    2    1    2    0    0  0.00000000000E+00  0.00000000000E+00 -0.12081431554E+03  0.15127514942E+03  0.91038848814E+02 0.  0.
    9000005    2    3    3    0    0 -0.31471042109E+02  0.31203020783E+02 -0.73064569539E+02  0.86128443899E+02  0.10752791692E+02 0.  0.
         22    1    3    3    0    0  0.31471042109E+02 -0.31203020783E+02 -0.47749745998E+02  0.65146705521E+02  0.00000000000E+00 0. -1.
         22    1    4    4    0    0 -0.21805928259E+02  0.23067206520E+02 -0.42417917392E+02  0.52979941862E+02  0.00000000000E+00 0. -1.
         22    1    4    4    0    0 -0.96651138496E+01  0.81358142631E+01 -0.30646652148E+02  0.33148502037E+02  0.00000000000E+00 0. -1.
<mgrwt>
<rscale>  0 0.91038849E+02</rscale>
<asrwt>0</asrwt>
<pdfrwt beam="2">  1        2 0.20929958E-01 0.91038849E+02</pdfrwt>
<pdfrwt beam="1">  1       -2 0.23431412E-02 0.91038849E+02</pdfrwt>
<totfact> 0.13585458E+05</totfact>
</mgrwt>
</event>
<event>
 7    1  0.3337990E-009  0.8086508E+02  0.7818608E-02  0.1326614E+00
          2   -1    0    0  501    0  0.00000000000E+00  0.00000000000E+00  0.19894551776E+02  0.19894551940E+02  0.25500000000E-02 0.  1.
         -2   -1    0    0    0  501 -0.00000000000E+00 -0.00000000000E+00 -0.82172761825E+02  0.82172761865E+02  0.25500000000E-02 0. -1.
         23    2    1    2    0    0  0.00000000000E+00  0.00000000000E+00 -0.62278210049E+02  0.10206731380E+03  0.80865079610E+02 0.  0.
    9000005    2    3    3    0    0  0.37055717900E+02  0.10582779846E+02 -0.24024884773E+02  0.47767789378E+02  0.14813681358E+02 0.  0.
         22    1    3    3    0    0 -0.37055717900E+02 -0.10582779846E+02 -0.38253325276E+02  0.54299524427E+02  0.00000000000E+00 0.  1.
         22    1    4    4    0    0  0.94686853441E+01  0.46901331307E+01  0.22349456572E+00  0.10568978226E+02  0.00000000000E+00 0. -1.
         22    1    4    4    0    0  0.27587032555E+02  0.58926467149E+01 -0.24248379338E+02  0.37198811151E+02  0.00000000000E+00 0. -1.
<mgrwt>
<rscale>  0 0.80865080E+02</rscale>
<asrwt>0</asrwt>
<pdfrwt beam="1">  1        2 0.30607003E-02 0.80865080E+02</pdfrwt>
<pdfrwt beam="2">  1       -2 0.12641963E-01 0.80865080E+02</pdfrwt>
<totfact> 0.11350892E+05</totfact>
</mgrwt>
</event>
<event>
 7    1  0.3337990E-009  0.9830581E+02  0.7818608E-02  0.1283899E+00
         -2   -1    0    0    0  501 -0.00000000000E+00  0.00000000000E+00  0.26094968541E+03  0.26094968542E+03  0.25500000000E-02 0.  1.
          2   -1    0    0  501    0  0.00000000000E+00 -0.00000000000E+00 -0.92585203446E+01  0.92585206957E+01  0.25500000000E-02 0. -1.
         23    2    1    2    0    0  0.00000000000E+00  0.00000000000E+00  0.25169116507E+03  0.27020820612E+03  0.98305808992E+02 0.  0.
    9000005    2    3    3    0    0  0.11836176318E+02 -0.31624093569E+02  0.22262984099E+03  0.22565779736E+03  0.14738284990E+02 0.  0.
         22    1    3    3    0    0 -0.11836176318E+02  0.31624093569E+02  0.29061324075E+02  0.44550408762E+02  0.00000000000E+00 0. -1.
         22    1    4    4    0    0  0.62378647981E+00 -0.13202823521E+01  0.50523771937E+02  0.50544869035E+02  0.00000000000E+00 0. -1.
         22    1    4    4    0    0  0.11212389838E+02 -0.30303811217E+02  0.17210606905E+03  0.17511292832E+03  0.00000000000E+00 0. -1.
<mgrwt>
<rscale>  0 0.98305809E+02</rscale>
<asrwt>0</asrwt>
<pdfrwt beam="2">  1        2 0.14243878E-02 0.98305809E+02</pdfrwt>
<pdfrwt beam="1">  1       -2 0.40146105E-01 0.98305809E+02</pdfrwt>
<totfact> 0.45287696E+04</totfact>
</mgrwt>
</event>
<event>
 7    1  0.3337990E-009  0.9089136E+02  0.7818608E-02  0.1300707E+00
         -2   -1    0    0    0  501 -0.00000000000E+00  0.00000000000E+00  0.34252081895E+01  0.34252091387E+01  0.25500000000E-02 0.  1.
          2   -1    0    0  501    0  0.00000000000E+00 -0.00000000000E+00 -0.60297338113E+03  0.60297338114E+03  0.25500000000E-02 0. -1.
         23    2    1    2    0    0  0.00000000000E+00  0.00000000000E+00 -0.59954817294E+03  0.60639859028E+03  0.90891356080E+02 0.  0.
    9000005    2    3    3    0    0 -0.22075621224E+02  0.13757164468E+02 -0.54615289071E+03  0.54700457718E+03  0.15951012578E+02 0.  0.
         22    1    3    3    0    0  0.22075621224E+02 -0.13757164468E+02 -0.53395282237E+02  0.59394013097E+02  0.00000000000E+00 0.  1.
         22    1    4    4    0    0 -0.32649979596E+01  0.10993782208E+02 -0.21773657148E+03  0.21803838658E+03  0.00000000000E+00 0. -1.
         22    1    4    4    0    0 -0.18810623264E+02  0.27633822592E+01 -0.32841631922E+03  0.32896619061E+03  0.00000000000E+00 0. -1.
<mgrwt>
<rscale>  0 0.90891356E+02</rscale>
<asrwt>0</asrwt>
<pdfrwt beam="2">  1        2 0.92765051E-01 0.90891356E+02</pdfrwt>
<pdfrwt beam="1">  1       -2 0.52695566E-03 0.90891356E+02</pdfrwt>
<totfact> 0.23006578E+05</totfact>
</mgrwt>
</event>
<event>
 7    1  0.3337990E-009  0.1160054E+03  0.7818608E-02  0.1249836E+00
         -2   -1    0    0    0  501 -0.00000000000E+00  0.00000000000E+00  0.19870344718E+01  0.19870361080E+01  0.25500000000E-02 0.  1.
          2   -1    0    0  501    0  0.00000000000E+00 -0.00000000000E+00 -0.16931323778E+04  0.16931323778E+04  0.25500000000E-02 0. -1.
         23    2    1    2    0    0 -0.44408920985E-15  0.00000000000E+00 -0.16911453433E+04  0.16951194139E+04  0.11600541002E+03 0.  0.
    9000005    2    3    3    0    0  0.38341920544E+01 -0.98009010617E+01 -0.16789306340E+04  0.16789962066E+04  0.10460844642E+02 0.  0.
         22    1    3    3    0    0 -0.38341920544E+01  0.98009010617E+01 -0.12214709332E+02  0.16123207324E+02  0.00000000000E+00 0.  1.
         22    1    4    4    0    0  0.67361454145E+01 -0.98350477278E+01 -0.13183229379E+04  0.13183768325E+04  0.00000000000E+00 0. -1.
         22    1    4    4    0    0 -0.29019533602E+01  0.34146666133E-01 -0.36060769606E+03  0.36061937407E+03  0.00000000000E+00 0. -1.
<mgrwt>
<rscale>  0 0.11600541E+03</rscale>
<asrwt>0</asrwt>
<pdfrwt beam="2">  1        2 0.26048075E+00 0.11600541E+03</pdfrwt>
<pdfrwt beam="1">  1       -2 0.30569909E-03 0.11600541E+03</pdfrwt>
<totfact> 0.11719226E+05</totfact>
</mgrwt>
</event>
<event>
 7    1  0.3337990E-009  0.1030635E+03  0.7818608E-02  0.1273983E+00
         -2   -1    0    0    0  501 -0.00000000000E+00  0.00000000000E+00  0.59397155273E+01  0.59397160747E+01  0.25500000000E-02 0.  1.
          2   -1    0    0  501    0  0.00000000000E+00 -0.00000000000E+00 -0.44707875433E+03  0.44707875434E+03  0.25500000000E-02 0. -1.
         23    2    1    2    0    0  0.00000000000E+00  0.00000000000E+00 -0.44113903880E+03  0.45301847041E+03  0.10306349004E+03 0.  0.
    9000005    2    3    3    0    0  0.17546760854E+02  0.37888230178E+02 -0.35083536916E+03  0.35352897572E+03  0.12404580592E+02 0.  0.
         22    1    3    3    0    0 -0.17546760854E+02 -0.37888230178E+02 -0.90303669645E+02  0.99489494691E+02  0.00000000000E+00 0.  1.
         22    1    4    4    0    0  0.39901248238E+01  0.16736926165E+02 -0.18543125974E+03  0.18622781178E+03  0.00000000000E+00 0.  1.
         22    1    4    4    0    0  0.13556636031E+02  0.21151304013E+02 -0.16540410942E+03  0.16730116394E+03  0.00000000000E+00 0.  1.
<mgrwt>
<rscale>  0 0.10306349E+03</rscale>
<asrwt>0</asrwt>
<pdfrwt beam="2">  1        2 0.68781321E-01 0.10306349E+03</pdfrwt>
<pdfrwt beam="1">  1       -2 0.91380278E-03 0.10306349E+03</pdfrwt>
<totfact> 0.14968069E+05</totfact>
</mgrwt>
</event>
<event>
 7    1  0.3337990E-009  0.8798691E+02  0.7818608E-02  0.1307801E+00
         -2   -1    0    0    0  501 -0.00000000000E+00  0.00000000000E+00  0.14853523339E+02  0.14853523558E+02  0.25500000000E-02 0.  1.
          2   -1    0    0  501    0  0.00000000000E+00 -0.00000000000E+00 -0.13030067720E+03  0.13030067722E+03  0.25500000000E-02 0. -1.
         23    2    1    2    0    0 -0.22204460493E-15  0.35527136788E-14 -0.11544715386E+03  0.14515420078E+03  0.87986911926E+02 0.  0.
    9000005    2    3    3    0    0  0.17542915369E+01 -0.21262921474E+02  0.54926518444E+01  0.22346929124E+02  0.37452167619E+01 0.  0.
         22    1    3    3    0    0 -0.17542915369E+01  0.21262921474E+02 -0.12093980570E+03  0.12280727166E+03  0.00000000000E+00 0. -1.
         22    1    4    4    0    0  0.26295964500E+01 -0.16447232598E+02  0.51772165138E+01  0.17442184738E+02  0.00000000000E+00 0. -1.
         22    1    4    4    0    0 -0.87530491305E+00 -0.48156888759E+01  0.31543533059E+00  0.49047443856E+01  0.00000000000E+00 0. -1.
<mgrwt>
<rscale>  0 0.87986912E+02</rscale>
<asrwt>0</asrwt>
<pdfrwt beam="2">  1        2 0.20046257E-01 0.87986912E+02</pdfrwt>
<pdfrwt beam="1">  1       -2 0.22851575E-02 0.87986912E+02</pdfrwt>
<totfact> 0.14693683E+05</totfact>
</mgrwt>
</event>
<event>
 7    1  0.3337990E-009  0.9097783E+02  0.7818608E-02  0.1300501E+00
         -2   -1    0    0    0  501 -0.00000000000E+00  0.00000000000E+00  0.13919482214E+02  0.13919482447E+02  0.25500000000E-02 0.  1.
          2   -1    0    0  501    0  0.00000000000E+00 -0.00000000000E+00 -0.14865793476E+03  0.14865793479E+03  0.25500000000E-02 0. -1.
         23    2    1    2    0    0  0.00000000000E+00  0.00000000000E+00 -0.13473845255E+03  0.16257741723E+03  0.90977832457E+02 0.  0.
    9000005    2    3    3    0    0  0.27881947691E+02 -0.34534314189E+02 -0.57236386981E+02  0.73265648518E+02  0.11037635368E+02 0.  0.
         22    1    3    3    0    0 -0.27881947691E+02  0.34534314189E+02 -0.77502065569E+02  0.89311768716E+02  0.00000000000E+00 0.  1.
         22    1    4    4    0    0  0.23636847670E+02 -0.22862397193E+02 -0.45796095314E+02  0.56379713721E+02  0.00000000000E+00 0.  1.
         22    1    4    4    0    0  0.42451000211E+01 -0.11671916996E+02 -0.11440291667E+02  0.16885934797E+02  0.00000000000E+00 0.  1.
<mgrwt>
<rscale>  0 0.90977832E+02</rscale>
<asrwt>0</asrwt>
<pdfrwt beam="2">  1        2 0.22870450E-01 0.90977832E+02</pdfrwt>
<pdfrwt beam="1">  1       -2 0.21414589E-02 0.90977832E+02</pdfrwt>
<totfact> 0.14021289E+05</totfact>
</mgrwt>
</event>
<event>
 7    1  0.3337990E-009  0.9247987E+02  0.7818608E-02  0.1296955E+00
         -2   -1    0    0    0  501 -0.00000000000E+00  0.00000000000E+00  0.35851791309E+02  0.35851791400E+02  0.25500000000E-02 0.  1.
          2   -1    0    0  501    0  0.00000000000E+00 -0.00000000000E+00 -0.59638066652E+02  0.59638066707E+02  0.25500000000E-02 0. -1.
         23    2    1    2    0    0 -0.35527136788E-14 -0.17763568394E-14 -0.23786275343E+02  0.95489858107E+02  0.92479868656E+02 0.  0.
    9000005    2    3    3    0    0 -0.27611618676E+02 -0.15234880001E+02  0.23012356601E+02  0.39057464871E+02  0.11890968478E+01 0.  0.
         22    1    3    3    0    0  0.27611618676E+02  0.15234880001E+02 -0.46798631944E+02  0.56432393236E+02  0.00000000000E+00 0. -1.
         22    1    4    4    0    0 -0.22398709691E+02 -0.12781223755E+02  0.19143224783E+02  0.32117361840E+02  0.00000000000E+00 0. -1.
         22    1    4    4    0    0 -0.52129089841E+01 -0.24536562463E+01  0.38691318182E+01  0.69401030308E+01  0.00000000000E+00 0. -1.
<mgrwt>
<rscale>  0 0.92479869E+02</rscale>
<asrwt>0</asrwt>
<pdfrwt beam="2">  1        2 0.91750872E-02 0.92479869E+02</pdfrwt>
<pdfrwt beam="1">  1       -2 0.55156602E-02 0.92479869E+02</pdfrwt>
<totfact> 0.10173201E+05</totfact>
</mgrwt>
</event>
<event>
 7    1  0.3337990E-009  0.9260298E+02  0.7818608E-02  0.1296668E+00
          2   -1    0    0  501    0  0.00000000000E+00  0.00000000000E+00  0.25994837028E+03  0.25994837030E+03  0.25500000000E-02 0. -1.
         -2   -1    0    0    0  501 -0.00000000000E+00 -0.00000000000E+00 -0.82471293582E+01  0.82471297524E+01  0.25500000000E-02 0.  1.
         23    2    1    2    0    0  0.27755575616E-16  0.17763568394E-14  0.25170124093E+03  0.26819550005E+03  0.92602978153E+02 0.  0.
    9000005    2    3    3    0    0  0.75363455309E-01  0.15079815839E+02  0.25258204782E+03  0.25308979430E+03  0.54172477086E+01 0.  0.
         22    1    3    3    0    0 -0.75363455309E-01 -0.15079815839E+02 -0.88080689359E+00  0.15105705749E+02  0.00000000000E+00 0.  1.
         22    1    4    4    0    0  0.18221137561E+01  0.10191822922E+02  0.19484737780E+03  0.19512225395E+03  0.00000000000E+00 0. -1.
         22    1    4    4    0    0 -0.17467503008E+01  0.48879929168E+01  0.57734670023E+02  0.57967540349E+02  0.00000000000E+00 0. -1.
<mgrwt>
<rscale>  0 0.92602978E+02</rscale>
<asrwt>0</asrwt>
<pdfrwt beam="1">  1        2 0.39992051E-01 0.92602978E+02</pdfrwt>
<pdfrwt beam="2">  1       -2 0.12687894E-02 0.92602978E+02</pdfrwt>
<totfact> 0.16337063E+05</totfact>
</mgrwt>
</event>
<event>
 7    1  0.3337990E-009  0.9119905E+02  0.7818608E-02  0.1299974E+00
          2   -1    0    0  501    0  0.00000000000E+00  0.00000000000E+00  0.12893245549E+03  0.12893245551E+03  0.25500000000E-02 0. -1.
         -2   -1    0    0    0  501 -0.00000000000E+00 -0.00000000000E+00 -0.16127177230E+02  0.16127177432E+02  0.25500000000E-02 0.  1.
         23    2    1    2    0    0  0.00000000000E+00 -0.88817841970E-15  0.11280527826E+03  0.14505963294E+03  0.91199047731E+02 0.  0.
    9000005    2    3    3    0    0 -0.43003689777E+02 -0.71605664294E+01  0.70757608172E+02  0.84490683757E+02  0.15213332358E+02 0.  0.
         22    1    3    3    0    0  0.43003689777E+02  0.71605664294E+01  0.42047670083E+02  0.60568949186E+02  0.00000000000E+00 0.  1.
         22    1    4    4    0    0 -0.33586665094E+02 -0.78690913646E+01  0.64550281288E+02  0.73189654223E+02  0.00000000000E+00 0.  1.
         22    1    4    4    0    0 -0.94170246829E+01  0.70852493513E+00  0.62073268844E+01  0.11301029533E+02  0.00000000000E+00 0.  1.
<mgrwt>
<rscale>  0 0.91199048E+02</rscale>
<asrwt>0</asrwt>
<pdfrwt beam="1">  1        2 0.19835762E-01 0.91199048E+02</pdfrwt>
<pdfrwt beam="2">  1       -2 0.24811042E-02 0.91199048E+02</pdfrwt>
<totfact> 0.13283257E+05</totfact>
</mgrwt>
</event>
<event>
 7    1  0.3337990E-009  0.9136046E+02  0.7818608E-02  0.1299590E+00
         -2   -1    0    0    0  501 -0.00000000000E+00  0.00000000000E+00  0.44934009124E+01  0.44934016360E+01  0.25500000000E-02 0.  1.
          2   -1    0    0  501    0  0.00000000000E+00 -0.00000000000E+00 -0.46438844234E+03  0.46438844235E+03  0.25500000000E-02 0. -1.
         23    2    1    2    0    0  0.00000000000E+00  0.00000000000E+00 -0.45989504143E+03  0.46888184398E+03  0.91360464574E+02 0.  0.
    9000005    2    3    3    0    0  0.35033385459E+02  0.26345186894E+02 -0.28611127090E+03  0.28965515549E+03  0.10910673536E+02 0.  0.
         22    1    3    3    0    0 -0.35033385459E+02 -0.26345186894E+02 -0.17378377052E+03  0.17922668849E+03  0.00000000000E+00 0. -1.
         22    1    4    4    0    0  0.19592602220E+02  0.15729586704E+02 -0.19695052700E+03  0.19854672006E+03  0.00000000000E+00 0. -1.
         22    1    4    4    0    0  0.15440783239E+02  0.10615600191E+02 -0.89160743904E+02  0.91108435438E+02  0.00000000000E+00 0. -1.
<mgrwt>
<rscale>  0 0.91360465E+02</rscale>
<asrwt>0</asrwt>
<pdfrwt beam="2">  1        2 0.71444338E-01 0.91360465E+02</pdfrwt>
<pdfrwt beam="1">  1       -2 0.69129287E-03 0.91360465E+02</pdfrwt>
<totfact> 0.20916226E+05</totfact>
</mgrwt>
</event>
<event>
 7    1  0.3337990E-009  0.9770235E+02  0.7818608E-02  0.1285203E+00
          2   -1    0    0  501    0  0.00000000000E+00  0.00000000000E+00  0.17947840384E+03  0.17947840386E+03  0.25500000000E-02 0. -1.
         -2   -1    0    0    0  501 -0.00000000000E+00 -0.00000000000E+00 -0.13296516017E+02  0.13296516262E+02  0.25500000000E-02 0.  1.
         23    2    1    2    0    0  0.00000000000E+00  0.00000000000E+00  0.16618188783E+03  0.19277492012E+03  0.97702354051E+02 0.  0.
    9000005    2    3    3    0    0  0.37754853820E+02  0.27295995528E+02  0.10720350986E+03  0.11761542687E+03  0.13049741467E+02 0.  0.
         22    1    3    3    0    0 -0.37754853820E+02 -0.27295995528E+02  0.58978377963E+02  0.75159493253E+02  0.00000000000E+00 0.  1.
         22    1    4    4    0    0  0.37607944301E+02  0.23211986296E+02  0.95824391466E+02  0.10552472593E+03  0.00000000000E+00 0.  1.
         22    1    4    4    0    0  0.14690951915E+00  0.40840092311E+01  0.11379118397E+02  0.12090700943E+02  0.00000000000E+00 0.  1.
<mgrwt>
<rscale>  0 0.97702354E+02</rscale>
<asrwt>0</asrwt>
<pdfrwt beam="1">  1        2 0.27612063E-01 0.97702354E+02</pdfrwt>
<pdfrwt beam="2">  1       -2 0.20456178E-02 0.97702354E+02</pdfrwt>
<totfact> 0.12334688E+05</totfact>
</mgrwt>
</event>
<event>
 7    1  0.3337990E-009  0.1023236E+03  0.7818608E-02  0.1275484E+00
          2   -1    0    0  501    0  0.00000000000E+00  0.00000000000E+00  0.46891318504E+03  0.46891318504E+03  0.25500000000E-02 0.  1.
         -2   -1    0    0    0  501 -0.00000000000E+00 -0.00000000000E+00 -0.55821171567E+01  0.55821177391E+01  0.25500000000E-02 0. -1.
         23    2    1    2    0    0  0.00000000000E+00  0.00000000000E+00  0.46333106788E+03  0.47449530278E+03  0.10232357451E+03 0.  0.
    9000005    2    3    3    0    0 -0.78866470440E+01 -0.49865955593E+02  0.26637358003E+03  0.27117028034E+03  0.54428003817E+01 0.  0.
         22    1    3    3    0    0  0.78866470440E+01  0.49865955593E+02  0.19695748785E+03  0.20332502244E+03  0.00000000000E+00 0. -1.
         22    1    4    4    0    0  0.37268736272E+00 -0.10319748220E+02  0.59348447998E+02  0.60240139267E+02  0.00000000000E+00 0.  1.
         22    1    4    4    0    0 -0.82593344068E+01 -0.39546207373E+02  0.20702513203E+03  0.21093014107E+03  0.00000000000E+00 0.  1.
<mgrwt>
<rscale>  0 0.10232357E+03</rscale>
<asrwt>0</asrwt>
<pdfrwt beam="1">  1        2 0.72140528E-01 0.10232357E+03</pdfrwt>
<pdfrwt beam="2">  1       -2 0.85878685E-03 0.10232357E+03</pdfrwt>
<totfact> 0.15513100E+05</totfact>
</mgrwt>
</event>
<event>
 7    1  0.3337990E-009  0.9018307E+02  0.7818608E-02  0.1302409E+00
         -2   -1    0    0    0  501 -0.00000000000E+00  0.00000000000E+00  0.60318759770E+01  0.60318765160E+01  0.25500000000E-02 0.  1.
          2   -1    0    0  501    0  0.00000000000E+00 -0.00000000000E+00 -0.33708359246E+03  0.33708359247E+03  0.25500000000E-02 0. -1.
         23    2    1    2    0    0  0.00000000000E+00  0.00000000000E+00 -0.33105171649E+03  0.34311546899E+03  0.90183069758E+02 0.  0.
    9000005    2    3    3    0    0  0.25149016071E+02  0.31070258558E+02 -0.96777198736E+02  0.10545524168E+03  0.12535861636E+02 0.  0.
         22    1    3    3    0    0 -0.25149016071E+02 -0.31070258558E+02 -0.23427451775E+03  0.23766022731E+03  0.00000000000E+00 0. -1.
         22    1    4    4    0    0 -0.26210787880E+00  0.57829624819E+01 -0.17917955610E+02  0.18829882869E+02  0.00000000000E+00 0. -1.
         22    1    4    4    0    0  0.25411123950E+02  0.25287296076E+02 -0.78859243126E+02  0.86625358814E+02  0.00000000000E+00 0. -1.
<mgrwt>
<rscale>  0 0.90183070E+02</rscale>
<asrwt>0</asrwt>
<pdfrwt beam="2">  1        2 0.51859000E-01 0.90183070E+02</pdfrwt>
<pdfrwt beam="1">  1       -2 0.92798122E-03 0.90183070E+02</pdfrwt>
<totfact> 0.19313759E+05</totfact>
</mgrwt>
</event>
<event>
 7    1  0.3337990E-009  0.9137388E+02  0.7818608E-02  0.1299558E+00
          2   -1    0    0  501    0  0.00000000000E+00  0.00000000000E+00  0.21723072154E+03  0.21723072155E+03  0.25500000000E-02 0. -1.
         -2   -1    0    0    0  501 -0.00000000000E+00 -0.00000000000E+00 -0.96086622541E+01  0.96086625924E+01  0.25500000000E-02 0.  1.
         23    2    1    2    0    0  0.00000000000E+00  0.00000000000E+00  0.20762205929E+03  0.22683938415E+03  0.91373884115E+02 0.  0.
    9000005    2    3    3    0    0  0.23999202809E+02  0.37967136774E+02  0.11600998197E+03  0.12480881069E+03  0.10072641086E+02 0.  0.
         22    1    3    3    0    0 -0.23999202809E+02 -0.37967136774E+02  0.91612077316E+02  0.10203057346E+03  0.00000000000E+00 0. -1.
         22    1    4    4    0    0  0.19099155403E+02  0.32061018902E+02  0.84431784834E+02  0.92311499611E+02  0.00000000000E+00 0.  1.
         22    1    4    4    0    0  0.49000474052E+01  0.59061178717E+01  0.31578197135E+02  0.32497311076E+02  0.00000000000E+00 0.  1.
<mgrwt>
<rscale>  0 0.91373884E+02</rscale>
<asrwt>0</asrwt>
<pdfrwt beam="1">  1        2 0.33420106E-01 0.91373884E+02</pdfrwt>
<pdfrwt beam="2">  1       -2 0.14782560E-02 0.91373884E+02</pdfrwt>
<totfact> 0.15847689E+05</totfact>
</mgrwt>
</event>
<event>
 7    1  0.3337990E-009  0.9790886E+02  0.7818608E-02  0.1284756E+00
          2   -1    0    0  501    0  0.00000000000E+00  0.00000000000E+00  0.43957305318E+02  0.43957305392E+02  0.25500000000E-02 0. -1.
         -2   -1    0    0    0  501 -0.00000000000E+00 -0.00000000000E+00 -0.54519630936E+02  0.54519630996E+02  0.25500000000E-02 0.  1.
         23    2    1    2    0    0  0.00000000000E+00  0.00000000000E+00 -0.10562325618E+02  0.98476936388E+02  0.97908856994E+02 0.  0.
    9000005    2    3    3    0    0  0.59892791784E+01  0.32060289138E+02 -0.41083674966E+02  0.53808307903E+02  0.11988830049E+02 0.  0.
         22    1    3    3    0    0 -0.59892791784E+01 -0.32060289138E+02  0.30521349349E+02  0.44668628485E+02  0.00000000000E+00 0. -1.
         22    1    4    4    0    0 -0.17710979679E+01  0.26339133274E+01 -0.71466253523E+00  0.32534643025E+01  0.00000000000E+00 0. -1.
         22    1    4    4    0    0  0.77603771463E+01  0.29426375810E+02 -0.40369012431E+02  0.50554843600E+02  0.00000000000E+00 0. -1.
<mgrwt>
<rscale>  0 0.97908857E+02</rscale>
<asrwt>0</asrwt>
<pdfrwt beam="1">  1        2 0.67626623E-02 0.97908857E+02</pdfrwt>
<pdfrwt beam="2">  1       -2 0.83876356E-02 0.97908857E+02</pdfrwt>
<totfact> 0.79497767E+04</totfact>
</mgrwt>
</event>
<event>
 7    1  0.3337990E-009  0.9072750E+02  0.7818608E-02  0.1301099E+00
          2   -1    0    0  501    0  0.00000000000E+00  0.00000000000E+00  0.50525187220E+03  0.50525187220E+03  0.25500000000E-02 0. -1.
         -2   -1    0    0    0  501 -0.00000000000E+00 -0.00000000000E+00 -0.40729574998E+01  0.40729582980E+01  0.25500000000E-02 0.  1.
         23    2    1    2    0    0  0.00000000000E+00  0.44408920985E-15  0.50117891470E+03  0.50932483050E+03  0.90727495437E+02 0.  0.
    9000005    2    3    3    0    0 -0.27834879618E+02 -0.21293981605E+01  0.44921760528E+03  0.45033930231E+03  0.15156366661E+02 0.  0.
         22    1    3    3    0    0  0.27834879618E+02  0.21293981605E+01  0.51961309418E+02  0.58985528194E+02  0.00000000000E+00 0.  1.
         22    1    4    4    0    0 -0.25254745705E+02 -0.62726638554E+01  0.33114830974E+03  0.33216916102E+03  0.00000000000E+00 0.  1.
         22    1    4    4    0    0 -0.25801339125E+01  0.41432656949E+01  0.11806929554E+03  0.11817014128E+03  0.00000000000E+00 0.  1.
<mgrwt>
<rscale>  0 0.90727495E+02</rscale>
<asrwt>0</asrwt>
<pdfrwt beam="1">  1        2 0.77731013E-01 0.90727495E+02</pdfrwt>
<pdfrwt beam="2">  1       -2 0.62660927E-03 0.90727495E+02</pdfrwt>
<totfact> 0.21907174E+05</totfact>
</mgrwt>
</event>
<event>
 7    1  0.3337990E-009  0.8807603E+02  0.7818608E-02  0.1307579E+00
          2   -1    0    0  501    0  0.00000000000E+00  0.00000000000E+00  0.58239403460E+02  0.58239403516E+02  0.25500000000E-02 0. -1.
         -2   -1    0    0    0  501 -0.00000000000E+00 -0.00000000000E+00 -0.33299563798E+02  0.33299563895E+02  0.25500000000E-02 0.  1.
         23    2    1    2    0    0  0.00000000000E+00  0.00000000000E+00  0.24939839662E+02  0.91538967411E+02  0.88076029385E+02 0.  0.
    9000005    2    3    3    0    0  0.22333998272E+02 -0.36713805975E+02  0.10470150071E+02  0.46194916590E+02  0.13327987405E+02 0.  0.
         22    1    3    3    0    0 -0.22333998272E+02  0.36713805975E+02  0.14469689591E+02  0.45344050821E+02  0.00000000000E+00 0.  1.
         22    1    4    4    0    0  0.51669577820E+01 -0.47232368947E+01 -0.28005151467E+01  0.75398477817E+01  0.00000000000E+00 0. -1.
         22    1    4    4    0    0  0.17167040490E+02 -0.31990569080E+02  0.13270665218E+02  0.38655068808E+02  0.00000000000E+00 0. -1.
<mgrwt>
<rscale>  0 0.88076029E+02</rscale>
<asrwt>0</asrwt>
<pdfrwt beam="1">  1        2 0.89599082E-02 0.88076029E+02</pdfrwt>
<pdfrwt beam="2">  1       -2 0.51230098E-02 0.88076029E+02</pdfrwt>
<totfact> 0.11598926E+05</totfact>
</mgrwt>
</event>
<event>
 7    1  0.3337990E-009  0.8929227E+02  0.7818608E-02  0.1304575E+00
          2   -1    0    0  501    0  0.00000000000E+00  0.00000000000E+00  0.81186467154E+01  0.81186471158E+01  0.25500000000E-02 0.  1.
         -2   -1    0    0    0  501 -0.00000000000E+00 -0.00000000000E+00 -0.24551839710E+03  0.24551839711E+03  0.25500000000E-02 0. -1.
         23    2    1    2    0    0  0.00000000000E+00  0.00000000000E+00 -0.23739975038E+03  0.25363704423E+03  0.89292265749E+02 0.  0.
    9000005    2    3    3    0    0 -0.37910525438E+02 -0.22967704221E+02 -0.13016391414E+03  0.13760149816E+03  0.51772942509E+01 0.  0.
         22    1    3    3    0    0  0.37910525438E+02  0.22967704221E+02 -0.10723583624E+03  0.11603554606E+03  0.00000000000E+00 0.  1.
         22    1    4    4    0    0 -0.26428122726E+02 -0.13509046759E+02 -0.83021168709E+02  0.88167196105E+02  0.00000000000E+00 0. -1.
         22    1    4    4    0    0 -0.11482402711E+02 -0.94586574618E+01 -0.47142745434E+02  0.49434302059E+02  0.00000000000E+00 0. -1.
<mgrwt>
<rscale>  0 0.89292266E+02</rscale>
<asrwt>0</asrwt>
<pdfrwt beam="1">  1        2 0.12490228E-02 0.89292266E+02</pdfrwt>
<pdfrwt beam="2">  1       -2 0.37772055E-01 0.89292266E+02</pdfrwt>
<totfact> 0.59800188E+04</totfact>
</mgrwt>
</event>
<event>
 7    1  0.3337990E-009  0.9105573E+02  0.7818608E-02  0.1300315E+00
         -2   -1    0    0    0  501 -0.00000000000E+00  0.00000000000E+00  0.73061329719E+02  0.73061329764E+02  0.25500000000E-02 0.  1.
          2   -1    0    0  501    0  0.00000000000E+00 -0.00000000000E+00 -0.28370499291E+02  0.28370499405E+02  0.25500000000E-02 0. -1.
         23    2    1    2    0    0  0.00000000000E+00  0.17763568394E-14  0.44690830429E+02  0.10143182917E+03  0.91055728233E+02 0.  0.
    9000005    2    3    3    0    0  0.21589244721E+02  0.10667147756E+02  0.65337790410E+02  0.69711481041E+02  0.32833221604E+01 0.  0.
         22    1    3    3    0    0 -0.21589244721E+02 -0.10667147756E+02 -0.20646959981E+02  0.31720348128E+02  0.00000000000E+00 0. -1.
         22    1    4    4    0    0  0.15389901650E+02  0.76479509762E+01  0.42109525724E+02  0.45481341049E+02  0.00000000000E+00 0.  1.
         22    1    4    4    0    0  0.61993430713E+01  0.30191967799E+01  0.23228264686E+02  0.24230139992E+02  0.00000000000E+00 0.  1.
<mgrwt>
<rscale>  0 0.91055728E+02</rscale>
<asrwt>0</asrwt>
<pdfrwt beam="2">  1        2 0.43646923E-02 0.91055728E+02</pdfrwt>
<pdfrwt beam="1">  1       -2 0.11240204E-01 0.91055728E+02</pdfrwt>
<totfact> 0.87495894E+04</totfact>
</mgrwt>
</event>
<event>
 7    1  0.3337990E-009  0.9360390E+02  0.7818608E-02  0.1294352E+00
         -2   -1    0    0    0  501 -0.00000000000E+00  0.00000000000E+00  0.16396037313E+03  0.16396037315E+03  0.25500000000E-02 0.  1.
          2   -1    0    0  501    0  0.00000000000E+00 -0.00000000000E+00 -0.13359462608E+02  0.13359462852E+02  0.25500000000E-02 0. -1.
         23    2    1    2    0    0  0.71054273576E-14  0.00000000000E+00  0.15060091052E+03  0.17731983600E+03  0.93603899436E+02 0.  0.
    9000005    2    3    3    0    0 -0.35179212074E+02  0.20084668232E+02  0.36736819598E+02  0.56464542108E+02  0.14059862770E+02 0.  0.
         22    1    3    3    0    0  0.35179212074E+02 -0.20084668232E+02  0.11386409093E+03  0.12085529389E+03  0.00000000000E+00 0.  1.
         22    1    4    4    0    0 -0.29793319138E+01 -0.15334146054E+01  0.50263504123E+00  0.33882769942E+01  0.00000000000E+00 0. -1.
         22    1    4    4    0    0 -0.32199880161E+02  0.21618082837E+02  0.36234184556E+02  0.53076265113E+02  0.00000000000E+00 0. -1.
<mgrwt>
<rscale>  0 0.93603899E+02</rscale>
<asrwt>0</asrwt>
<pdfrwt beam="2">  1        2 0.20553019E-02 0.93603899E+02</pdfrwt>
<pdfrwt beam="1">  1       -2 0.25224673E-01 0.93603899E+02</pdfrwt>
<totfact> 0.63208622E+04</totfact>
</mgrwt>
</event>
<event>
 7    1  0.3337990E-009  0.9114969E+02  0.7818608E-02  0.1300091E+00
         -2   -1    0    0    0  501 -0.00000000000E+00  0.00000000000E+00  0.52048391821E+03  0.52048391822E+03  0.25500000000E-02 0.  1.
          2   -1    0    0  501    0  0.00000000000E+00 -0.00000000000E+00 -0.39906445908E+01  0.39906454056E+01  0.25500000000E-02 0. -1.
         23    2    1    2    0    0  0.00000000000E+00  0.00000000000E+00  0.51649327362E+03  0.52447456362E+03  0.91149691126E+02 0.  0.
    9000005    2    3    3    0    0 -0.23300476203E+02 -0.31455313196E+02  0.39150041766E+03  0.39349531733E+03  0.57998973817E+01 0.  0.
         22    1    3    3    0    0  0.23300476203E+02  0.31455313196E+02  0.12499285596E+03  0.13097924630E+03  0.00000000000E+00 0. -1.
         22    1    4    4    0    0 -0.72301873115E+00 -0.20087957130E+01  0.36113496457E+02  0.36176548242E+02  0.00000000000E+00 0.  1.
         22    1    4    4    0    0 -0.22577457472E+02 -0.29446517483E+02  0.35538692120E+03  0.35731876908E+03  0.00000000000E+00 0.  1.
<mgrwt>
<rscale>  0 0.91149691E+02</rscale>
<asrwt>0</asrwt>
<pdfrwt beam="2">  1        2 0.61394512E-03 0.91149691E+02</pdfrwt>
<pdfrwt beam="1">  1       -2 0.80074484E-01 0.91149691E+02</pdfrwt>
<totfact> 0.35202107E+04</totfact>
</mgrwt>
</event>
<event>
 7    1  0.3408311E-009  0.9120908E+02  0.7818608E-02  0.1299950E+00
         -2   -1    0    0    0  501 -0.00000000000E+00  0.00000000000E+00  0.56538689603E+01  0.56538695354E+01  0.25500000000E-02 0.  1.
          2   -1    0    0  501    0  0.00000000000E+00 -0.00000000000E+00 -0.36784966020E+03  0.36784966021E+03  0.25500000000E-02 0. -1.
         23    2    1    2    0    0  0.00000000000E+00  0.00000000000E+00 -0.36219579124E+03  0.37350352974E+03  0.91209075971E+02 0.  0.
    9000005    2    3    3    0    0 -0.33837819561E+02  0.28421262261E+02 -0.16651052029E+03  0.17289073991E+03  0.14583840231E+02 0.  0.
         22    1    3    3    0    0  0.33837819561E+02 -0.28421262261E+02 -0.19568527094E+03  0.20061278983E+03  0.00000000000E+00 0. -1.
         22    1    4    4    0    0 -0.16284288198E+02  0.20991418099E+02 -0.11317584067E+03  0.11625226272E+03  0.00000000000E+00 0. -1.
         22    1    4    4    0    0 -0.17553531363E+02  0.74298441620E+01 -0.53334679621E+02  0.56638477185E+02  0.00000000000E+00 0. -1.
<mgrwt>
<rscale>  0 0.91209076E+02</rscale>
<asrwt>0</asrwt>
<pdfrwt beam="2">  1        2 0.56592237E-01 0.91209076E+02</pdfrwt>
<pdfrwt beam="1">  1       -2 0.86982633E-03 0.91209076E+02</pdfrwt>
<totfact> 0.19349348E+05</totfact>
</mgrwt>
</event>
<event>
 7    1  0.3337990E-009  0.8752817E+02  0.7818608E-02  0.1308950E+00
          2   -1    0    0  501    0  0.00000000000E+00  0.00000000000E+00  0.13893198161E+03  0.13893198163E+03  0.25500000000E-02 0.  1.
         -2   -1    0    0    0  501 -0.00000000000E+00 -0.00000000000E+00 -0.13785847115E+02  0.13785847350E+02  0.25500000000E-02 0. -1.
         23    2    1    2    0    0  0.00000000000E+00  0.00000000000E+00  0.12514613449E+03  0.15271782898E+03  0.87528168668E+02 0.  0.
    9000005    2    3    3    0    0 -0.27885708843E+02  0.22942888367E+02  0.10512498041E+03  0.11142817537E+03  0.78094735098E+01 0.  0.
         22    1    3    3    0    0  0.27885708843E+02 -0.22942888367E+02  0.20021154083E+02  0.41289653609E+02  0.00000000000E+00 0. -1.
         22    1    4    4    0    0 -0.14424041760E+02  0.69395464170E+01  0.47688855792E+02  0.50303451690E+02  0.00000000000E+00 0.  1.
         22    1    4    4    0    0 -0.13461667083E+02  0.16003341950E+02  0.57436124619E+02  0.61124723684E+02  0.00000000000E+00 0.  1.
<mgrwt>
<rscale>  0 0.87528169E+02</rscale>
<asrwt>0</asrwt>
<pdfrwt beam="1">  1        2 0.21374151E-01 0.87528169E+02</pdfrwt>
<pdfrwt beam="2">  1       -2 0.21208996E-02 0.87528169E+02</pdfrwt>
<totfact> 0.15219809E+05</totfact>
</mgrwt>
</event>
<event>
 7    1  0.3337990E-009  0.9050602E+02  0.7818608E-02  0.1301631E+00
          2   -1    0    0  501    0  0.00000000000E+00  0.00000000000E+00  0.14719341601E+03  0.14719341603E+03  0.25500000000E-02 0. -1.
         -2   -1    0    0    0  501 -0.00000000000E+00 -0.00000000000E+00 -0.13912544604E+02  0.13912544838E+02  0.25500000000E-02 0.  1.
         23    2    1    2    0    0  0.00000000000E+00  0.00000000000E+00  0.13328087141E+03  0.16110596087E+03  0.90506021597E+02 0.  0.
    9000005    2    3    3    0    0 -0.17790472788E+02  0.38759867666E+02  0.39842579453E+02  0.58394994238E+02  0.19276802295E+01 0.  0.
         22    1    3    3    0    0  0.17790472788E+02 -0.38759867666E+02  0.93438291952E+02  0.10271096663E+03  0.00000000000E+00 0. -1.
         22    1    4    4    0    0 -0.39713734087E+01  0.83540272344E+01  0.75899922767E+01  0.11965348325E+02  0.00000000000E+00 0.  1.
         22    1    4    4    0    0 -0.13819099379E+02  0.30405840432E+02  0.32252587176E+02  0.46429645913E+02  0.00000000000E+00 0.  1.
<mgrwt>
<rscale>  0 0.90506022E+02</rscale>
<asrwt>0</asrwt>
<pdfrwt beam="1">  1        2 0.22645142E-01 0.90506022E+02</pdfrwt>
<pdfrwt beam="2">  1       -2 0.21403914E-02 0.90506022E+02</pdfrwt>
<totfact> 0.14172754E+05</totfact>
</mgrwt>
</event>
<event>
 7    1  0.3337990E-009  0.9169433E+02  0.7818608E-02  0.1298800E+00
         -2   -1    0    0    0  501 -0.00000000000E+00  0.00000000000E+00  0.68882672152E+01  0.68882676872E+01  0.25500000000E-02 0.  1.
          2   -1    0    0  501    0  0.00000000000E+00 -0.00000000000E+00 -0.30515108881E+03  0.30515108882E+03  0.25500000000E-02 0. -1.
         23    2    1    2    0    0  0.00000000000E+00  0.00000000000E+00 -0.29826282160E+03  0.31203935651E+03  0.91694325147E+02 0.  0.
    9000005    2    3    3    0    0  0.38802682462E+02  0.19060331013E+02 -0.19261016070E+03  0.19788407131E+03  0.13801713245E+02 0.  0.
         22    1    3    3    0    0 -0.38802682462E+02 -0.19060331013E+02 -0.10565266089E+03  0.11415528520E+03  0.00000000000E+00 0.  1.
         22    1    4    4    0    0  0.31201794090E+01  0.30076066458E+01 -0.73105761777E+01  0.84985728996E+01  0.00000000000E+00 0.  1.
         22    1    4    4    0    0  0.35682503053E+02  0.16052724367E+02 -0.18529958452E+03  0.18938549841E+03  0.00000000000E+00 0.  1.
<mgrwt>
<rscale>  0 0.91694325E+02</rscale>
<asrwt>0</asrwt>
<pdfrwt beam="2">  1        2 0.46946311E-01 0.91694325E+02</pdfrwt>
<pdfrwt beam="1">  1       -2 0.10597337E-02 0.91694325E+02</pdfrwt>
<totfact> 0.17809067E+05</totfact>
</mgrwt>
</event>
<event>
 7    1  0.3337990E-009  0.9195298E+02  0.7818608E-02  0.1298190E+00
          2   -1    0    0  501    0  0.00000000000E+00  0.00000000000E+00  0.46135124759E+02  0.46135124830E+02  0.25500000000E-02 0. -1.
         -2   -1    0    0    0  501 -0.00000000000E+00 -0.00000000000E+00 -0.45818403836E+02  0.45818403907E+02  0.25500000000E-02 0.  1.
         23    2    1    2    0    0  0.35527136788E-14  0.00000000000E+00  0.31672092347E+00  0.91953528736E+02  0.91952983284E+02 0.  0.
    9000005    2    3    3    0    0  0.19452216000E+02 -0.10028867204E+02  0.39561446562E+02  0.47018961028E+02  0.12911535827E+02 0.  0.
         22    1    3    3    0    0 -0.19452216000E+02  0.10028867204E+02 -0.39244725638E+02  0.44934567708E+02  0.00000000000E+00 0.  1.
         22    1    4    4    0    0  0.86331163088E+00 -0.38349788517E+01  0.14946801193E+01  0.42055247501E+01  0.00000000000E+00 0.  1.
         22    1    4    4    0    0  0.18588904369E+02 -0.61938883522E+01  0.38066766442E+02  0.42813436278E+02  0.00000000000E+00 0.  1.
<mgrwt>
<rscale>  0 0.91952983E+02</rscale>
<asrwt>0</asrwt>
<pdfrwt beam="1">  1        2 0.70977115E-02 0.91952983E+02</pdfrwt>
<pdfrwt beam="2">  1       -2 0.70489852E-02 0.91952983E+02</pdfrwt>
<totfact> 0.96599431E+04</totfact>
</mgrwt>
</event>
<event>
 7    1  0.3337990E-009  0.9043789E+02  0.7818608E-02  0.1301795E+00
          2   -1    0    0  501    0  0.00000000000E+00  0.00000000000E+00  0.49123612336E+02  0.49123612402E+02  0.25500000000E-02 0. -1.
         -2   -1    0    0    0  501 -0.00000000000E+00 -0.00000000000E+00 -0.41624649143E+02  0.41624649221E+02  0.25500000000E-02 0.  1.
         23    2    1    2    0    0  0.00000000000E+00  0.00000000000E+00  0.74989631923E+01  0.90748261623E+02  0.90437893267E+02 0.  0.
    9000005    2    3    3    0    0  0.38358831255E+00  0.22934087350E+02 -0.34633819960E+02  0.42776489520E+02  0.10208186324E+02 0.  0.
         22    1    3    3    0    0 -0.38358831255E+00 -0.22934087350E+02  0.42132783152E+02  0.47971772103E+02  0.00000000000E+00 0. -1.
         22    1    4    4    0    0 -0.45038198346E+01  0.75971875823E+01 -0.14772568243E+02  0.17211345815E+02  0.00000000000E+00 0. -1.
         22    1    4    4    0    0  0.48874081471E+01  0.15336899768E+02 -0.19861251717E+02  0.25565143705E+02  0.00000000000E+00 0. -1.
<mgrwt>
<rscale>  0 0.90437893E+02</rscale>
<asrwt>0</asrwt>
<pdfrwt beam="1">  1        2 0.75574788E-02 0.90437893E+02</pdfrwt>
<pdfrwt beam="2">  1       -2 0.64037922E-02 0.90437893E+02</pdfrwt>
<totfact> 0.10297317E+05</totfact>
</mgrwt>
</event>
<event>
 7    1  0.3337990E-009  0.9095636E+02  0.7818608E-02  0.1300552E+00
         -2   -1    0    0    0  501 -0.00000000000E+00  0.00000000000E+00  0.66433740121E+00  0.66434229516E+00  0.25500000000E-02 0. -1.
          2   -1    0    0  501    0  0.00000000000E+00 -0.00000000000E+00 -0.31132632583E+04  0.31132632583E+04  0.25500000000E-02 0.  1.
         23    2    1    2    0    0  0.00000000000E+00  0.00000000000E+00 -0.31125989209E+04  0.31139276006E+04  0.90956359726E+02 0.  0.
    9000005    2    3    3    0    0 -0.12570503762E+02  0.83205877004E+01 -0.30246709473E+04  0.30247167364E+04  0.70531157135E+01 0.  0.
         22    1    3    3    0    0  0.12570503762E+02 -0.83205877004E+01 -0.87927973610E+02  0.89210864179E+02  0.00000000000E+00 0. -1.
         22    1    4    4    0    0 -0.92136257565E+01  0.81315921994E+01 -0.18409763121E+04  0.18410173262E+04  0.00000000000E+00 0.  1.
         22    1    4    4    0    0 -0.33568780055E+01  0.18899550095E+00 -0.11836946352E+04  0.11836994102E+04  0.00000000000E+00 0.  1.
<mgrwt>
<rscale>  0 0.90956360E+02</rscale>
<asrwt>0</asrwt>
<pdfrwt beam="2">  1        2 0.47895190E+00 0.90956360E+02</pdfrwt>
<pdfrwt beam="1">  1       -2 0.10220862E-03 0.90956360E+02</pdfrwt>
<totfact> 0.92892110E+04</totfact>
</mgrwt>
</event>
<event>
 7    1  0.3337990E-009  0.9110068E+02  0.7818608E-02  0.1300208E+00
          2   -1    0    0  501    0  0.00000000000E+00  0.00000000000E+00  0.25319573302E+02  0.25319573431E+02  0.25500000000E-02 0. -1.
         -2   -1    0    0    0  501 -0.00000000000E+00 -0.00000000000E+00 -0.81945838654E+02  0.81945838693E+02  0.25500000000E-02 0.  1.
         23    2    1    2    0    0  0.00000000000E+00  0.00000000000E+00 -0.56626265351E+02  0.10726541212E+03  0.91100684468E+02 0.  0.
    9000005    2    3    3    0    0 -0.20981082776E+02  0.35479717631E+02 -0.83655038709E+01  0.43797961440E+02  0.12217347243E+02 0.  0.
         22    1    3    3    0    0  0.20981082776E+02 -0.35479717631E+02 -0.48260761480E+02  0.63467450684E+02  0.00000000000E+00 0.  1.
         22    1    4    4    0    0 -0.14772219799E+02  0.20389427223E+02 -0.10617865316E+02  0.27325561003E+02  0.00000000000E+00 0.  1.
         22    1    4    4    0    0 -0.62088629775E+01  0.15090290409E+02  0.22523614454E+01  0.16472400437E+02  0.00000000000E+00 0.  1.
<mgrwt>
<rscale>  0 0.91100684E+02</rscale>
<asrwt>0</asrwt>
<pdfrwt beam="1">  1        2 0.38953190E-02 0.91100684E+02</pdfrwt>
<pdfrwt beam="2">  1       -2 0.12607052E-01 0.91100684E+02</pdfrwt>
<totfact> 0.84688124E+04</totfact>
</mgrwt>
</event>
<event>
 7    1  0.3337990E-009  0.9129747E+02  0.7818608E-02  0.1299740E+00
         -2   -1    0    0    0  501 -0.00000000000E+00  0.00000000000E+00  0.72262969835E+02  0.72262969880E+02  0.25500000000E-02 0.  1.
          2   -1    0    0  501    0  0.00000000000E+00 -0.00000000000E+00 -0.28836441643E+02  0.28836441756E+02  0.25500000000E-02 0. -1.
         23    2    1    2    0    0 -0.71054273576E-14 -0.88817841970E-15  0.43426528192E+02  0.10109941164E+03  0.91297468104E+02 0.  0.
    9000005    2    3    3    0    0  0.39162838132E+02  0.58368819740E+01 -0.25688058226E+01  0.40408655891E+02  0.76461510481E+01 0.  0.
         22    1    3    3    0    0 -0.39162838132E+02 -0.58368819740E+01  0.45995334015E+02  0.60690755745E+02  0.00000000000E+00 0. -1.
         22    1    4    4    0    0  0.21391627760E+01  0.17447006311E+01 -0.15056262373E+01  0.31443454073E+01  0.00000000000E+00 0.  1.
         22    1    4    4    0    0  0.37023675356E+02  0.40921813429E+01 -0.10631795853E+01  0.37264310484E+02  0.00000000000E+00 0.  1.
<mgrwt>
<rscale>  0 0.91297468E+02</rscale>
<asrwt>0</asrwt>
<pdfrwt beam="2">  1        2 0.44363757E-02 0.91297468E+02</pdfrwt>
<pdfrwt beam="1">  1       -2 0.11117380E-01 0.91297468E+02</pdfrwt>
<totfact> 0.87188517E+04</totfact>
</mgrwt>
</event>
<event>
 7    1  0.3337990E-009  0.9145889E+02  0.7818608E-02  0.1299357E+00
         -2   -1    0    0    0  501 -0.00000000000E+00  0.00000000000E+00  0.85671695870E+01  0.85671699665E+01  0.25500000000E-02 0.  1.
          2   -1    0    0  501    0  0.00000000000E+00 -0.00000000000E+00 -0.24409255241E+03  0.24409255243E+03  0.25500000000E-02 0. -1.
         23    2    1    2    0    0  0.00000000000E+00  0.00000000000E+00 -0.23552538282E+03  0.25265972239E+03  0.91458894396E+02 0.  0.
    9000005    2    3    3    0    0 -0.87813962676E+01 -0.24917143598E+02 -0.22029407995E+03  0.22216432023E+03  0.11380973562E+02 0.  0.
         22    1    3    3    0    0  0.87813962676E+01  0.24917143598E+02 -0.15231302879E+02  0.30495402160E+02  0.00000000000E+00 0.  1.
         22    1    4    4    0    0 -0.54048418562E+01 -0.72262179494E+01 -0.11387443024E+03  0.11423141601E+03  0.00000000000E+00 0.  1.
         22    1    4    4    0    0 -0.33765544114E+01 -0.17690925649E+02 -0.10641964971E+03  0.10793290422E+03  0.00000000000E+00 0.  1.
<mgrwt>
<rscale>  0 0.91458894E+02</rscale>
<asrwt>0</asrwt>
<pdfrwt beam="2">  1        2 0.37552695E-01 0.91458894E+02</pdfrwt>
<pdfrwt beam="1">  1       -2 0.13180263E-02 0.91458894E+02</pdfrwt>
<totfact> 0.16501000E+05</totfact>
</mgrwt>
</event>
<event>
 7    1  0.3337990E-009  0.9287214E+02  0.7818608E-02  0.1296042E+00
         -2   -1    0    0    0  501 -0.00000000000E+00  0.00000000000E+00  0.45671006299E+01  0.45671013418E+01  0.25500000000E-02 0.  1.
          2   -1    0    0  501    0  0.00000000000E+00 -0.00000000000E+00 -0.47213949734E+03  0.47213949734E+03  0.25500000000E-02 0. -1.
         23    2    1    2    0    0  0.00000000000E+00  0.00000000000E+00 -0.46757239671E+03  0.47670659868E+03  0.92872143660E+02 0.  0.
    9000005    2    3    3    0    0 -0.29806904360E+02 -0.20775565258E+02 -0.38095660997E+03  0.38277912576E+03  0.84761296286E+01 0.  0.
         22    1    3    3    0    0  0.29806904360E+02  0.20775565258E+02 -0.86615786734E+02  0.93927472929E+02  0.00000000000E+00 0.  1.
         22    1    4    4    0    0 -0.43990267111E+01 -0.77467065905E+00 -0.29236716510E+02  0.29575955486E+02  0.00000000000E+00 0. -1.
         22    1    4    4    0    0 -0.25407877649E+02 -0.20000894599E+02 -0.35171989346E+03  0.35320317027E+03  0.00000000000E+00 0. -1.
<mgrwt>
<rscale>  0 0.92872144E+02</rscale>
<asrwt>0</asrwt>
<pdfrwt beam="2">  1        2 0.72636807E-01 0.92872144E+02</pdfrwt>
<pdfrwt beam="1">  1       -2 0.70263130E-03 0.92872144E+02</pdfrwt>
<totfact> 0.20137126E+05</totfact>
</mgrwt>
</event>
<event>
 7    1  0.3337990E-009  0.9561587E+02  0.7818608E-02  0.1289795E+00
          2   -1    0    0  501    0  0.00000000000E+00  0.00000000000E+00  0.10083464135E+03  0.10083464138E+03  0.25500000000E-02 0.  1.
         -2   -1    0    0    0  501 -0.00000000000E+00 -0.00000000000E+00 -0.22666801977E+02  0.22666802121E+02  0.25500000000E-02 0. -1.
         23    2    1    2    0    0  0.00000000000E+00  0.00000000000E+00  0.78167839374E+02  0.12350144350E+03  0.95615874390E+02 0.  0.
    9000005    2    3    3    0    0 -0.21308552423E+02  0.37546999874E+02  0.16587337471E+02  0.48295128474E+02  0.13908560816E+02 0.  0.
         22    1    3    3    0    0  0.21308552423E+02 -0.37546999874E+02  0.61580501902E+02  0.75206315030E+02  0.00000000000E+00 0.  1.
         22    1    4    4    0    0 -0.19428663990E+01  0.54604296615E+01 -0.24108149633E+01  0.62771849360E+01  0.00000000000E+00 0. -1.
         22    1    4    4    0    0 -0.19365686024E+02  0.32086570213E+02  0.18998152435E+02  0.42017943538E+02  0.00000000000E+00 0. -1.
<mgrwt>
<rscale>  0 0.95615874E+02</rscale>
<asrwt>0</asrwt>
<pdfrwt beam="1">  1        2 0.15513022E-01 0.95615874E+02</pdfrwt>
<pdfrwt beam="2">  1       -2 0.34872003E-02 0.95615874E+02</pdfrwt>
<totfact> 0.10784423E+05</totfact>
</mgrwt>
</event>
<event>
 7    1  0.3337990E-009  0.9139160E+02  0.7818608E-02  0.1299516E+00
          2   -1    0    0  501    0  0.00000000000E+00  0.00000000000E+00  0.11929785682E+03  0.11929785685E+03  0.25500000000E-02 0. -1.
         -2   -1    0    0    0  501 -0.00000000000E+00 -0.00000000000E+00 -0.17503298666E+02  0.17503298852E+02  0.25500000000E-02 0.  1.
         23    2    1    2    0    0  0.00000000000E+00  0.00000000000E+00  0.10179455815E+03  0.13680115570E+03  0.91391597703E+02 0.  0.
    9000005    2    3    3    0    0  0.11357407667E+02  0.43061514741E+02  0.50224131305E+02  0.68663106959E+02  0.14452478375E+02 0.  0.
         22    1    3    3    0    0 -0.11357407667E+02 -0.43061514741E+02  0.51570426848E+02  0.68138048739E+02  0.00000000000E+00 0. -1.
         22    1    4    4    0    0  0.33224988819E+01  0.35896840793E+02  0.39089956771E+02  0.53175623157E+02  0.00000000000E+00 0. -1.
         22    1    4    4    0    0  0.80349087852E+01  0.71646739479E+01  0.11134174534E+02  0.15487483802E+02  0.00000000000E+00 0. -1.
<mgrwt>
<rscale>  0 0.91391598E+02</rscale>
<asrwt>0</asrwt>
<pdfrwt beam="1">  1        2 0.18353517E-01 0.91391598E+02</pdfrwt>
<pdfrwt beam="2">  1       -2 0.26928151E-02 0.91391598E+02</pdfrwt>
<totfact> 0.12878842E+05</totfact>
</mgrwt>
</event>
<event>
 7    1  0.3337990E-009  0.9003721E+02  0.7818608E-02  0.1302762E+00
          2   -1    0    0  501    0  0.00000000000E+00  0.00000000000E+00  0.42447620553E+02  0.42447620630E+02  0.25500000000E-02 0. -1.
         -2   -1    0    0    0  501 -0.00000000000E+00 -0.00000000000E+00 -0.47745306408E+02  0.47745306477E+02  0.25500000000E-02 0.  1.
         23    2    1    2    0    0  0.00000000000E+00  0.00000000000E+00 -0.52976858553E+01  0.90192927106E+02  0.90037206890E+02 0.  0.
    9000005    2    3    3    0    0  0.57847426013E+01  0.19355856666E+02 -0.41676138342E+02  0.48581579620E+02  0.14668228830E+02 0.  0.
         22    1    3    3    0    0 -0.57847426013E+01 -0.19355856666E+02  0.36378452487E+02  0.41611347486E+02  0.00000000000E+00 0. -1.
         22    1    4    4    0    0  0.21065917085E+00  0.83835364215E+01 -0.31545906642E+02  0.32641572972E+02  0.00000000000E+00 0. -1.
         22    1    4    4    0    0  0.55740834305E+01  0.10972320245E+02 -0.10130231700E+02  0.15940006648E+02  0.00000000000E+00 0. -1.
<mgrwt>
<rscale>  0 0.90037207E+02</rscale>
<asrwt>0</asrwt>
<pdfrwt beam="1">  1        2 0.65304031E-02 0.90037207E+02</pdfrwt>
<pdfrwt beam="2">  1       -2 0.73454318E-02 0.90037207E+02</pdfrwt>
<totfact> 0.10043692E+05</totfact>
</mgrwt>
</event>
<event>
 7    1  0.3337990E-009  0.9224684E+02  0.7818608E-02  0.1297500E+00
          2   -1    0    0  501    0  0.00000000000E+00  0.00000000000E+00  0.70131364676E+02  0.70131364722E+02  0.25500000000E-02 0.  1.
         -2   -1    0    0    0  501 -0.00000000000E+00 -0.00000000000E+00 -0.30334072207E+02  0.30334072314E+02  0.25500000000E-02 0. -1.
         23    2    1    2    0    0  0.00000000000E+00  0.00000000000E+00  0.39797292469E+02  0.10046543704E+03  0.92246840331E+02 0.  0.
    9000005    2    3    3    0    0  0.35628026337E+01 -0.16774248641E+02  0.65593906121E+02  0.69489087090E+02  0.15234950747E+02 0.  0.
         22    1    3    3    0    0 -0.35628026337E+01  0.16774248641E+02 -0.25796613652E+02  0.30976349947E+02  0.00000000000E+00 0. -1.
         22    1    4    4    0    0 -0.52675204636E+01 -0.36270018406E+01  0.27505221858E+02  0.28238964989E+02  0.00000000000E+00 0.  1.
         22    1    4    4    0    0  0.88303230973E+01 -0.13147246801E+02  0.38088684263E+02  0.41250122101E+02  0.00000000000E+00 0.  1.
<mgrwt>
<rscale>  0 0.92246840E+02</rscale>
<asrwt>0</asrwt>
<pdfrwt beam="1">  1        2 0.10789441E-01 0.92246840E+02</pdfrwt>
<pdfrwt beam="2">  1       -2 0.46667804E-02 0.92246840E+02</pdfrwt>
<totfact> 0.10711630E+05</totfact>
</mgrwt>
</event>
<event>
 7    1  0.3337990E-009  0.9270158E+02  0.7818608E-02  0.1296438E+00
          2   -1    0    0  501    0  0.00000000000E+00  0.00000000000E+00  0.15209802826E+03  0.15209802828E+03  0.25500000000E-02 0. -1.
         -2   -1    0    0    0  501 -0.00000000000E+00 -0.00000000000E+00 -0.14125073268E+02  0.14125073498E+02  0.25500000000E-02 0.  1.
         23    2    1    2    0    0  0.00000000000E+00  0.00000000000E+00  0.13797295499E+03  0.16622310178E+03  0.92701581734E+02 0.  0.
    9000005    2    3    3    0    0 -0.27164155070E+02 -0.30291737897E+01  0.13606293334E+03  0.13882391571E+03  0.34482647247E+01 0.  0.
         22    1    3    3    0    0  0.27164155070E+02  0.30291737897E+01  0.19100216523E+01  0.27399186069E+02  0.00000000000E+00 0.  1.
         22    1    4    4    0    0 -0.19631242243E+02 -0.34869318538E+01  0.94342503438E+02  0.96426408835E+02  0.00000000000E+00 0.  1.
         22    1    4    4    0    0 -0.75329128276E+01  0.45775806417E+00  0.41720429901E+02  0.42397506876E+02  0.00000000000E+00 0.  1.
<mgrwt>
<rscale>  0 0.92701582E+02</rscale>
<asrwt>0</asrwt>
<pdfrwt beam="1">  1        2 0.23399697E-01 0.92701582E+02</pdfrwt>
<pdfrwt beam="2">  1       -2 0.21730882E-02 0.92701582E+02</pdfrwt>
<totfact> 0.13428095E+05</totfact>
</mgrwt>
</event>
<event>
 7    1  0.3337990E-009  0.8921547E+02  0.7818608E-02  0.1304763E+00
          2   -1    0    0  501    0  0.00000000000E+00  0.00000000000E+00  0.42885097564E+03  0.42885097565E+03  0.25500000000E-02 0. -1.
         -2   -1    0    0    0  501 -0.00000000000E+00 -0.00000000000E+00 -0.46399568155E+01  0.46399575162E+01  0.25500000000E-02 0.  1.
         23    2    1    2    0    0  0.00000000000E+00 -0.17763568394E-14  0.42421101883E+03  0.43349093317E+03  0.89215473115E+02 0.  0.
    9000005    2    3    3    0    0  0.21110246851E+02  0.98359594483E+01  0.39692278705E+03  0.39761564622E+03  0.28486161724E+01 0.  0.
         22    1    3    3    0    0 -0.21110246851E+02 -0.98359594483E+01  0.27288231776E+02  0.35875286952E+02  0.00000000000E+00 0.  1.
         22    1    4    4    0    0  0.18262124037E+02  0.87527411963E+01  0.32699295783E+03  0.32761945931E+03  0.00000000000E+00 0.  1.
         22    1    4    4    0    0  0.28481228148E+01  0.10832182520E+01  0.69929829226E+02  0.69996186903E+02  0.00000000000E+00 0.  1.
<mgrwt>
<rscale>  0 0.89215473E+02</rscale>
<asrwt>0</asrwt>
<pdfrwt beam="1">  1        2 0.65977088E-01 0.89215473E+02</pdfrwt>
<pdfrwt beam="2">  1       -2 0.71383940E-03 0.89215473E+02</pdfrwt>
<totfact> 0.21672984E+05</totfact>
</mgrwt>
</event>
<event>
 7    1  0.3337990E-009  0.9099273E+02  0.7818608E-02  0.1300465E+00
          2   -1    0    0  501    0  0.00000000000E+00  0.00000000000E+00  0.66843536636E+03  0.66843536636E+03  0.25500000000E-02 0. -1.
         -2   -1    0    0    0  501 -0.00000000000E+00 -0.00000000000E+00 -0.30966630326E+01  0.30966640826E+01  0.25500000000E-02 0.  1.
         23    2    1    2    0    0 -0.17763568394E-14  0.00000000000E+00  0.66533870333E+03  0.67153203045E+03  0.90992734718E+02 0.  0.
    9000005    2    3    3    0    0 -0.15628360306E+02 -0.29897212477E+02  0.55687686075E+03  0.55794479413E+03  0.72433620697E+01 0.  0.
         22    1    3    3    0    0  0.15628360306E+02  0.29897212477E+02  0.10846184257E+03  0.11358723632E+03  0.00000000000E+00 0.  1.
         22    1    4    4    0    0 -0.12879164692E+02 -0.17530540142E+02  0.33293017448E+03  0.33364006624E+03  0.00000000000E+00 0.  1.
         22    1    4    4    0    0 -0.27491956142E+01 -0.12366672335E+02  0.22394668627E+03  0.22430472789E+03  0.00000000000E+00 0.  1.
<mgrwt>
<rscale>  0 0.90992735E+02</rscale>
<asrwt>0</asrwt>
<pdfrwt beam="1">  1        2 0.10283631E+00 0.90992735E+02</pdfrwt>
<pdfrwt beam="2">  1       -2 0.47640930E-03 0.90992735E+02</pdfrwt>
<totfact> 0.23577127E+05</totfact>
</mgrwt>
</event>
<event>
 7    1  0.3337990E-009  0.1019053E+03  0.7818608E-02  0.1276340E+00
          2   -1    0    0  501    0  0.00000000000E+00  0.00000000000E+00  0.45142304293E+02  0.45142304365E+02  0.25500000000E-02 0. -1.
         -2   -1    0    0    0  501 -0.00000000000E+00 -0.00000000000E+00 -0.57510865986E+02  0.57510866043E+02  0.25500000000E-02 0.  1.
         23    2    1    2    0    0  0.00000000000E+00  0.00000000000E+00 -0.12368561693E+02  0.10265317041E+03  0.10190530936E+03 0.  0.
    9000005    2    3    3    0    0 -0.57062099993E+01  0.19528849339E+02  0.40749577221E+02  0.45771947928E+02  0.45394255598E+01 0.  0.
         22    1    3    3    0    0  0.57062099993E+01 -0.19528849339E+02 -0.53118138914E+02  0.56881222479E+02  0.00000000000E+00 0.  1.
         22    1    4    4    0    0 -0.63531598187E+00  0.58521008285E+01  0.15938236843E+02  0.16990529838E+02  0.00000000000E+00 0. -1.
         22    1    4    4    0    0 -0.50708940175E+01  0.13676748511E+02  0.24811340377E+02  0.28781418090E+02  0.00000000000E+00 0. -1.
<mgrwt>
<rscale>  0 0.10190531E+03</rscale>
<asrwt>0</asrwt>
<pdfrwt beam="1">  1        2 0.69449699E-02 0.10190531E+03</pdfrwt>
<pdfrwt beam="2">  1       -2 0.88478255E-02 0.10190531E+03</pdfrwt>
<totfact> 0.71224809E+04</totfact>
</mgrwt>
</event>
<event>
 7    1  0.3337990E-009  0.8860268E+02  0.7818608E-02  0.1306271E+00
         -2   -1    0    0    0  501 -0.00000000000E+00  0.00000000000E+00  0.39121948585E+02  0.39121948668E+02  0.25500000000E-02 0.  1.
          2   -1    0    0  501    0  0.00000000000E+00 -0.00000000000E+00 -0.50166432703E+02  0.50166432768E+02  0.25500000000E-02 0. -1.
         23    2    1    2    0    0  0.00000000000E+00  0.00000000000E+00 -0.11044484118E+02  0.89288381436E+02  0.88602677330E+02 0.  0.
    9000005    2    3    3    0    0  0.32105397593E+02  0.12688192246E+02  0.21774161632E+02  0.41656351393E+02  0.83301092142E+01 0.  0.
         22    1    3    3    0    0 -0.32105397593E+02 -0.12688192246E+02 -0.32818645751E+02  0.47632030043E+02  0.00000000000E+00 0. -1.
         22    1    4    4    0    0  0.38765924771E+01 -0.10772063237E+01  0.16068568798E+01  0.43324740887E+01  0.00000000000E+00 0.  1.
         22    1    4    4    0    0  0.28228805116E+02  0.13765398570E+02  0.20167304752E+02  0.37323877305E+02  0.00000000000E+00 0.  1.
<mgrwt>
<rscale>  0 0.88602677E+02</rscale>
<asrwt>0</asrwt>
<pdfrwt beam="2">  1        2 0.77179128E-02 0.88602677E+02</pdfrwt>
<pdfrwt beam="1">  1       -2 0.60187613E-02 0.88602677E+02</pdfrwt>
<totfact> 0.10974078E+05</totfact>
</mgrwt>
</event>
<event>
 7    1  0.3337990E-009  0.9616808E+02  0.7818608E-02  0.1288567E+00
          2   -1    0    0  501    0  0.00000000000E+00  0.00000000000E+00  0.11548703796E+04  0.11548703796E+04  0.25500000000E-02 0. -1.
         -2   -1    0    0    0  501 -0.00000000000E+00 -0.00000000000E+00 -0.20020202312E+01  0.20020218552E+01  0.25500000000E-02 0.  1.
         23    2    1    2    0    0  0.55511151231E-16  0.00000000000E+00  0.11528683594E+04  0.11568724015E+04  0.96168077976E+02 0.  0.
    9000005    2    3    3    0    0 -0.36344419020E+00 -0.18570854375E+02  0.11092613461E+04  0.11094742968E+04  0.11290370597E+02 0.  0.
         22    1    3    3    0    0  0.36344419020E+00  0.18570854375E+02  0.43607013267E+02  0.47398104709E+02  0.00000000000E+00 0.  1.
         22    1    4    4    0    0 -0.38334256312E+01 -0.12368043973E+01  0.18390450195E+03  0.18394860878E+03  0.00000000000E+00 0. -1.
         22    1    4    4    0    0  0.34699814410E+01 -0.17334049978E+02  0.92535684418E+03  0.92552568799E+03  0.00000000000E+00 0. -1.
<mgrwt>
<rscale>  0 0.96168078E+02</rscale>
<asrwt>0</asrwt>
<pdfrwt beam="1">  1        2 0.17767207E+00 0.96168078E+02</pdfrwt>
<pdfrwt beam="2">  1       -2 0.30800375E-03 0.96168078E+02</pdfrwt>
<totfact> 0.21681078E+05</totfact>
</mgrwt>
</event>
<event>
 7    1  0.3337990E-009  0.9168567E+02  0.7818608E-02  0.1298820E+00
          2   -1    0    0  501    0  0.00000000000E+00  0.00000000000E+00  0.30373925238E+03  0.30373925239E+03  0.25500000000E-02 0.  1.
         -2   -1    0    0    0  501 -0.00000000000E+00 -0.00000000000E+00 -0.69189790286E+01  0.69189794985E+01  0.25500000000E-02 0. -1.
         23    2    1    2    0    0  0.00000000000E+00  0.71054273576E-14  0.29682027335E+03  0.31065823189E+03  0.91685671553E+02 0.  0.
    9000005    2    3    3    0    0  0.13813894082E+02 -0.42329802596E+02  0.13925524639E+03  0.14692254983E+03  0.14545657235E+02 0.  0.
         22    1    3    3    0    0 -0.13813894082E+02  0.42329802596E+02  0.15756502697E+03  0.16373568206E+03  0.00000000000E+00 0. -1.
         22    1    4    4    0    0 -0.17452298840E+01 -0.81542347263E+00  0.24724227171E+01  0.31342649664E+01  0.00000000000E+00 0. -1.
         22    1    4    4    0    0  0.15559123966E+02 -0.41514379123E+02  0.13678282367E+03  0.14378828486E+03  0.00000000000E+00 0. -1.
<mgrwt>
<rscale>  0 0.91685672E+02</rscale>
<asrwt>0</asrwt>
<pdfrwt beam="1">  1        2 0.46729111E-01 0.91685672E+02</pdfrwt>
<pdfrwt beam="2">  1       -2 0.10644585E-02 0.91685672E+02</pdfrwt>
<totfact> 0.17782826E+05</totfact>
</mgrwt>
</event>
<event>
 7    1  0.3337990E-009  0.9040715E+02  0.7818608E-02  0.1301869E+00
         -2   -1    0    0    0  501 -0.00000000000E+00  0.00000000000E+00  0.87501441717E+02  0.87501441754E+02  0.25500000000E-02 0.  1.
          2   -1    0    0  501    0  0.00000000000E+00 -0.00000000000E+00 -0.23352338836E+02  0.23352338976E+02  0.25500000000E-02 0. -1.
         23    2    1    2    0    0 -0.35527136788E-14  0.71054273576E-14  0.64149102880E+02  0.11085378073E+03  0.90407152934E+02 0.  0.
    9000005    2    3    3    0    0  0.31349410160E+02 -0.23596746059E+02  0.79262755258E+01  0.42292871622E+02  0.13648047638E+02 0.  0.
         22    1    3    3    0    0 -0.31349410160E+02  0.23596746059E+02  0.56222827355E+02  0.68560909108E+02  0.00000000000E+00 0.  1.
         22    1    4    4    0    0  0.13746493230E+02 -0.34136329468E+01 -0.63076759403E+00  0.14178040548E+02  0.00000000000E+00 0. -1.
         22    1    4    4    0    0  0.17602916930E+02 -0.20183113112E+02  0.85570431198E+01  0.28114831073E+02  0.00000000000E+00 0. -1.
<mgrwt>
<rscale>  0 0.90407153E+02</rscale>
<asrwt>0</asrwt>
<pdfrwt beam="2">  1        2 0.35926675E-02 0.90407153E+02</pdfrwt>
<pdfrwt beam="1">  1       -2 0.13461760E-01 0.90407153E+02</pdfrwt>
<totfact> 0.84723939E+04</totfact>
</mgrwt>
</event>
<event>
 7    1  0.3337990E-009  0.8238102E+02  0.7818608E-02  0.1322427E+00
         -2   -1    0    0    0  501 -0.00000000000E+00  0.00000000000E+00  0.19339856366E+02  0.19339856535E+02  0.25500000000E-02 0.  1.
          2   -1    0    0  501    0  0.00000000000E+00 -0.00000000000E+00 -0.87728583693E+02  0.87728583730E+02  0.25500000000E-02 0. -1.
         23    2    1    2    0    0  0.35527136788E-14 -0.35527136788E-14 -0.68388727326E+02  0.10706844026E+03  0.82381022544E+02 0.  0.
    9000005    2    3    3    0    0 -0.18216713490E+02  0.20705843390E+02  0.51841255348E+01  0.28496528750E+02  0.49594750113E+01 0.  0.
         22    1    3    3    0    0  0.18216713490E+02 -0.20705843390E+02 -0.73572852861E+02  0.78571911514E+02  0.00000000000E+00 0. -1.
         22    1    4    4    0    0 -0.11203317407E+02  0.96573206449E+01  0.41854938920E+01  0.15371939438E+02  0.00000000000E+00 0.  1.
         22    1    4    4    0    0 -0.70133960835E+01  0.11048522745E+02  0.99863164280E+00  0.13124589313E+02  0.00000000000E+00 0.  1.
<mgrwt>
<rscale>  0 0.82381023E+02</rscale>
<asrwt>0</asrwt>
<pdfrwt beam="2">  1        2 0.13496705E-01 0.82381023E+02</pdfrwt>
<pdfrwt beam="1">  1       -2 0.29753626E-02 0.82381023E+02</pdfrwt>
<totfact> 0.15584475E+05</totfact>
</mgrwt>
</event>
<event>
 7    1  0.3337990E-009  0.9141013E+02  0.7818608E-02  0.1299472E+00
         -2   -1    0    0    0  501 -0.00000000000E+00  0.00000000000E+00  0.11446625029E+02  0.11446625313E+02  0.25500000000E-02 0.  1.
          2   -1    0    0  501    0  0.00000000000E+00 -0.00000000000E+00 -0.18249511526E+03  0.18249511528E+03  0.25500000000E-02 0. -1.
         23    2    1    2    0    0  0.00000000000E+00  0.00000000000E+00 -0.17104849024E+03  0.19394174059E+03  0.91410134739E+02 0.  0.
    9000005    2    3    3    0    0  0.20731055808E+02 -0.37160163523E+02 -0.58843712579E+02  0.73939379964E+02  0.13921026236E+02 0.  0.
         22    1    3    3    0    0 -0.20731055808E+02  0.37160163523E+02 -0.11220477766E+03  0.12000236063E+03  0.00000000000E+00 0. -1.
         22    1    4    4    0    0  0.11233284837E+02 -0.14356432532E+02 -0.35720648290E+02  0.40103099102E+02  0.00000000000E+00 0. -1.
         22    1    4    4    0    0  0.94977709707E+01 -0.22803730991E+02 -0.23123064289E+02  0.33836280862E+02  0.00000000000E+00 0. -1.
<mgrwt>
<rscale>  0 0.91410135E+02</rscale>
<asrwt>0</asrwt>
<pdfrwt beam="2">  1        2 0.28076170E-01 0.91410135E+02</pdfrwt>
<pdfrwt beam="1">  1       -2 0.17610194E-02 0.91410135E+02</pdfrwt>
<totfact> 0.14864767E+05</totfact>
</mgrwt>
</event>
<event>
 7    1  0.3337990E-009  0.9283012E+02  0.7818608E-02  0.1296139E+00
          2   -1    0    0  501    0  0.00000000000E+00  0.00000000000E+00  0.27732983879E+03  0.27732983880E+03  0.25500000000E-02 0. -1.
         -2   -1    0    0    0  501 -0.00000000000E+00 -0.00000000000E+00 -0.77682139241E+01  0.77682143427E+01  0.25500000000E-02 0.  1.
         23    2    1    2    0    0  0.00000000000E+00  0.00000000000E+00  0.26956162487E+03  0.28509805315E+03  0.92830115299E+02 0.  0.
    9000005    2    3    3    0    0  0.43155160284E+02 -0.11556231236E+01  0.90685329404E+02  0.10108600897E+03  0.11438921099E+02 0.  0.
         22    1    3    3    0    0 -0.43155160284E+02  0.11556231236E+01  0.17887629546E+03  0.18401204418E+03  0.00000000000E+00 0.  1.
         22    1    4    4    0    0  0.30408724494E+02 -0.56393880937E+00  0.50792030492E+02  0.59201679992E+02  0.00000000000E+00 0.  1.
         22    1    4    4    0    0  0.12746435790E+02 -0.59168431420E+00  0.39893298912E+02  0.41884328976E+02  0.00000000000E+00 0.  1.
<mgrwt>
<rscale>  0 0.92830115E+02</rscale>
<asrwt>0</asrwt>
<pdfrwt beam="1">  1        2 0.42666127E-01 0.92830115E+02</pdfrwt>
<pdfrwt beam="2">  1       -2 0.11951099E-02 0.92830115E+02</pdfrwt>
<totfact> 0.16627832E+05</totfact>
</mgrwt>
</event>
<event>
 7    1  0.3337990E-009  0.9038851E+02  0.7818608E-02  0.1301914E+00
         -2   -1    0    0    0  501 -0.00000000000E+00  0.00000000000E+00  0.24498087226E+01  0.24498100497E+01  0.25500000000E-02 0.  1.
          2   -1    0    0  501    0  0.00000000000E+00 -0.00000000000E+00 -0.83374668893E+03  0.83374668893E+03  0.25500000000E-02 0. -1.
         23    2    1    2    0    0  0.00000000000E+00  0.00000000000E+00 -0.83129688021E+03  0.83619649898E+03  0.90388505187E+02 0.  0.
    9000005    2    3    3    0    0 -0.12468976003E+02 -0.15359414552E+02 -0.79049639712E+03  0.79085263062E+03  0.13112685540E+02 0.  0.
         22    1    3    3    0    0  0.12468976003E+02  0.15359414552E+02 -0.40800483087E+02  0.45343868362E+02  0.00000000000E+00 0.  1.
         22    1    4    4    0    0  0.19081614401E+01  0.67331184411E+00 -0.10012654502E+03  0.10014698921E+03  0.00000000000E+00 0. -1.
         22    1    4    4    0    0 -0.14377137443E+02 -0.16032726396E+02 -0.69036985210E+03  0.69070564142E+03  0.00000000000E+00 0. -1.
<mgrwt>
<rscale>  0 0.90388505E+02</rscale>
<asrwt>0</asrwt>
<pdfrwt beam="2">  1        2 0.12826849E+00 0.90388505E+02</pdfrwt>
<pdfrwt beam="1">  1       -2 0.37689442E-03 0.90388505E+02</pdfrwt>
<totfact> 0.25108766E+05</totfact>
</mgrwt>
</event>
<event>
 7    1  0.3337990E-009  0.9245813E+02  0.7818608E-02  0.1297006E+00
         -2   -1    0    0    0  501 -0.00000000000E+00  0.00000000000E+00  0.10415001158E+02  0.10415001471E+02  0.25500000000E-02 0.  1.
          2   -1    0    0  501    0  0.00000000000E+00 -0.00000000000E+00 -0.20519694122E+03  0.20519694123E+03  0.25500000000E-02 0. -1.
         23    2    1    2    0    0  0.00000000000E+00  0.00000000000E+00 -0.19478194006E+03  0.21561194270E+03  0.92458129244E+02 0.  0.
    9000005    2    3    3    0    0 -0.24510721107E+02 -0.20105015863E+02 -0.17560142361E+03  0.17855955650E+03  0.65320847975E+01 0.  0.
         22    1    3    3    0    0  0.24510721107E+02  0.20105015863E+02 -0.19180516446E+02  0.37052386200E+02  0.00000000000E+00 0.  1.
         22    1    4    4    0    0 -0.14131181263E+02 -0.78312057753E+01 -0.96233519917E+02  0.97580266567E+02  0.00000000000E+00 0.  1.
         22    1    4    4    0    0 -0.10379539843E+02 -0.12273810087E+02 -0.79367903697E+02  0.80979289937E+02  0.00000000000E+00 0.  1.
<mgrwt>
<rscale>  0 0.92458129E+02</rscale>
<asrwt>0</asrwt>
<pdfrwt beam="2">  1        2 0.31568757E-01 0.92458129E+02</pdfrwt>
<pdfrwt beam="1">  1       -2 0.16023081E-02 0.92458129E+02</pdfrwt>
<totfact> 0.15036151E+05</totfact>
</mgrwt>
</event>
<event>
 7    1  0.3337990E-009  0.9026845E+02  0.7818608E-02  0.1302203E+00
          2   -1    0    0  501    0  0.00000000000E+00  0.00000000000E+00  0.34869691126E+03  0.34869691127E+03  0.25500000000E-02 0. -1.
         -2   -1    0    0    0  501 -0.00000000000E+00 -0.00000000000E+00 -0.58420310851E+01  0.58420316416E+01  0.25500000000E-02 0.  1.
         23    2    1    2    0    0  0.35527136788E-14 -0.17763568394E-14  0.34285488017E+03  0.35453894291E+03  0.90268450638E+02 0.  0.
    9000005    2    3    3    0    0  0.19630824142E+02 -0.10877133116E+02  0.32502103588E+03  0.32587315697E+03  0.71385843100E+01 0.  0.
         22    1    3    3    0    0 -0.19630824142E+02  0.10877133116E+02  0.17833844290E+02  0.28665785939E+02  0.00000000000E+00 0.  1.
         22    1    4    4    0    0  0.65227850301E+01 -0.86484762959E+00  0.12505973292E+03  0.12523270933E+03  0.00000000000E+00 0.  1.
         22    1    4    4    0    0  0.13108039112E+02 -0.10012285487E+02  0.19996130296E+03  0.20064044764E+03  0.00000000000E+00 0.  1.
<mgrwt>
<rscale>  0 0.90268451E+02</rscale>
<asrwt>0</asrwt>
<pdfrwt beam="1">  1        2 0.53645672E-01 0.90268451E+02</pdfrwt>
<pdfrwt beam="2">  1       -2 0.89877417E-03 0.90268451E+02</pdfrwt>
<totfact> 0.19506050E+05</totfact>
</mgrwt>
</event>
<event>
 7    1  0.3337990E-009  0.9110541E+02  0.7818608E-02  0.1300197E+00
          2   -1    0    0  501    0  0.00000000000E+00  0.00000000000E+00  0.12303090671E+04  0.12303090671E+04  0.25500000000E-02 0. -1.
         -2   -1    0    0    0  501 -0.00000000000E+00 -0.00000000000E+00 -0.16866067340E+01  0.16866086616E+01  0.25500000000E-02 0.  1.
         23    2    1    2    0    0  0.17763568394E-14 -0.17763568394E-14  0.12286224604E+04  0.12319956758E+04  0.91105405910E+02 0.  0.
    9000005    2    3    3    0    0 -0.10460440911E+02  0.14728989324E+02  0.11796797646E+04  0.11798252683E+04  0.41173605361E+01 0.  0.
         22    1    3    3    0    0  0.10460440911E+02 -0.14728989324E+02  0.48942695736E+02  0.52170407478E+02  0.00000000000E+00 0.  1.
         22    1    4    4    0    0 -0.21824438045E+01  0.62200035186E+01  0.46995090829E+03  0.46999713585E+03  0.00000000000E+00 0.  1.
         22    1    4    4    0    0 -0.82779971062E+01  0.85089858054E+01  0.70972885636E+03  0.70982813245E+03  0.00000000000E+00 0.  1.
<mgrwt>
<rscale>  0 0.91105406E+02</rscale>
<asrwt>0</asrwt>
<pdfrwt beam="1">  1        2 0.18927816E+00 0.91105406E+02</pdfrwt>
<pdfrwt beam="2">  1       -2 0.25947833E-03 0.91105406E+02</pdfrwt>
<totfact> 0.24843809E+05</totfact>
</mgrwt>
</event>
<event>
 7    1  0.3337990E-009  0.9071423E+02  0.7818608E-02  0.1301131E+00
          2   -1    0    0  501    0  0.00000000000E+00  0.00000000000E+00  0.61066165683E+02  0.61066165736E+02  0.25500000000E-02 0. -1.
         -2   -1    0    0    0  501 -0.00000000000E+00 -0.00000000000E+00 -0.33689161138E+02  0.33689161234E+02  0.25500000000E-02 0.  1.
         23    2    1    2    0    0  0.00000000000E+00  0.55511151231E-16  0.27377004545E+02  0.94755326971E+02  0.90714230479E+02 0.  0.
    9000005    2    3    3    0    0  0.18524909054E+02 -0.16331891539E+00 -0.29458153279E+02  0.34977119458E+02  0.35237994352E+01 0.  0.
         22    1    3    3    0    0 -0.18524909054E+02  0.16331891539E+00  0.56835157824E+02  0.59778207512E+02  0.00000000000E+00 0. -1.
         22    1    4    4    0    0  0.13831782110E+02 -0.11866992168E+01 -0.23820098751E+02  0.27570338334E+02  0.00000000000E+00 0. -1.
         22    1    4    4    0    0  0.46931269444E+01  0.10233803014E+01 -0.56380545278E+01  0.74067811238E+01  0.00000000000E+00 0. -1.
<mgrwt>
<rscale>  0 0.90714230E+02</rscale>
<asrwt>0</asrwt>
<pdfrwt beam="1">  1        2 0.93947947E-02 0.90714230E+02</pdfrwt>
<pdfrwt beam="2">  1       -2 0.51829479E-02 0.90714230E+02</pdfrwt>
<totfact> 0.10810989E+05</totfact>
</mgrwt>
</event>
<event>
 7    1  0.3337990E-009  0.6649212E+02  0.7818608E-02  0.1372445E+00
         -2   -1    0    0    0  501 -0.00000000000E+00  0.00000000000E+00  0.37268214105E+01  0.37268222829E+01  0.25500000000E-02 0.  1.
          2   -1    0    0  501    0  0.00000000000E+00 -0.00000000000E+00 -0.29657989470E+03  0.29657989471E+03  0.25500000000E-02 0. -1.
         23    2    1    2    0    0  0.00000000000E+00  0.00000000000E+00 -0.29285307329E+03  0.30030671700E+03  0.66492117853E+02 0.  0.
    9000005    2    3    3    0    0 -0.14505185950E+02  0.21158081152E+02 -0.23641425251E+03  0.23831151308E+03  0.15576060433E+02 0.  0.
         22    1    3    3    0    0  0.14505185950E+02 -0.21158081152E+02 -0.56438820780E+02  0.61995203916E+02  0.00000000000E+00 0. -1.
         22    1    4    4    0    0 -0.11416681822E+02  0.62881124878E+01 -0.15066397890E+03  0.15122670240E+03  0.00000000000E+00 0. -1.
         22    1    4    4    0    0 -0.30885041283E+01  0.14869968664E+02 -0.85750273614E+02  0.87084810678E+02  0.00000000000E+00 0. -1.
<mgrwt>
<rscale>  0 0.66492118E+02</rscale>
<asrwt>0</asrwt>
<pdfrwt beam="2">  1        2 0.45627658E-01 0.66492118E+02</pdfrwt>
<pdfrwt beam="1">  1       -2 0.57335744E-03 0.66492118E+02</pdfrwt>
<totfact> 0.40929346E+05</totfact>
</mgrwt>
</event>
<event>
 7    1  0.3337990E-009  0.8965637E+02  0.7818608E-02  0.1303686E+00
         -2   -1    0    0    0  501 -0.00000000000E+00  0.00000000000E+00  0.11133047938E+02  0.11133048230E+02  0.25500000000E-02 0.  1.
          2   -1    0    0  501    0  0.00000000000E+00 -0.00000000000E+00 -0.18050457841E+03  0.18050457843E+03  0.25500000000E-02 0. -1.
         23    2    1    2    0    0  0.00000000000E+00  0.71054273576E-14 -0.16937153047E+03  0.19163762666E+03  0.89656369638E+02 0.  0.
    9000005    2    3    3    0    0  0.19858826941E+02 -0.35800620593E+02 -0.11983311119E+03  0.12737167590E+03  0.13693496298E+02 0.  0.
         22    1    3    3    0    0 -0.19858826941E+02  0.35800620593E+02 -0.49538419284E+02  0.64265950763E+02  0.00000000000E+00 0.  1.
         22    1    4    4    0    0  0.20796552200E+02 -0.32213888553E+02 -0.98149194237E+02  0.10537312527E+03  0.00000000000E+00 0.  1.
         22    1    4    4    0    0 -0.93772525840E+00 -0.35867320401E+01 -0.21683916953E+02  0.21998550630E+02  0.00000000000E+00 0.  1.
<mgrwt>
<rscale>  0 0.89656370E+02</rscale>
<asrwt>0</asrwt>
<pdfrwt beam="2">  1        2 0.27769933E-01 0.89656370E+02</pdfrwt>
<pdfrwt beam="1">  1       -2 0.17127768E-02 0.89656370E+02</pdfrwt>
<totfact> 0.15600719E+05</totfact>
</mgrwt>
</event>
<event>
 7    1  0.3349200E-009  0.9504616E+02  0.7818608E-02  0.1291072E+00
          2   -1    0    0  501    0  0.00000000000E+00  0.00000000000E+00  0.19548655761E+04  0.19548655761E+04  0.25500000000E-02 0. -1.
         -2   -1    0    0    0  501 -0.00000000000E+00 -0.00000000000E+00 -0.11552919793E+01  0.11552947935E+01  0.25500000000E-02 0.  1.
         23    2    1    2    0    0  0.00000000000E+00  0.17763568394E-14  0.19537102842E+04  0.19560208709E+04  0.95046162988E+02 0.  0.
    9000005    2    3    3    0    0  0.13687277882E+02  0.13514737109E+02  0.18692773446E+04  0.18694246182E+04  0.13439591453E+02 0.  0.
         22    1    3    3    0    0 -0.13687277882E+02 -0.13514737109E+02  0.84432939572E+02  0.86596252689E+02  0.00000000000E+00 0.  1.
         22    1    4    4    0    0  0.10695071677E+02  0.14560194510E+02  0.11643565275E+04  0.11644966754E+04  0.00000000000E+00 0.  1.
         22    1    4    4    0    0  0.29922062051E+01 -0.10454574011E+01  0.70492081710E+03  0.70492794289E+03  0.00000000000E+00 0.  1.
<mgrwt>
<rscale>  0 0.95046163E+02</rscale>
<asrwt>0</asrwt>
<pdfrwt beam="1">  1        2 0.30074330E+00 0.95046163E+02</pdfrwt>
<pdfrwt beam="2">  1       -2 0.17774055E-03 0.95046163E+02</pdfrwt>
<totfact> 0.17999196E+05</totfact>
</mgrwt>
</event>
<event>
 7    1  0.6597723E-009  0.9137537E+02  0.7818608E-02  0.1299555E+00
         -2   -1    0    0    0  501 -0.00000000000E+00  0.00000000000E+00  0.20750219574E+01  0.20750235242E+01  0.25500000000E-02 0.  1.
          2   -1    0    0  501    0  0.00000000000E+00 -0.00000000000E+00 -0.10059477815E+04  0.10059477815E+04  0.25500000000E-02 0. -1.
         23    2    1    2    0    0 -0.35527136788E-14 -0.44408920985E-15 -0.10038727596E+04  0.10080228051E+04  0.91375369241E+02 0.  0.
    9000005    2    3    3    0    0  0.16912547472E+02  0.37367417755E+01 -0.96711773626E+03  0.96739117649E+03  0.15131922099E+02 0.  0.
         22    1    3    3    0    0 -0.16912547472E+02 -0.37367417755E+01 -0.36755023312E+02  0.40631628564E+02  0.00000000000E+00 0.  1.
         22    1    4    4    0    0  0.10219842048E+02 -0.38542979250E+01 -0.69411331925E+03  0.69419925148E+03  0.00000000000E+00 0.  1.
         22    1    4    4    0    0  0.66927054242E+01  0.75910397005E+01 -0.27300441700E+03  0.27319192501E+03  0.00000000000E+00 0.  1.
<mgrwt>
<rscale>  0 0.91375369E+02</rscale>
<asrwt>0</asrwt>
<pdfrwt beam="2">  1        2 0.15476081E+00 0.91375369E+02</pdfrwt>
<pdfrwt beam="1">  1       -2 0.31923507E-03 0.91375369E+02</pdfrwt>
<totfact> 0.24864695E+05</totfact>
</mgrwt>
</event>
<event>
 7    1  0.3337990E-009  0.8741566E+02  0.7818608E-02  0.1309234E+00
         -2   -1    0    0    0  501 -0.00000000000E+00  0.00000000000E+00  0.28729923138E+02  0.28729923251E+02  0.25500000000E-02 0.  1.
          2   -1    0    0  501    0  0.00000000000E+00 -0.00000000000E+00 -0.66494242196E+02  0.66494242244E+02  0.25500000000E-02 0. -1.
         23    2    1    2    0    0  0.00000000000E+00  0.00000000000E+00 -0.37764319058E+02  0.95224165496E+02  0.87415661643E+02 0.  0.
    9000005    2    3    3    0    0  0.17383721541E+02 -0.36935423371E+02 -0.41733562603E+01  0.42358561783E+02  0.10507691453E+02 0.  0.
         22    1    3    3    0    0 -0.17383721541E+02  0.36935423371E+02 -0.33590962797E+02  0.52865603712E+02  0.00000000000E+00 0. -1.
         22    1    4    4    0    0 -0.60963761495E+00 -0.13396422296E-01  0.77759323882E+00  0.98817444348E+00  0.00000000000E+00 0. -1.
         22    1    4    4    0    0  0.17993359156E+02 -0.36922026949E+02 -0.49509494992E+01  0.41370387340E+02  0.00000000000E+00 0. -1.
<mgrwt>
<rscale>  0 0.87415662E+02</rscale>
<asrwt>0</asrwt>
<pdfrwt beam="2">  1        2 0.10229883E-01 0.87415662E+02</pdfrwt>
<pdfrwt beam="1">  1       -2 0.44199882E-02 0.87415662E+02</pdfrwt>
<totfact> 0.12268130E+05</totfact>
</mgrwt>
</event>
<event>
 7    1  0.3337990E-009  0.9109378E+02  0.7818608E-02  0.1300224E+00
          2   -1    0    0  501    0  0.00000000000E+00  0.00000000000E+00  0.17090140314E+03  0.17090140316E+03  0.25500000000E-02 0.  1.
         -2   -1    0    0    0  501 -0.00000000000E+00 -0.00000000000E+00 -0.12138688876E+02  0.12138689144E+02  0.25500000000E-02 0. -1.
         23    2    1    2    0    0  0.00000000000E+00  0.00000000000E+00  0.15876271426E+03  0.18304009230E+03  0.91093775583E+02 0.  0.
    9000005    2    3    3    0    0 -0.33875526468E+02  0.12111374356E+02  0.28479586410E+02  0.47881185510E+02  0.13685189126E+02 0.  0.
         22    1    3    3    0    0  0.33875526468E+02 -0.12111374356E+02  0.13028312785E+03  0.13515890679E+03  0.00000000000E+00 0.  1.
         22    1    4    4    0    0 -0.83214863516E+01  0.69863092558E+01  0.15048515988E+02  0.18561074472E+02  0.00000000000E+00 0.  1.
         22    1    4    4    0    0 -0.25554040117E+02  0.51250650997E+01  0.13431070422E+02  0.29320111038E+02  0.00000000000E+00 0.  1.
<mgrwt>
<rscale>  0 0.91093776E+02</rscale>
<asrwt>0</asrwt>
<pdfrwt beam="1">  1        2 0.26292521E-01 0.91093776E+02</pdfrwt>
<pdfrwt beam="2">  1       -2 0.18674908E-02 0.91093776E+02</pdfrwt>
<totfact> 0.14660990E+05</totfact>
</mgrwt>
</event>
<event>
 7    1  0.3337990E-009  0.8888692E+02  0.7818608E-02  0.1305570E+00
         -2   -1    0    0    0  501 -0.00000000000E+00  0.00000000000E+00  0.26957578286E+02  0.26957578407E+02  0.25500000000E-02 0.  1.
          2   -1    0    0  501    0  0.00000000000E+00 -0.00000000000E+00 -0.73271468445E+02  0.73271468489E+02  0.25500000000E-02 0. -1.
         23    2    1    2    0    0  0.35527136788E-14  0.35527136788E-14 -0.46313890158E+02  0.10022904690E+03  0.88886924911E+02 0.  0.
    9000005    2    3    3    0    0 -0.30700545449E+02 -0.29708796080E+02 -0.33590658894E+02  0.55653081744E+02  0.11991542324E+02 0.  0.
         22    1    3    3    0    0  0.30700545449E+02  0.29708796080E+02 -0.12723231264E+02  0.44575965152E+02  0.00000000000E+00 0.  1.
         22    1    4    4    0    0 -0.21212208626E+02 -0.26013909352E+02 -0.29474506755E+02  0.44670211808E+02  0.00000000000E+00 0. -1.
         22    1    4    4    0    0 -0.94883368228E+01 -0.36948867283E+01 -0.41161521393E+01  0.10982869936E+02  0.00000000000E+00 0. -1.
<mgrwt>
<rscale>  0 0.88886925E+02</rscale>
<asrwt>0</asrwt>
<pdfrwt beam="2">  1        2 0.11272534E-01 0.88886925E+02</pdfrwt>
<pdfrwt beam="1">  1       -2 0.41473198E-02 0.88886925E+02</pdfrwt>
<totfact> 0.12025402E+05</totfact>
</mgrwt>
</event>
<event>
 7    1  0.3337990E-009  0.9080017E+02  0.7818608E-02  0.1300925E+00
         -2   -1    0    0    0  501 -0.00000000000E+00  0.00000000000E+00  0.13317368869E+02  0.13317369113E+02  0.25500000000E-02 0.  1.
          2   -1    0    0  501    0  0.00000000000E+00 -0.00000000000E+00 -0.15477289072E+03  0.15477289074E+03  0.25500000000E-02 0. -1.
         23    2    1    2    0    0  0.00000000000E+00  0.00000000000E+00 -0.14145552185E+03  0.16809025985E+03  0.90800169580E+02 0.  0.
    9000005    2    3    3    0    0  0.12007873986E+02  0.41553463132E+02 -0.88718930504E+02  0.99884487351E+02  0.15329150260E+02 0.  0.
         22    1    3    3    0    0 -0.12007873986E+02 -0.41553463132E+02 -0.52736591347E+02  0.68205772504E+02  0.00000000000E+00 0. -1.
         22    1    4    4    0    0 -0.91390620280E+00  0.93533273083E+01 -0.32403694904E+02  0.33738989310E+02  0.00000000000E+00 0. -1.
         22    1    4    4    0    0  0.12921780189E+02  0.32200135823E+02 -0.56315235600E+02  0.66145498040E+02  0.00000000000E+00 0. -1.
<mgrwt>
<rscale>  0 0.90800170E+02</rscale>
<asrwt>0</asrwt>
<pdfrwt beam="2">  1        2 0.23811213E-01 0.90800170E+02</pdfrwt>
<pdfrwt beam="1">  1       -2 0.20488261E-02 0.90800170E+02</pdfrwt>
<totfact> 0.14290732E+05</totfact>
</mgrwt>
</event>
<event>
 7    1  0.3337990E-009  0.8491489E+02  0.7818608E-02  0.1315655E+00
          2   -1    0    0  501    0  0.00000000000E+00  0.00000000000E+00  0.14536356974E+04  0.14536356974E+04  0.25500000000E-02 0. -1.
         -2   -1    0    0    0  501 -0.00000000000E+00 -0.00000000000E+00 -0.12400855519E+01  0.12400881737E+01  0.25500000000E-02 0.  1.
         23    2    1    2    0    0  0.00000000000E+00  0.00000000000E+00  0.14523956118E+04  0.14548757856E+04  0.84914887620E+02 0.  0.
    9000005    2    3    3    0    0  0.10736223439E+02 -0.21179488563E+02  0.13250755089E+04  0.13253603585E+04  0.13825282332E+02 0.  0.
         22    1    3    3    0    0 -0.10736223439E+02  0.21179488563E+02  0.12732010292E+03  0.12951542702E+03  0.00000000000E+00 0. -1.
         22    1    4    4    0    0  0.32955215578E+01 -0.17428694111E+02  0.68103240405E+03  0.68126335232E+03  0.00000000000E+00 0. -1.
         22    1    4    4    0    0  0.74407018817E+01 -0.37507944513E+01  0.64404310486E+03  0.64409700622E+03  0.00000000000E+00 0. -1.
<mgrwt>
<rscale>  0 0.84914888E+02</rscale>
<asrwt>0</asrwt>
<pdfrwt beam="1">  1        2 0.22363549E+00 0.84914888E+02</pdfrwt>
<pdfrwt beam="2">  1       -2 0.19078325E-03 0.84914888E+02</pdfrwt>
<totfact> 0.28763547E+05</totfact>
</mgrwt>
</event>
<event>
 6    1  0.6449298E-009  0.7332721E+03  0.7818608E-02  0.9661965E-01
         -2   -1    0    0    0  501 -0.00000000000E+00  0.00000000000E+00  0.12685053189E+03  0.12685053192E+03  0.25500000000E-02 0.  1.
          2   -1    0    0  501    0  0.00000000000E+00 -0.00000000000E+00 -0.10596880922E+04  0.10596880922E+04  0.25500000000E-02 0. -1.
    9000005    2    1    2    0    0 -0.27973764015E+03 -0.13051451905E+03 -0.78636465219E+03  0.84486407162E+03  0.11779061928E+02 0.  0.
         22    1    1    2    0    0  0.27973764015E+03  0.13051451905E+03 -0.14647290808E+03  0.34167455246E+03  0.00000000000E+00 0.  1.
         22    1    3    3    0    0 -0.17592315678E+02 -0.74534556838E+01 -0.56692810840E+02  0.59825733372E+02  0.00000000000E+00 0.  1.
         22    1    3    3    0    0 -0.26214532447E+03 -0.12306106336E+03 -0.72967184135E+03  0.78503833825E+03  0.00000000000E+00 0.  1.
<mgrwt>
<rscale>  0 0.73327211E+03</rscale>
<asrwt>0</asrwt>
<pdfrwt beam="2">  1        2 0.16302893E+00 0.73327211E+03</pdfrwt>
<pdfrwt beam="1">  1       -2 0.19515467E-01 0.73327211E+03</pdfrwt>
<totfact> 0.51773382E+02</totfact>
</mgrwt>
</event>
<event>
 7    1  0.3337990E-009  0.9188943E+02  0.7818608E-02  0.1298340E+00
          2   -1    0    0  501    0  0.00000000000E+00  0.00000000000E+00  0.25612825810E+02  0.25612825936E+02  0.25500000000E-02 0. -1.
         -2   -1    0    0    0  501 -0.00000000000E+00 -0.00000000000E+00 -0.82416390452E+02  0.82416390492E+02  0.25500000000E-02 0.  1.
         23    2    1    2    0    0  0.00000000000E+00  0.00000000000E+00 -0.56803564643E+02  0.10802921643E+03  0.91889426192E+02 0.  0.
    9000005    2    3    3    0    0  0.29266480184E+02  0.35147837378E+02 -0.31110906586E+02  0.55569612801E+02  0.53099927923E+01 0.  0.
         22    1    3    3    0    0 -0.29266480184E+02 -0.35147837378E+02 -0.25692658056E+02  0.52459603627E+02  0.00000000000E+00 0. -1.
         22    1    4    4    0    0  0.31497606813E+01  0.17606568269E+01 -0.17874653230E+01  0.40269016741E+01  0.00000000000E+00 0.  1.
         22    1    4    4    0    0  0.26116719503E+02  0.33387180551E+02 -0.29323441263E+02  0.51542711127E+02  0.00000000000E+00 0.  1.
<mgrwt>
<rscale>  0 0.91889426E+02</rscale>
<asrwt>0</asrwt>
<pdfrwt beam="1">  1        2 0.39404348E-02 0.91889426E+02</pdfrwt>
<pdfrwt beam="2">  1       -2 0.12679445E-01 0.91889426E+02</pdfrwt>
<totfact> 0.82776447E+04</totfact>
</mgrwt>
</event>
<event>
 7    1  0.3337990E-009  0.8698646E+02  0.7818608E-02  0.1310318E+00
          2   -1    0    0  501    0  0.00000000000E+00  0.00000000000E+00  0.14682095437E+03  0.14682095439E+03  0.25500000000E-02 0. -1.
         -2   -1    0    0    0  501 -0.00000000000E+00 -0.00000000000E+00 -0.12884136658E+02  0.12884136910E+02  0.25500000000E-02 0.  1.
         23    2    1    2    0    0  0.00000000000E+00  0.00000000000E+00  0.13393681771E+03  0.15970509130E+03  0.86986464746E+02 0.  0.
    9000005    2    3    3    0    0 -0.22432628742E+02  0.21521466716E+02  0.11349709836E+02  0.33237722470E+02  0.30877046143E+01 0.  0.
         22    1    3    3    0    0  0.22432628742E+02 -0.21521466716E+02  0.12258710788E+03  0.12646736883E+03  0.00000000000E+00 0. -1.
         22    1    4    4    0    0 -0.11372559551E+02  0.12208716090E+02  0.73784465016E+01  0.18243610720E+02  0.00000000000E+00 0. -1.
         22    1    4    4    0    0 -0.11060069191E+02  0.93127506252E+01  0.39712633341E+01  0.14994111750E+02  0.00000000000E+00 0. -1.
<mgrwt>
<rscale>  0 0.86986465E+02</rscale>
<asrwt>0</asrwt>
<pdfrwt beam="1">  1        2 0.22587839E-01 0.86986465E+02</pdfrwt>
<pdfrwt beam="2">  1       -2 0.19821749E-02 0.86986465E+02</pdfrwt>
<totfact> 0.15763994E+05</totfact>
</mgrwt>
</event>
<event>
 7    1  0.3337990E-009  0.9172025E+02  0.7818608E-02  0.1298739E+00
         -2   -1    0    0    0  501 -0.00000000000E+00  0.00000000000E+00  0.86928553805E+01  0.86928557545E+01  0.25500000000E-02 0.  1.
          2   -1    0    0  501    0  0.00000000000E+00 -0.00000000000E+00 -0.24194017262E+03  0.24194017264E+03  0.25500000000E-02 0. -1.
         23    2    1    2    0    0  0.00000000000E+00  0.35527136788E-14 -0.23324731724E+03  0.25063302839E+03  0.91720248144E+02 0.  0.
    9000005    2    3    3    0    0 -0.33129010126E+02  0.30721007112E+02 -0.12466934818E+03  0.13302993763E+03  0.10639846860E+02 0.  0.
         22    1    3    3    0    0  0.33129010126E+02 -0.30721007112E+02 -0.10857796906E+03  0.11760309076E+03  0.00000000000E+00 0.  1.
         22    1    4    4    0    0 -0.29821072415E+02  0.27238348763E+02 -0.99114600141E+02  0.10702769718E+03  0.00000000000E+00 0. -1.
         22    1    4    4    0    0 -0.33079377113E+01  0.34826583488E+01 -0.25554748037E+02  0.26002240448E+02  0.00000000000E+00 0. -1.
<mgrwt>
<rscale>  0 0.91720248E+02</rscale>
<asrwt>0</asrwt>
<pdfrwt beam="2">  1        2 0.37221560E-01 0.91720248E+02</pdfrwt>
<pdfrwt beam="1">  1       -2 0.13373626E-02 0.91720248E+02</pdfrwt>
<totfact> 0.16321623E+05</totfact>
</mgrwt>
</event>
<event>
 7    1  0.3337990E-009  0.1004905E+03  0.7818608E-02  0.1279268E+00
         -2   -1    0    0    0  501 -0.00000000000E+00  0.00000000000E+00  0.59331153618E+03  0.59331153619E+03  0.25500000000E-02 0.  1.
          2   -1    0    0  501    0  0.00000000000E+00 -0.00000000000E+00 -0.42550706350E+01  0.42550713991E+01  0.25500000000E-02 0. -1.
         23    2    1    2    0    0  0.71054273576E-14 -0.35527136788E-14  0.58905646555E+03  0.59756660759E+03  0.10049045178E+03 0.  0.
    9000005    2    3    3    0    0 -0.45250796923E+02  0.19587636260E+02  0.34503173960E+03  0.34861003108E+03  0.71233641116E+01 0.  0.
         22    1    3    3    0    0  0.45250796923E+02 -0.19587636260E+02  0.24402472595E+03  0.24895657651E+03  0.00000000000E+00 0. -1.
         22    1    4    4    0    0 -0.13377214335E+02  0.38385403502E+01  0.11672969196E+03  0.11755639175E+03  0.00000000000E+00 0. -1.
         22    1    4    4    0    0 -0.31873582588E+02  0.15749095910E+02  0.22830204764E+03  0.23105363933E+03  0.00000000000E+00 0. -1.
<mgrwt>
<rscale>  0 0.10049045E+03</rscale>
<asrwt>0</asrwt>
<pdfrwt beam="2">  1        2 0.65462598E-03 0.10049045E+03</pdfrwt>
<pdfrwt beam="1">  1       -2 0.91278744E-01 0.10049045E+03</pdfrwt>
<totfact> 0.24507331E+04</totfact>
</mgrwt>
</event>
<event>
 7    1  0.3337990E-009  0.8516943E+02  0.7818608E-02  0.1314990E+00
          2   -1    0    0  501    0  0.00000000000E+00  0.00000000000E+00  0.16974579503E+03  0.16974579504E+03  0.25500000000E-02 0. -1.
         -2   -1    0    0    0  501 -0.00000000000E+00 -0.00000000000E+00 -0.10683374159E+02  0.10683374463E+02  0.25500000000E-02 0.  1.
         23    2    1    2    0    0 -0.35527136788E-14  0.88817841970E-15  0.15906242087E+03  0.18042916951E+03  0.85169428067E+02 0.  0.
    9000005    2    3    3    0    0 -0.28753864837E+02  0.65000487891E+01  0.16828992683E+02  0.35172901243E+02  0.92131758813E+01 0.  0.
         22    1    3    3    0    0  0.28753864837E+02 -0.65000487891E+01  0.14223342818E+03  0.14525626826E+03  0.00000000000E+00 0. -1.
         22    1    4    4    0    0 -0.27175925871E+02  0.71371755892E+01  0.17753392059E+02  0.33236322780E+02  0.00000000000E+00 0.  1.
         22    1    4    4    0    0 -0.15779389661E+01 -0.63712680008E+00 -0.92439937555E+00  0.19365784636E+01  0.00000000000E+00 0.  1.
<mgrwt>
<rscale>  0 0.85169428E+02</rscale>
<asrwt>0</asrwt>
<pdfrwt beam="1">  1        2 0.26114733E-01 0.85169428E+02</pdfrwt>
<pdfrwt beam="2">  1       -2 0.16435963E-02 0.85169428E+02</pdfrwt>
<totfact> 0.17527329E+05</totfact>
</mgrwt>
</event>
<event>
 7    1  0.3337990E-009  0.8804479E+02  0.7818608E-02  0.1307657E+00
         -2   -1    0    0    0  501 -0.00000000000E+00  0.00000000000E+00  0.51089600548E+02  0.51089600611E+02  0.25500000000E-02 0.  1.
          2   -1    0    0  501    0  0.00000000000E+00 -0.00000000000E+00 -0.37932792529E+02  0.37932792615E+02  0.25500000000E-02 0. -1.
         23    2    1    2    0    0  0.00000000000E+00  0.00000000000E+00  0.13156808019E+02  0.89022393226E+02  0.88044789161E+02 0.  0.
    9000005    2    3    3    0    0 -0.35107945994E+02 -0.22152982378E+02 -0.30801492905E+01  0.44447049337E+02  0.15579806639E+02 0.  0.
         22    1    3    3    0    0  0.35107945994E+02  0.22152982378E+02  0.16236957309E+02  0.44575343889E+02  0.00000000000E+00 0. -1.
         22    1    4    4    0    0 -0.27573238310E+02 -0.13574937647E+02  0.40299762081E+01  0.30996824212E+02  0.00000000000E+00 0.  1.
         22    1    4    4    0    0 -0.75347076848E+01 -0.85780447305E+01 -0.71101254986E+01  0.13450225124E+02  0.00000000000E+00 0.  1.
<mgrwt>
<rscale>  0 0.88044789E+02</rscale>
<asrwt>0</asrwt>
<pdfrwt beam="2">  1        2 0.58358142E-02 0.88044789E+02</pdfrwt>
<pdfrwt beam="1">  1       -2 0.78599386E-02 0.88044789E+02</pdfrwt>
<totfact> 0.10410524E+05</totfact>
</mgrwt>
</event>
<event>
 7    1  0.3337990E-009  0.8860510E+02  0.7818608E-02  0.1306265E+00
         -2   -1    0    0    0  501 -0.00000000000E+00  0.00000000000E+00  0.35462250347E+01  0.35462259515E+01  0.25500000000E-02 0. -1.
          2   -1    0    0  501    0  0.00000000000E+00 -0.00000000000E+00 -0.55346621693E+03  0.55346621693E+03  0.25500000000E-02 0.  1.
         23    2    1    2    0    0  0.00000000000E+00 -0.35527136788E-14 -0.54991999189E+03  0.55701244288E+03  0.88605101688E+02 0.  0.
    9000005    2    3    3    0    0 -0.12729397700E+02 -0.28116603548E+02 -0.47410432649E+03  0.47515527410E+03  0.67112702563E+01 0.  0.
         22    1    3    3    0    0  0.12729397700E+02  0.28116603548E+02 -0.75815665406E+02  0.81857168788E+02  0.00000000000E+00 0. -1.
         22    1    4    4    0    0 -0.98650756165E+01 -0.21587962045E+02 -0.31591619502E+03  0.31680656890E+03  0.00000000000E+00 0.  1.
         22    1    4    4    0    0 -0.28643220833E+01 -0.65286415032E+01 -0.15818813147E+03  0.15834870520E+03  0.00000000000E+00 0.  1.
<mgrwt>
<rscale>  0 0.88605102E+02</rscale>
<asrwt>0</asrwt>
<pdfrwt beam="2">  1        2 0.85148580E-01 0.88605102E+02</pdfrwt>
<pdfrwt beam="1">  1       -2 0.54557359E-03 0.88605102E+02</pdfrwt>
<totfact> 0.23995044E+05</totfact>
</mgrwt>
</event>
<event>
 7    1  0.3337990E-009  0.1044468E+03  0.7818608E-02  0.1271213E+00
          2   -1    0    0  501    0  0.00000000000E+00  0.00000000000E+00  0.10448402818E+02  0.10448403129E+02  0.25500000000E-02 0.  1.
         -2   -1    0    0    0  501 -0.00000000000E+00 -0.00000000000E+00 -0.26102419201E+03  0.26102419202E+03  0.25500000000E-02 0. -1.
         23    2    1    2    0    0  0.00000000000E+00  0.00000000000E+00 -0.25057578919E+03  0.27147259515E+03  0.10444684672E+03 0.  0.
    9000005    2    3    3    0    0 -0.22496837360E+02 -0.13185379634E+02 -0.24286050213E+03  0.24427907420E+03  0.33287640729E+01 0.  0.
         22    1    3    3    0    0  0.22496837360E+02  0.13185379634E+02 -0.77152870622E+01  0.27193520951E+02  0.00000000000E+00 0.  1.
         22    1    4    4    0    0 -0.10122956812E+02 -0.46309094760E+01 -0.92265855413E+02  0.92934964638E+02  0.00000000000E+00 0.  1.
         22    1    4    4    0    0 -0.12373880548E+02 -0.85544701577E+01 -0.15059464672E+03  0.15134410956E+03  0.00000000000E+00 0.  1.
<mgrwt>
<rscale>  0 0.10444685E+03</rscale>
<asrwt>0</asrwt>
<pdfrwt beam="1">  1        2 0.16074468E-02 0.10444685E+03</pdfrwt>
<pdfrwt beam="2">  1       -2 0.40157563E-01 0.10444685E+03</pdfrwt>
<totfact> 0.38730406E+04</totfact>
</mgrwt>
</event>
<event>
 7    1  0.3337990E-009  0.9195797E+02  0.7818608E-02  0.1298178E+00
          2   -1    0    0  501    0  0.00000000000E+00  0.00000000000E+00  0.16674104559E+03  0.16674104561E+03  0.25500000000E-02 0. -1.
         -2   -1    0    0    0  501 -0.00000000000E+00 -0.00000000000E+00 -0.12678743305E+02  0.12678743561E+02  0.25500000000E-02 0.  1.
         23    2    1    2    0    0  0.35527136788E-14  0.00000000000E+00  0.15406230229E+03  0.17941978917E+03  0.91957967358E+02 0.  0.
    9000005    2    3    3    0    0  0.27541365351E+02  0.20214829253E+02  0.19210588825E+02  0.40307781240E+02  0.94076765689E+01 0.  0.
         22    1    3    3    0    0 -0.27541365351E+02 -0.20214829253E+02  0.13485171346E+03  0.13911200793E+03  0.00000000000E+00 0. -1.
         22    1    4    4    0    0  0.24047332000E+02  0.17695815179E+02  0.12574951892E+02  0.32396689125E+02  0.00000000000E+00 0. -1.
         22    1    4    4    0    0  0.34940333510E+01  0.25190140734E+01  0.66356369323E+01  0.79110921153E+01  0.00000000000E+00 0. -1.
<mgrwt>
<rscale>  0 0.91957967E+02</rscale>
<asrwt>0</asrwt>
<pdfrwt beam="1">  1        2 0.25652469E-01 0.91957967E+02</pdfrwt>
<pdfrwt beam="2">  1       -2 0.19505759E-02 0.91957967E+02</pdfrwt>
<totfact> 0.14168336E+05</totfact>
</mgrwt>
</event>
<event>
 7    1  0.3337990E-009  0.9154867E+02  0.7818608E-02  0.1299144E+00
         -2   -1    0    0    0  501 -0.00000000000E+00  0.00000000000E+00  0.19348856151E+02  0.19348856319E+02  0.25500000000E-02 0.  1.
          2   -1    0    0  501    0  0.00000000000E+00 -0.00000000000E+00 -0.10829010553E+03  0.10829010556E+03  0.25500000000E-02 0. -1.
         23    2    1    2    0    0  0.00000000000E+00  0.00000000000E+00 -0.88941249379E+02  0.12763896188E+03  0.91548668742E+02 0.  0.
    9000005    2    3    3    0    0  0.17915660229E+02 -0.40643772450E+02 -0.53763490400E+02  0.70978906750E+02  0.13213825449E+02 0.  0.
         22    1    3    3    0    0 -0.17915660229E+02  0.40643772450E+02 -0.35177758979E+02  0.56660055129E+02  0.00000000000E+00 0.  1.
         22    1    4    4    0    0  0.14684838220E+02 -0.18157749801E+02 -0.23413384265E+02  0.33068639435E+02  0.00000000000E+00 0. -1.
         22    1    4    4    0    0  0.32308220088E+01 -0.22486022649E+02 -0.30350106135E+02  0.37910267314E+02  0.00000000000E+00 0. -1.
<mgrwt>
<rscale>  0 0.91548669E+02</rscale>
<asrwt>0</asrwt>
<pdfrwt beam="2">  1        2 0.16660016E-01 0.91548669E+02</pdfrwt>
<pdfrwt beam="1">  1       -2 0.29767472E-02 0.91548669E+02</pdfrwt>
<totfact> 0.12432378E+05</totfact>
</mgrwt>
</event>
<event>
 7    1  0.3337990E-009  0.8990043E+02  0.7818608E-02  0.1303093E+00
         -2   -1    0    0    0  501 -0.00000000000E+00  0.00000000000E+00  0.45517914056E+01  0.45517921198E+01  0.25500000000E-02 0.  1.
          2   -1    0    0  501    0  0.00000000000E+00 -0.00000000000E+00 -0.44389588460E+03  0.44389588461E+03  0.25500000000E-02 0. -1.
         23    2    1    2    0    0  0.00000000000E+00  0.00000000000E+00 -0.43934409319E+03  0.44844767673E+03  0.89900425678E+02 0.  0.
    9000005    2    3    3    0    0  0.39008175328E+02 -0.18496894354E+02 -0.27799021419E+03  0.28141819695E+03  0.73395877799E+01 0.  0.
         22    1    3    3    0    0 -0.39008175328E+02  0.18496894354E+02 -0.16135387901E+03  0.16702947977E+03  0.00000000000E+00 0. -1.
         22    1    4    4    0    0  0.11938321761E+02 -0.27639131029E+01 -0.65941776737E+02  0.67070713887E+02  0.00000000000E+00 0.  1.
         22    1    4    4    0    0  0.27069853567E+02 -0.15732981251E+02 -0.21204843745E+03  0.21434748306E+03  0.00000000000E+00 0.  1.
<mgrwt>
<rscale>  0 0.89900426E+02</rscale>
<asrwt>0</asrwt>
<pdfrwt beam="2">  1        2 0.68291640E-01 0.89900426E+02</pdfrwt>
<pdfrwt beam="1">  1       -2 0.70027601E-03 0.89900426E+02</pdfrwt>
<totfact> 0.21494158E+05</totfact>
</mgrwt>
</event>
<event>
 7    1  0.3337990E-009  0.9111699E+02  0.7818608E-02  0.1300169E+00
          2   -1    0    0  501    0  0.00000000000E+00  0.00000000000E+00  0.77040758275E+03  0.77040758275E+03  0.25500000000E-02 0. -1.
         -2   -1    0    0    0  501 -0.00000000000E+00 -0.00000000000E+00 -0.26941269959E+01  0.26941282027E+01  0.25500000000E-02 0.  1.
         23    2    1    2    0    0 -0.35527136788E-14  0.00000000000E+00  0.76771345575E+03  0.77310171095E+03  0.91116987102E+02 0.  0.
    9000005    2    3    3    0    0 -0.21589894562E+02 -0.91467900929E-02  0.72285292825E+03  0.72331626571E+03  0.14280781629E+02 0.  0.
         22    1    3    3    0    0  0.21589894562E+02  0.91467900929E-02  0.44860527499E+02  0.49785445246E+02  0.00000000000E+00 0.  1.
         22    1    4    4    0    0 -0.61606823626E+01 -0.51311663925E-01  0.43978056122E+03  0.43982371317E+03  0.00000000000E+00 0. -1.
         22    1    4    4    0    0 -0.15429212200E+02  0.42164873832E-01  0.28307236703E+03  0.28349255254E+03  0.00000000000E+00 0. -1.
<mgrwt>
<rscale>  0 0.91116987E+02</rscale>
<asrwt>0</asrwt>
<pdfrwt beam="1">  1        2 0.11852426E+00 0.91116987E+02</pdfrwt>
<pdfrwt beam="2">  1       -2 0.41448111E-03 0.91116987E+02</pdfrwt>
<totfact> 0.24246963E+05</totfact>
</mgrwt>
</event>
<event>
 7    1  0.3337990E-009  0.9158806E+02  0.7818608E-02  0.1299051E+00
          2   -1    0    0  501    0  0.00000000000E+00  0.00000000000E+00  0.14912354413E+03  0.14912354416E+03  0.25500000000E-02 0. -1.
         -2   -1    0    0    0  501 -0.00000000000E+00 -0.00000000000E+00 -0.14062789827E+02  0.14062790058E+02  0.25500000000E-02 0.  1.
         23    2    1    2    0    0  0.35527136788E-14  0.00000000000E+00  0.13506075431E+03  0.16318633421E+03  0.91588057739E+02 0.  0.
    9000005    2    3    3    0    0  0.24369462434E+02  0.35558100748E+02  0.94310409758E+02  0.10386652463E+03  0.59625767969E+01 0.  0.
         22    1    3    3    0    0 -0.24369462434E+02 -0.35558100748E+02  0.40750344548E+02  0.59319809583E+02  0.00000000000E+00 0.  1.
         22    1    4    4    0    0  0.16026983972E+02  0.18147748329E+02  0.52288665676E+02  0.57622127198E+02  0.00000000000E+00 0. -1.
         22    1    4    4    0    0  0.83424784628E+01  0.17410352419E+02  0.42021744082E+02  0.46244397433E+02  0.00000000000E+00 0. -1.
<mgrwt>
<rscale>  0 0.91588058E+02</rscale>
<asrwt>0</asrwt>
<pdfrwt beam="1">  1        2 0.22942083E-01 0.91588058E+02</pdfrwt>
<pdfrwt beam="2">  1       -2 0.21635062E-02 0.91588058E+02</pdfrwt>
<totfact> 0.13783536E+05</totfact>
</mgrwt>
</event>
<event>
 7    1  0.3337990E-009  0.9199339E+02  0.7818608E-02  0.1298095E+00
         -2   -1    0    0    0  501 -0.00000000000E+00  0.00000000000E+00  0.10234658263E+02  0.10234658581E+02  0.25500000000E-02 0.  1.
          2   -1    0    0  501    0  0.00000000000E+00 -0.00000000000E+00 -0.20671875530E+03  0.20671875532E+03  0.25500000000E-02 0. -1.
         23    2    1    2    0    0  0.00000000000E+00  0.00000000000E+00 -0.19648409704E+03  0.21695341390E+03  0.91993387878E+02 0.  0.
    9000005    2    3    3    0    0 -0.83277696985E+01  0.31677666001E+02 -0.17424699557E+03  0.17736408512E+03  0.48142448621E+01 0.  0.
         22    1    3    3    0    0  0.83277696985E+01 -0.31677666001E+02 -0.22237101467E+02  0.39589328778E+02  0.00000000000E+00 0.  1.
         22    1    4    4    0    0 -0.34791912947E+01  0.18011283958E+02 -0.86125477002E+02  0.88057418260E+02  0.00000000000E+00 0.  1.
         22    1    4    4    0    0 -0.48485784039E+01  0.13666382043E+02 -0.88121518571E+02  0.89306666862E+02  0.00000000000E+00 0.  1.
<mgrwt>
<rscale>  0 0.91993388E+02</rscale>
<asrwt>0</asrwt>
<pdfrwt beam="2">  1        2 0.31802882E-01 0.91993388E+02</pdfrwt>
<pdfrwt beam="1">  1       -2 0.15745630E-02 0.91993388E+02</pdfrwt>
<totfact> 0.15282866E+05</totfact>
</mgrwt>
</event>
<event>
 7    1  0.3337990E-009  0.9186823E+02  0.7818608E-02  0.1298390E+00
          2   -1    0    0  501    0  0.00000000000E+00  0.00000000000E+00  0.26406395825E+02  0.26406395948E+02  0.25500000000E-02 0.  1.
         -2   -1    0    0    0  501 -0.00000000000E+00 -0.00000000000E+00 -0.79902723032E+02  0.79902723073E+02  0.25500000000E-02 0. -1.
         23    2    1    2    0    0  0.00000000000E+00  0.00000000000E+00 -0.53496327207E+02  0.10630911902E+03  0.91868230429E+02 0.  0.
    9000005    2    3    3    0    0 -0.38363520240E+02 -0.16786312077E+02 -0.47268154948E+02  0.63973199424E+02  0.10234833370E+02 0.  0.
         22    1    3    3    0    0  0.38363520240E+02  0.16786312077E+02 -0.62281722597E+01  0.42335919596E+02  0.00000000000E+00 0.  1.
         22    1    4    4    0    0 -0.13175188156E+02 -0.10739106244E+02 -0.15715697387E+02  0.23149452050E+02  0.00000000000E+00 0.  1.
         22    1    4    4    0    0 -0.25188332084E+02 -0.60472058330E+01 -0.31552457561E+02  0.40823747374E+02  0.00000000000E+00 0.  1.
<mgrwt>
<rscale>  0 0.91868230E+02</rscale>
<asrwt>0</asrwt>
<pdfrwt beam="1">  1        2 0.40625225E-02 0.91868230E+02</pdfrwt>
<pdfrwt beam="2">  1       -2 0.12292727E-01 0.91868230E+02</pdfrwt>
<totfact> 0.83540944E+04</totfact>
</mgrwt>
</event>
<event>
 7    1  0.3337990E-009  0.8916866E+02  0.7818608E-02  0.1304877E+00
         -2   -1    0    0    0  501 -0.00000000000E+00  0.00000000000E+00  0.75857966759E+01  0.75857971045E+01  0.25500000000E-02 0.  1.
          2   -1    0    0  501    0  0.00000000000E+00 -0.00000000000E+00 -0.26203739453E+03  0.26203739455E+03  0.25500000000E-02 0. -1.
         23    2    1    2    0    0  0.00000000000E+00  0.00000000000E+00 -0.25445159786E+03  0.26962319165E+03  0.89168659424E+02 0.  0.
    9000005    2    3    3    0    0 -0.32825802622E+02  0.50759038801E+01 -0.21658590642E+03  0.21925347152E+03  0.77027135155E+01 0.  0.
         22    1    3    3    0    0  0.32825802622E+02 -0.50759038801E+01 -0.37865691436E+02  0.50369720129E+02  0.00000000000E+00 0.  1.
         22    1    4    4    0    0 -0.14520644484E+02  0.51975484764E+01 -0.83210295226E+02  0.84627518326E+02  0.00000000000E+00 0. -1.
         22    1    4    4    0    0 -0.18305158139E+02 -0.12164459640E+00 -0.13337561120E+03  0.13462595319E+03  0.00000000000E+00 0. -1.
<mgrwt>
<rscale>  0 0.89168659E+02</rscale>
<asrwt>0</asrwt>
<pdfrwt beam="2">  1        2 0.40313439E-01 0.89168659E+02</pdfrwt>
<pdfrwt beam="1">  1       -2 0.11670459E-02 0.89168659E+02</pdfrwt>
<totfact> 0.18128577E+05</totfact>
</mgrwt>
</event>
<event>
 7    1  0.3337990E-009  0.9570278E+02  0.7818608E-02  0.1289601E+00
          2   -1    0    0  501    0  0.00000000000E+00  0.00000000000E+00  0.20227896280E+03  0.20227896281E+03  0.25500000000E-02 0. -1.
         -2   -1    0    0    0  501 -0.00000000000E+00 -0.00000000000E+00 -0.11319791217E+02  0.11319791504E+02  0.25500000000E-02 0.  1.
         23    2    1    2    0    0 -0.97144514655E-16  0.00000000000E+00  0.19095917158E+03  0.21359875432E+03  0.95702782799E+02 0.  0.
    9000005    2    3    3    0    0  0.91350783850E-01 -0.46250756854E+02  0.11550699147E+03  0.12509919309E+03  0.12992389244E+02 0.  0.
         22    1    3    3    0    0 -0.91350783850E-01  0.46250756854E+02  0.75452180112E+02  0.88499561232E+02  0.00000000000E+00 0. -1.
         22    1    4    4    0    0  0.36485267454E+01 -0.10658308982E+02  0.17960539979E+02  0.21201233316E+02  0.00000000000E+00 0. -1.
         22    1    4    4    0    0 -0.35571759616E+01 -0.35592447871E+02  0.97546451490E+02  0.10389795977E+03  0.00000000000E+00 0. -1.
<mgrwt>
<rscale>  0 0.95702783E+02</rscale>
<asrwt>0</asrwt>
<pdfrwt beam="1">  1        2 0.31119837E-01 0.95702783E+02</pdfrwt>
<pdfrwt beam="2">  1       -2 0.17415065E-02 0.95702783E+02</pdfrwt>
<totfact> 0.13626359E+05</totfact>
</mgrwt>
</event>
<event>
 7    1  0.3337990E-009  0.7599545E+02  0.7818608E-02  0.1340816E+00
         -2   -1    0    0    0  501 -0.00000000000E+00  0.00000000000E+00  0.18079933774E+01  0.18079951756E+01  0.25500000000E-02 0. -1.
          2   -1    0    0  501    0  0.00000000000E+00 -0.00000000000E+00 -0.79857946407E+03  0.79857946407E+03  0.25500000000E-02 0.  1.
         23    2    1    2    0    0  0.00000000000E+00  0.00000000000E+00 -0.79677147069E+03  0.80038745925E+03  0.75995449959E+02 0.  0.
    9000005    2    3    3    0    0  0.11110400650E+02 -0.21624632814E+02 -0.70097960391E+03  0.70155857942E+03  0.14865043262E+02 0.  0.
         22    1    3    3    0    0 -0.11110400650E+02  0.21624632814E+02 -0.95791866781E+02  0.98828879829E+02  0.00000000000E+00 0. -1.
         22    1    4    4    0    0  0.14045874848E+02 -0.15231153497E+02 -0.44464739997E+03  0.44512985177E+03  0.00000000000E+00 0.  1.
         22    1    4    4    0    0 -0.29354741988E+01 -0.63934793171E+01 -0.25633220394E+03  0.25642872764E+03  0.00000000000E+00 0.  1.
<mgrwt>
<rscale>  0 0.75995450E+02</rscale>
<asrwt>0</asrwt>
<pdfrwt beam="2">  1        2 0.12285810E+00 0.75995450E+02</pdfrwt>
<pdfrwt beam="1">  1       -2 0.27815360E-03 0.75995450E+02</pdfrwt>
<totfact> 0.39201752E+05</totfact>
</mgrwt>
</event>
<event>
 7    1  0.3337990E-009  0.9054728E+02  0.7818608E-02  0.1301532E+00
         -2   -1    0    0    0  501 -0.00000000000E+00  0.00000000000E+00  0.25684500697E+02  0.25684500823E+02  0.25500000000E-02 0.  1.
          2   -1    0    0  501    0  0.00000000000E+00 -0.00000000000E+00 -0.79803095918E+02  0.79803095959E+02  0.25500000000E-02 0. -1.
         23    2    1    2    0    0  0.00000000000E+00  0.00000000000E+00 -0.54118595222E+02  0.10548759678E+03  0.90547284477E+02 0.  0.
    9000005    2    3    3    0    0  0.66439980443E+00  0.31798268755E+02  0.10409637981E+02  0.33546897570E+02  0.23371886517E+01 0.  0.
         22    1    3    3    0    0 -0.66439980443E+00 -0.31798268755E+02 -0.64528233202E+02  0.71940699212E+02  0.00000000000E+00 0. -1.
         22    1    4    4    0    0  0.84310672468E+00  0.38368444830E+01  0.12155418646E+01  0.41121462231E+01  0.00000000000E+00 0. -1.
         22    1    4    4    0    0 -0.17870692026E+00  0.27961424272E+02  0.91940961162E+01  0.29434751347E+02  0.00000000000E+00 0. -1.
<mgrwt>
<rscale>  0 0.90547284E+02</rscale>
<asrwt>0</asrwt>
<pdfrwt beam="2">  1        2 0.12277399E-01 0.90547284E+02</pdfrwt>
<pdfrwt beam="1">  1       -2 0.39514617E-02 0.90547284E+02</pdfrwt>
<totfact> 0.11700420E+05</totfact>
</mgrwt>
</event>
<event>
 7    1  0.3337990E-009  0.9051908E+02  0.7818608E-02  0.1301600E+00
         -2   -1    0    0    0  501 -0.00000000000E+00  0.00000000000E+00  0.22367792186E+02  0.22367792332E+02  0.25500000000E-02 0.  1.
          2   -1    0    0  501    0  0.00000000000E+00 -0.00000000000E+00 -0.91579258649E+02  0.91579258684E+02  0.25500000000E-02 0. -1.
         23    2    1    2    0    0 -0.35527136788E-14 -0.35527136788E-14 -0.69211466462E+02  0.11394705102E+03  0.90519077246E+02 0.  0.
    9000005    2    3    3    0    0 -0.30506177681E+02 -0.25894281138E+02 -0.11013234425E+02  0.43320038587E+02  0.12417477132E+02 0.  0.
         22    1    3    3    0    0  0.30506177681E+02  0.25894281138E+02 -0.58198232037E+02  0.70627012429E+02  0.00000000000E+00 0. -1.
         22    1    4    4    0    0 -0.31426794639E+02 -0.24272127944E+02 -0.92905887607E+01  0.40781057560E+02  0.00000000000E+00 0.  1.
         22    1    4    4    0    0  0.92061695817E+00 -0.16221531947E+01 -0.17226456643E+01  0.25389810270E+01  0.00000000000E+00 0.  1.
<mgrwt>
<rscale>  0 0.90519077E+02</rscale>
<asrwt>0</asrwt>
<pdfrwt beam="2">  1        2 0.14089117E-01 0.90519077E+02</pdfrwt>
<pdfrwt beam="1">  1       -2 0.34411989E-02 0.90519077E+02</pdfrwt>
<totfact> 0.12188411E+05</totfact>
</mgrwt>
</event>
<event>
 7    1  0.3337990E-009  0.9223593E+02  0.7818608E-02  0.1297526E+00
         -2   -1    0    0    0  501 -0.00000000000E+00  0.00000000000E+00  0.49369242667E+02  0.49369242733E+02  0.25500000000E-02 0.  1.
          2   -1    0    0  501    0  0.00000000000E+00 -0.00000000000E+00 -0.43080801360E+02  0.43080801435E+02  0.25500000000E-02 0. -1.
         23    2    1    2    0    0  0.00000000000E+00  0.00000000000E+00  0.62884413069E+01  0.92450044168E+02  0.92235926691E+02 0.  0.
    9000005    2    3    3    0    0  0.19375201174E+02  0.32277471071E+02  0.29252195103E+02  0.48352793146E+02  0.80664817242E+01 0.  0.
         22    1    3    3    0    0 -0.19375201174E+02 -0.32277471071E+02 -0.22963753796E+02  0.44097251022E+02  0.00000000000E+00 0. -1.
         22    1    4    4    0    0  0.13509882820E+02  0.20434340900E+02  0.23477089805E+02  0.33930118885E+02  0.00000000000E+00 0. -1.
         22    1    4    4    0    0  0.58653183539E+01  0.11843130171E+02  0.57751052977E+01  0.14422674261E+02  0.00000000000E+00 0. -1.
<mgrwt>
<rscale>  0 0.92235927E+02</rscale>
<asrwt>0</asrwt>
<pdfrwt beam="2">  1        2 0.66278156E-02 0.92235927E+02</pdfrwt>
<pdfrwt beam="1">  1       -2 0.75952681E-02 0.92235927E+02</pdfrwt>
<totfact> 0.94049095E+04</totfact>
</mgrwt>
</event>
<event>
 7    1  0.3337990E-009  0.9352445E+02  0.7818608E-02  0.1294534E+00
         -2   -1    0    0    0  501 -0.00000000000E+00  0.00000000000E+00  0.60151576669E+02  0.60151576723E+02  0.25500000000E-02 0.  1.
          2   -1    0    0  501    0  0.00000000000E+00 -0.00000000000E+00 -0.36353260122E+02  0.36353260211E+02  0.25500000000E-02 0. -1.
         23    2    1    2    0    0  0.00000000000E+00  0.00000000000E+00  0.23798316547E+02  0.96504836934E+02  0.93524454990E+02 0.  0.
    9000005    2    3    3    0    0  0.43454801534E+02 -0.81635374287E+01  0.27154471884E+02  0.52162679810E+02  0.53494581025E+01 0.  0.
         22    1    3    3    0    0 -0.43454801534E+02  0.81635374287E+01 -0.33561553372E+01  0.44342157124E+02  0.00000000000E+00 0. -1.
         22    1    4    4    0    0  0.36856885015E+02 -0.49156811444E+01  0.22723705599E+02  0.43577066104E+02  0.00000000000E+00 0.  1.
         22    1    4    4    0    0  0.65979165193E+01 -0.32478562843E+01  0.44307662854E+01  0.85856137063E+01  0.00000000000E+00 0.  1.
<mgrwt>
<rscale>  0 0.93524455E+02</rscale>
<asrwt>0</asrwt>
<pdfrwt beam="2">  1        2 0.55928093E-02 0.93524455E+02</pdfrwt>
<pdfrwt beam="1">  1       -2 0.92540887E-02 0.93524455E+02</pdfrwt>
<totfact> 0.86373764E+04</totfact>
</mgrwt>
</event>
<event>
 7    1  0.3615917E-009  0.9194040E+02  0.7818608E-02  0.1298220E+00
         -2   -1    0    0    0  501 -0.00000000000E+00  0.00000000000E+00  0.23670292529E+02  0.23670292666E+02  0.25500000000E-02 0.  1.
          2   -1    0    0  501    0  0.00000000000E+00 -0.00000000000E+00 -0.89278970095E+02  0.89278970131E+02  0.25500000000E-02 0. -1.
         23    2    1    2    0    0  0.00000000000E+00  0.00000000000E+00 -0.65608677566E+02  0.11294926280E+03  0.91940401318E+02 0.  0.
    9000005    2    3    3    0    0 -0.35205018112E+02  0.25492793526E+02 -0.20959206390E+02  0.50636735178E+02  0.15346491291E+02 0.  0.
         22    1    3    3    0    0  0.35205018112E+02 -0.25492793526E+02 -0.44649471176E+02  0.62312527619E+02  0.00000000000E+00 0. -1.
         22    1    4    4    0    0 -0.30271715070E+02  0.15584364035E+02 -0.11093260301E+02  0.35809350172E+02  0.00000000000E+00 0. -1.
         22    1    4    4    0    0 -0.49333030425E+01  0.99084294907E+01 -0.98659460892E+01  0.14827385006E+02  0.00000000000E+00 0. -1.
<mgrwt>
<rscale>  0 0.91940401E+02</rscale>
<asrwt>0</asrwt>
<pdfrwt beam="2">  1        2 0.13735226E-01 0.91940401E+02</pdfrwt>
<pdfrwt beam="1">  1       -2 0.36415835E-02 0.91940401E+02</pdfrwt>
<totfact> 0.11586832E+05</totfact>
</mgrwt>
</event>
<event>
 7    1  0.3337990E-009  0.8705428E+02  0.7818608E-02  0.1310146E+00
         -2   -1    0    0    0  501 -0.00000000000E+00  0.00000000000E+00  0.23875711976E+02  0.23875712112E+02  0.25500000000E-02 0.  1.
          2   -1    0    0  501    0  0.00000000000E+00 -0.00000000000E+00 -0.79353099303E+02  0.79353099344E+02  0.25500000000E-02 0. -1.
         23    2    1    2    0    0  0.00000000000E+00  0.00000000000E+00 -0.55477387327E+02  0.10322881146E+03  0.87054276230E+02 0.  0.
    9000005    2    3    3    0    0  0.28123902072E+02 -0.15787113332E+02 -0.61492779182E+02  0.70420706446E+02  0.11727198717E+02 0.  0.
         22    1    3    3    0    0 -0.28123902072E+02  0.15787113332E+02  0.60153918546E+01  0.32808105009E+02  0.00000000000E+00 0.  1.
         22    1    4    4    0    0  0.40183107818E+01 -0.28005504506E+01 -0.20831679432E+02  0.21399737670E+02  0.00000000000E+00 0. -1.
         22    1    4    4    0    0  0.24105591291E+02 -0.12986562881E+02 -0.40661099750E+02  0.49020968776E+02  0.00000000000E+00 0. -1.
<mgrwt>
<rscale>  0 0.87054276E+02</rscale>
<asrwt>0</asrwt>
<pdfrwt beam="2">  1        2 0.12208169E-01 0.87054276E+02</pdfrwt>
<pdfrwt beam="1">  1       -2 0.36731865E-02 0.87054276E+02</pdfrwt>
<totfact> 0.13024575E+05</totfact>
</mgrwt>
</event>
<event>
 7    1  0.3337990E-009  0.9084636E+02  0.7818608E-02  0.1300815E+00
         -2   -1    0    0    0  501 -0.00000000000E+00  0.00000000000E+00  0.22017640801E+01  0.22017655568E+01  0.25500000000E-02 0.  1.
          2   -1    0    0  501    0  0.00000000000E+00 -0.00000000000E+00 -0.93709622164E+03  0.93709622164E+03  0.25500000000E-02 0. -1.
         23    2    1    2    0    0  0.00000000000E+00  0.00000000000E+00 -0.93489445756E+03  0.93929798720E+03  0.90846364716E+02 0.  0.
    9000005    2    3    3    0    0  0.31145652731E+02  0.35746059103E+01 -0.80406231201E+03  0.80476219345E+03  0.11964819929E+02 0.  0.
         22    1    3    3    0    0 -0.31145652731E+02 -0.35746059103E+01 -0.13083214554E+03  0.13453579375E+03  0.00000000000E+00 0.  1.
         22    1    4    4    0    0  0.31506227794E+02  0.32344669601E+01 -0.71773525478E+03  0.71843371310E+03  0.00000000000E+00 0.  1.
         22    1    4    4    0    0 -0.36057506333E+00  0.34013895024E+00 -0.86327057231E+02  0.86328480347E+02  0.00000000000E+00 0.  1.
<mgrwt>
<rscale>  0 0.90846365E+02</rscale>
<asrwt>0</asrwt>
<pdfrwt beam="2">  1        2 0.14416833E+00 0.90846365E+02</pdfrwt>
<pdfrwt beam="1">  1       -2 0.33873380E-03 0.90846365E+02</pdfrwt>
<totfact> 0.25133739E+05</totfact>
</mgrwt>
</event>
<event>
 7    1  0.3337990E-009  0.9062300E+02  0.7818608E-02  0.1301350E+00
         -2   -1    0    0    0  501 -0.00000000000E+00  0.00000000000E+00  0.97964948789E+02  0.97964948822E+02  0.25500000000E-02 0. -1.
          2   -1    0    0  501    0  0.00000000000E+00 -0.00000000000E+00 -0.20957823215E+02  0.20957823370E+02  0.25500000000E-02 0.  1.
         23    2    1    2    0    0  0.00000000000E+00 -0.17763568394E-14  0.77007125574E+02  0.11892277219E+03  0.90623001256E+02 0.  0.
    9000005    2    3    3    0    0 -0.26630876096E+02  0.10102017742E+02  0.84257132746E+02  0.89532009560E+02  0.10269468984E+02 0.  0.
         22    1    3    3    0    0  0.26630876096E+02 -0.10102017742E+02 -0.72500071712E+01  0.29390762632E+02  0.00000000000E+00 0.  1.
         22    1    4    4    0    0 -0.17873306838E+02  0.73689289459E+01  0.41227981469E+02  0.45535729567E+02  0.00000000000E+00 0. -1.
         22    1    4    4    0    0 -0.87575692581E+01  0.27330887963E+01  0.43029151277E+02  0.43996279993E+02  0.00000000000E+00 0. -1.
<mgrwt>
<rscale>  0 0.90623001E+02</rscale>
<asrwt>0</asrwt>
<pdfrwt beam="2">  1        2 0.32242806E-02 0.90623001E+02</pdfrwt>
<pdfrwt beam="1">  1       -2 0.15071530E-01 0.90623001E+02</pdfrwt>
<totfact> 0.81520136E+04</totfact>
</mgrwt>
</event>
<event>
 7    1  0.3337990E-009  0.1221706E+03  0.7818608E-02  0.1239559E+00
          2   -1    0    0  501    0  0.00000000000E+00  0.00000000000E+00  0.54491156891E+02  0.54491156951E+02  0.25500000000E-02 0. -1.
         -2   -1    0    0    0  501 -0.00000000000E+00 -0.00000000000E+00 -0.68477470421E+02  0.68477470469E+02  0.25500000000E-02 0.  1.
         23    2    1    2    0    0  0.00000000000E+00  0.00000000000E+00 -0.13986313530E+02  0.12296862742E+03  0.12217064444E+03 0.  0.
    9000005    2    3    3    0    0 -0.23773366794E+02 -0.54468138674E+02 -0.20030032524E+02  0.63231891331E+02  0.80696207538E+01 0.  0.
         22    1    3    3    0    0  0.23773366794E+02  0.54468138674E+02  0.60437189934E+01  0.59736736089E+02  0.00000000000E+00 0. -1.
         22    1    4    4    0    0  0.40188705683E+00 -0.24248066949E+01 -0.17100999104E+01  0.29942682608E+01  0.00000000000E+00 0.  1.
         22    1    4    4    0    0 -0.24175253851E+02 -0.52043331979E+02 -0.18319932613E+02  0.60237623070E+02  0.00000000000E+00 0.  1.
<mgrwt>
<rscale>  0 0.12217064E+03</rscale>
<asrwt>0</asrwt>
<pdfrwt beam="1">  1        2 0.83832550E-02 0.12217064E+03</pdfrwt>
<pdfrwt beam="2">  1       -2 0.10534995E-01 0.12217064E+03</pdfrwt>
<totfact> 0.43921451E+04</totfact>
</mgrwt>
</event>
<event>
 7    1  0.3337990E-009  0.9261861E+02  0.7818608E-02  0.1296631E+00
         -2   -1    0    0    0  501 -0.00000000000E+00  0.00000000000E+00  0.24098666467E+01  0.24098679958E+01  0.25500000000E-02 0. -1.
          2   -1    0    0  501    0  0.00000000000E+00 -0.00000000000E+00 -0.88990448360E+03  0.88990448361E+03  0.25500000000E-02 0.  1.
         23    2    1    2    0    0  0.00000000000E+00  0.00000000000E+00 -0.88749461696E+03  0.89231435160E+03  0.92618610167E+02 0.  0.
    9000005    2    3    3    0    0 -0.35897468715E+02  0.16901938206E+02 -0.66567381660E+03  0.66697289682E+03  0.12526420192E+02 0.  0.
         22    1    3    3    0    0  0.35897468715E+02 -0.16901938206E+02 -0.22182080035E+03  0.22534145479E+03  0.00000000000E+00 0. -1.
         22    1    4    4    0    0 -0.98929399065E+01  0.16574574956E+01 -0.10152002370E+03  0.10201437466E+03  0.00000000000E+00 0. -1.
         22    1    4    4    0    0 -0.26004528809E+02  0.15244480711E+02 -0.56415379290E+03  0.56495852215E+03  0.00000000000E+00 0. -1.
<mgrwt>
<rscale>  0 0.92618610E+02</rscale>
<asrwt>0</asrwt>
<pdfrwt beam="2">  1        2 0.13690812E+00 0.92618610E+02</pdfrwt>
<pdfrwt beam="1">  1       -2 0.37074953E-03 0.92618610E+02</pdfrwt>
<totfact> 0.23758524E+05</totfact>
</mgrwt>
</event>
<event>
 7    1  0.3337990E-009  0.9213070E+02  0.7818608E-02  0.1297772E+00
          2   -1    0    0  501    0  0.00000000000E+00  0.00000000000E+00  0.33046410301E+03  0.33046410302E+03  0.25500000000E-02 0. -1.
         -2   -1    0    0    0  501 -0.00000000000E+00 -0.00000000000E+00 -0.64213224544E+01  0.64213229607E+01  0.25500000000E-02 0.  1.
         23    2    1    2    0    0  0.00000000000E+00  0.00000000000E+00  0.32404278056E+03  0.33688542598E+03  0.92130703937E+02 0.  0.
    9000005    2    3    3    0    0 -0.66061264572E+01  0.36296050854E+02  0.26026905379E+03  0.26320956535E+03  0.13351056737E+02 0.  0.
         22    1    3    3    0    0  0.66061264572E+01 -0.36296050854E+02  0.63773726772E+02  0.73675860638E+02  0.00000000000E+00 0.  1.
         22    1    4    4    0    0 -0.27681203047E+01  0.31489545424E+02  0.23858526453E+03  0.24067027738E+03  0.00000000000E+00 0.  1.
         22    1    4    4    0    0 -0.38380061525E+01  0.48065054307E+01  0.21683789256E+02  0.22539287970E+02  0.00000000000E+00 0.  1.
<mgrwt>
<rscale>  0 0.92130704E+02</rscale>
<asrwt>0</asrwt>
<pdfrwt beam="1">  1        2 0.50840637E-01 0.92130704E+02</pdfrwt>
<pdfrwt beam="2">  1       -2 0.98789570E-03 0.92130704E+02</pdfrwt>
<totfact> 0.18112612E+05</totfact>
</mgrwt>
</event>
<event>
 7    1  0.3337990E-009  0.9185106E+02  0.7818608E-02  0.1298430E+00
          2   -1    0    0  501    0  0.00000000000E+00  0.00000000000E+00  0.14263173984E+03  0.14263173987E+03  0.25500000000E-02 0.  1.
         -2   -1    0    0    0  501 -0.00000000000E+00 -0.00000000000E+00 -0.14787411732E+02  0.14787411952E+02  0.25500000000E-02 0. -1.
         23    2    1    2    0    0 -0.44408920985E-15  0.71054273576E-14  0.12784432811E+03  0.15741915182E+03  0.91851059489E+02 0.  0.
    9000005    2    3    3    0    0  0.28669146358E+01 -0.39437366137E+02  0.25221548003E+02  0.47442063093E+02  0.71482738814E+01 0.  0.
         22    1    3    3    0    0 -0.28669146358E+01  0.39437366137E+02  0.10262278011E+03  0.10997708873E+03  0.00000000000E+00 0.  1.
         22    1    4    4    0    0 -0.95197082677E+00 -0.14226263428E+01  0.95615883835E-01  0.17144260158E+01  0.00000000000E+00 0. -1.
         22    1    4    4    0    0  0.38188854626E+01 -0.38014739795E+02  0.25125932119E+02  0.45727637077E+02  0.00000000000E+00 0. -1.
<mgrwt>
<rscale>  0 0.91851059E+02</rscale>
<asrwt>0</asrwt>
<pdfrwt beam="1">  1        2 0.21943344E-01 0.91851059E+02</pdfrwt>
<pdfrwt beam="2">  1       -2 0.22749865E-02 0.91851059E+02</pdfrwt>
<totfact> 0.13471987E+05</totfact>
</mgrwt>
</event>
<event>
 7    1  0.3337990E-009  0.9117018E+02  0.7818608E-02  0.1300042E+00
         -2   -1    0    0    0  501 -0.00000000000E+00  0.00000000000E+00  0.14072362430E+01  0.14072385534E+01  0.25500000000E-02 0. -1.
          2   -1    0    0  501    0  0.00000000000E+00 -0.00000000000E+00 -0.14766524190E+04  0.14766524190E+04  0.25500000000E-02 0.  1.
         23    2    1    2    0    0  0.00000000000E+00  0.00000000000E+00 -0.14752451827E+04  0.14780596575E+04  0.91170181779E+02 0.  0.
    9000005    2    3    3    0    0  0.14554729907E+02 -0.11747044385E+02 -0.14103594605E+04  0.14105319583E+04  0.11694628674E+02 0.  0.
         22    1    3    3    0    0 -0.14554729907E+02  0.11747044385E+02 -0.64885722263E+02  0.67527699265E+02  0.00000000000E+00 0. -1.
         22    1    4    4    0    0  0.11530607277E+02 -0.11775581664E+02 -0.82454819480E+03  0.82471288626E+03  0.00000000000E+00 0. -1.
         22    1    4    4    0    0  0.30241226302E+01  0.28537279374E-01 -0.58581126568E+03  0.58581907201E+03  0.00000000000E+00 0. -1.
<mgrwt>
<rscale>  0 0.91170182E+02</rscale>
<asrwt>0</asrwt>
<pdfrwt beam="2">  1        2 0.22717606E+00 0.91170182E+02</pdfrwt>
<pdfrwt beam="1">  1       -2 0.21649924E-03 0.91170182E+02</pdfrwt>
<totfact> 0.23737342E+05</totfact>
</mgrwt>
</event>
<event>
 7    1  0.3337990E-009  0.9159031E+02  0.7818608E-02  0.1299046E+00
          2   -1    0    0  501    0  0.00000000000E+00  0.00000000000E+00  0.53241433756E+02  0.53241433817E+02  0.25500000000E-02 0. -1.
         -2   -1    0    0    0  501 -0.00000000000E+00 -0.00000000000E+00 -0.39390305169E+02  0.39390305252E+02  0.25500000000E-02 0.  1.
         23    2    1    2    0    0  0.00000000000E+00  0.00000000000E+00  0.13851128586E+02  0.92631739069E+02  0.91590312369E+02 0.  0.
    9000005    2    3    3    0    0  0.27962699032E+02 -0.19653002381E+02  0.36058655968E+02  0.51872355951E+02  0.14911794055E+02 0.  0.
         22    1    3    3    0    0 -0.27962699032E+02  0.19653002381E+02 -0.22207527382E+02  0.40759383118E+02  0.00000000000E+00 0.  1.
         22    1    4    4    0    0  0.95508508267E+01 -0.89223598678E+01  0.24150304951E+02  0.27460234637E+02  0.00000000000E+00 0. -1.
         22    1    4    4    0    0  0.18411848205E+02 -0.10730642513E+02  0.11908351017E+02  0.24412121313E+02  0.00000000000E+00 0. -1.
<mgrwt>
<rscale>  0 0.91590312E+02</rscale>
<asrwt>0</asrwt>
<pdfrwt beam="1">  1        2 0.81909898E-02 0.91590312E+02</pdfrwt>
<pdfrwt beam="2">  1       -2 0.60600470E-02 0.91590312E+02</pdfrwt>
<totfact> 0.10144229E+05</totfact>
</mgrwt>
</event>
<event>
 7    1  0.3337990E-009  0.9139627E+02  0.7818608E-02  0.1299505E+00
         -2   -1    0    0    0  501 -0.00000000000E+00  0.00000000000E+00  0.65120716830E+01  0.65120721822E+01  0.25500000000E-02 0.  1.
          2   -1    0    0  501    0  0.00000000000E+00 -0.00000000000E+00 -0.32068431897E+03  0.32068431898E+03  0.25500000000E-02 0. -1.
         23    2    1    2    0    0 -0.71054273576E-14 -0.17763568394E-14 -0.31417224728E+03  0.32719639116E+03  0.91396265920E+02 0.  0.
    9000005    2    3    3    0    0 -0.40704307259E+02 -0.15400523638E+02 -0.11132651223E+03  0.11973456578E+03  0.69826327944E+01 0.  0.
         22    1    3    3    0    0  0.40704307259E+02  0.15400523638E+02 -0.20284573506E+03  0.20746182538E+03  0.00000000000E+00 0.  1.
         22    1    4    4    0    0 -0.32093629633E+02 -0.12123476170E+02 -0.94750287958E+02  0.10077001938E+03  0.00000000000E+00 0.  1.
         22    1    4    4    0    0 -0.86106776263E+01 -0.32770474674E+01 -0.16576224269E+02  0.18964546404E+02  0.00000000000E+00 0.  1.
<mgrwt>
<rscale>  0 0.91396266E+02</rscale>
<asrwt>0</asrwt>
<pdfrwt beam="2">  1        2 0.49336037E-01 0.91396266E+02</pdfrwt>
<pdfrwt beam="1">  1       -2 0.10018575E-02 0.91396266E+02</pdfrwt>
<totfact> 0.18298890E+05</totfact>
</mgrwt>
</event>
<event>
 7    1  0.3337990E-009  0.8988869E+02  0.7818608E-02  0.1303121E+00
         -2   -1    0    0    0  501 -0.00000000000E+00  0.00000000000E+00  0.15080175232E+03  0.15080175235E+03  0.25500000000E-02 0.  1.
          2   -1    0    0  501    0  0.00000000000E+00 -0.00000000000E+00 -0.13395031229E+02  0.13395031471E+02  0.25500000000E-02 0. -1.
         23    2    1    2    0    0  0.35527136788E-14 -0.35527136788E-14  0.13740672110E+03  0.16419678382E+03  0.89888691244E+02 0.  0.
    9000005    2    3    3    0    0  0.31240478271E+02 -0.25669315148E+02  0.10316928930E+03  0.11121487220E+03  0.94849523430E+01 0.  0.
         22    1    3    3    0    0 -0.31240478271E+02  0.25669315148E+02  0.34237431799E+02  0.52981911620E+02  0.00000000000E+00 0.  1.
         22    1    4    4    0    0  0.54759959627E+01 -0.95161759424E+01  0.23464946160E+02  0.25906521084E+02  0.00000000000E+00 0.  1.
         22    1    4    4    0    0  0.25764482308E+02 -0.16153139206E+02  0.79704343137E+02  0.85308351113E+02  0.00000000000E+00 0.  1.
<mgrwt>
<rscale>  0 0.89888691E+02</rscale>
<asrwt>0</asrwt>
<pdfrwt beam="2">  1        2 0.20607741E-02 0.89888691E+02</pdfrwt>
<pdfrwt beam="1">  1       -2 0.23200269E-01 0.89888691E+02</pdfrwt>
<totfact> 0.72276515E+04</totfact>
</mgrwt>
</event>
<event>
 7    1  0.3337990E-009  0.9202593E+02  0.7818608E-02  0.1298018E+00
         -2   -1    0    0    0  501 -0.00000000000E+00  0.00000000000E+00  0.45148437142E+01  0.45148444344E+01  0.25500000000E-02 0.  1.
          2   -1    0    0  501    0  0.00000000000E+00 -0.00000000000E+00 -0.46894041541E+03  0.46894041541E+03  0.25500000000E-02 0. -1.
         23    2    1    2    0    0  0.44408920985E-15  0.00000000000E+00 -0.46442557169E+03  0.47345525985E+03  0.92025928063E+02 0.  0.
    9000005    2    3    3    0    0 -0.36786317313E+01  0.42521993743E+02 -0.31538249763E+03  0.31842142416E+03  0.10219161755E+02 0.  0.
         22    1    3    3    0    0  0.36786317313E+01 -0.42521993743E+02 -0.14904307406E+03  0.15503383569E+03  0.00000000000E+00 0.  1.
         22    1    4    4    0    0 -0.26812584598E+01  0.40570827655E+02 -0.30920431511E+03  0.31186614066E+03  0.00000000000E+00 0.  1.
         22    1    4    4    0    0 -0.99737327148E+00  0.19511660879E+01 -0.61781825170E+01  0.65552834995E+01  0.00000000000E+00 0.  1.
<mgrwt>
<rscale>  0 0.92025928E+02</rscale>
<asrwt>0</asrwt>
<pdfrwt beam="2">  1        2 0.72144641E-01 0.92025928E+02</pdfrwt>
<pdfrwt beam="1">  1       -2 0.69459177E-03 0.92025928E+02</pdfrwt>
<totfact> 0.20585145E+05</totfact>
</mgrwt>
</event>
<event>
 7    1  0.3337990E-009  0.1111245E+03  0.7818608E-02  0.1258502E+00
         -2   -1    0    0    0  501 -0.00000000000E+00  0.00000000000E+00  0.18389234780E+01  0.18389252460E+01  0.25500000000E-02 0.  1.
          2   -1    0    0  501    0  0.00000000000E+00 -0.00000000000E+00 -0.16787872309E+04  0.16787872309E+04  0.25500000000E-02 0. -1.
         23    2    1    2    0    0 -0.35527136788E-14  0.00000000000E+00 -0.16769483074E+04  0.16806261561E+04  0.11112448408E+03 0.  0.
    9000005    2    3    3    0    0 -0.26736911375E+02  0.23703620666E+02 -0.14808728146E+04  0.14813215577E+04  0.72484709180E+01 0.  0.
         22    1    3    3    0    0  0.26736911375E+02 -0.23703620666E+02 -0.19607549281E+03  0.19930459840E+03  0.00000000000E+00 0.  1.
         22    1    4    4    0    0  0.21700668650E+00 -0.48114689948E-01 -0.41085690061E+02  0.41086291324E+02  0.00000000000E+00 0.  1.
         22    1    4    4    0    0 -0.26953918061E+02  0.23751735356E+02 -0.14397871245E+04  0.14402352664E+04  0.00000000000E+00 0.  1.
<mgrwt>
<rscale>  0 0.11112448E+03</rscale>
<asrwt>0</asrwt>
<pdfrwt beam="2">  1        2 0.25827373E+00 0.11112448E+03</pdfrwt>
<pdfrwt beam="1">  1       -2 0.28291278E-03 0.11112448E+03</pdfrwt>
<totfact> 0.13221229E+05</totfact>
</mgrwt>
</event>
<event>
 7    1  0.3337990E-009  0.1030180E+03  0.7818608E-02  0.1274075E+00
         -2   -1    0    0    0  501 -0.00000000000E+00  0.00000000000E+00  0.54928570338E+01  0.54928576257E+01  0.25500000000E-02 0.  1.
          2   -1    0    0  501    0  0.00000000000E+00 -0.00000000000E+00 -0.48302313289E+03  0.48302313289E+03  0.25500000000E-02 0. -1.
         23    2    1    2    0    0  0.00000000000E+00  0.00000000000E+00 -0.47753027585E+03  0.48851599052E+03  0.10301800152E+03 0.  0.
    9000005    2    3    3    0    0 -0.12958119105E+02  0.48355144133E+02 -0.29149547378E+03  0.29586324489E+03  0.77016640850E+01 0.  0.
         22    1    3    3    0    0  0.12958119105E+02 -0.48355144133E+02 -0.18603480208E+03  0.19265274563E+03  0.00000000000E+00 0. -1.
         22    1    4    4    0    0 -0.52435322127E+01  0.28394988437E+02 -0.18489615875E+03  0.18713727454E+03  0.00000000000E+00 0. -1.
         22    1    4    4    0    0 -0.77145868924E+01  0.19960155696E+02 -0.10659931502E+03  0.10872597036E+03  0.00000000000E+00 0. -1.
<mgrwt>
<rscale>  0 0.10301800E+03</rscale>
<asrwt>0</asrwt>
<pdfrwt beam="2">  1        2 0.74311218E-01 0.10301800E+03</pdfrwt>
<pdfrwt beam="1">  1       -2 0.84505535E-03 0.10301800E+03</pdfrwt>
<totfact> 0.15387847E+05</totfact>
</mgrwt>
</event>
<event>
 7    1  0.3337990E-009  0.9305196E+02  0.7818608E-02  0.1295625E+00
          2   -1    0    0  501    0  0.00000000000E+00  0.00000000000E+00  0.15176760505E+04  0.15176760505E+04  0.25500000000E-02 0. -1.
         -2   -1    0    0    0  501 -0.00000000000E+00 -0.00000000000E+00 -0.14263024349E+01  0.14263047144E+01  0.25500000000E-02 0.  1.
         23    2    1    2    0    0  0.00000000000E+00 -0.55511151231E-16  0.15162497481E+04  0.15191023552E+04  0.93051959233E+02 0.  0.
    9000005    2    3    3    0    0 -0.23894286156E+02 -0.45060482746E+00  0.14087443689E+04  0.14089726749E+04  0.84947933246E+01 0.  0.
         22    1    3    3    0    0  0.23894286156E+02  0.45060482746E+00  0.10750537912E+03  0.11012968036E+03  0.00000000000E+00 0.  1.
         22    1    4    4    0    0 -0.26312830265E+01  0.25760548752E+00  0.37547124334E+03  0.37548055154E+03  0.00000000000E+00 0.  1.
         22    1    4    4    0    0 -0.21263003129E+02 -0.70821031498E+00  0.10332731256E+04  0.10334921233E+04  0.00000000000E+00 0.  1.
<mgrwt>
<rscale>  0 0.93051959E+02</rscale>
<asrwt>0</asrwt>
<pdfrwt beam="1">  1        2 0.23348841E+00 0.93051959E+02</pdfrwt>
<pdfrwt beam="2">  1       -2 0.21943152E-03 0.93051959E+02</pdfrwt>
<totfact> 0.22262098E+05</totfact>
</mgrwt>
</event>
<event>
 7    1  0.3337990E-009  0.9079866E+02  0.7818608E-02  0.1300929E+00
          2   -1    0    0  501    0  0.00000000000E+00  0.00000000000E+00  0.65245205179E+03  0.65245205180E+03  0.25500000000E-02 0.  1.
         -2   -1    0    0    0  501 -0.00000000000E+00 -0.00000000000E+00 -0.31590039599E+01  0.31590049891E+01  0.25500000000E-02 0. -1.
         23    2    1    2    0    0  0.44408920985E-15  0.00000000000E+00  0.64929304783E+03  0.65561105679E+03  0.90798655371E+02 0.  0.
    9000005    2    3    3    0    0  0.17970377801E+01  0.43845249818E+02  0.39849199122E+03  0.40099997047E+03  0.89148177546E+01 0.  0.
         22    1    3    3    0    0 -0.17970377801E+01 -0.43845249818E+02  0.25080105661E+03  0.25461108632E+03  0.00000000000E+00 0. -1.
         22    1    4    4    0    0 -0.23755530473E+01  0.41254422687E+01  0.35605140787E+02  0.35921979019E+02  0.00000000000E+00 0. -1.
         22    1    4    4    0    0  0.41725908273E+01  0.39719807549E+02  0.36288685043E+03  0.36507799145E+03  0.00000000000E+00 0. -1.
<mgrwt>
<rscale>  0 0.90798655E+02</rscale>
<asrwt>0</asrwt>
<pdfrwt beam="1">  1        2 0.10037721E+00 0.90798655E+02</pdfrwt>
<pdfrwt beam="2">  1       -2 0.48600084E-03 0.90798655E+02</pdfrwt>
<totfact> 0.23565179E+05</totfact>
</mgrwt>
</event>
<event>
 7    1  0.3700483E-009  0.9267991E+02  0.7818608E-02  0.1296489E+00
          2   -1    0    0  501    0  0.00000000000E+00  0.00000000000E+00  0.35891115102E+03  0.35891115102E+03  0.25500000000E-02 0. -1.
         -2   -1    0    0    0  501 -0.00000000000E+00 -0.00000000000E+00 -0.59830719602E+01  0.59830725037E+01  0.25500000000E-02 0.  1.
         23    2    1    2    0    0  0.00000000000E+00  0.00000000000E+00  0.35292807906E+03  0.36489422353E+03  0.92679908171E+02 0.  0.
    9000005    2    3    3    0    0 -0.21418015629E+02 -0.77688249963E+01  0.33473431387E+03  0.33573776409E+03  0.12397552931E+02 0.  0.
         22    1    3    3    0    0  0.21418015629E+02  0.77688249963E+01  0.18193765182E+02  0.29156459436E+02  0.00000000000E+00 0.  1.
         22    1    4    4    0    0 -0.96136979165E+01 -0.98567206466E+01  0.15898495101E+03  0.15958005131E+03  0.00000000000E+00 0. -1.
         22    1    4    4    0    0 -0.11804317713E+02  0.20878956503E+01  0.17574936286E+03  0.17615771278E+03  0.00000000000E+00 0. -1.
<mgrwt>
<rscale>  0 0.92679908E+02</rscale>
<asrwt>0</asrwt>
<pdfrwt beam="1">  1        2 0.55217095E-01 0.92679908E+02</pdfrwt>
<pdfrwt beam="2">  1       -2 0.92047273E-03 0.92679908E+02</pdfrwt>
<totfact> 0.18377185E+05</totfact>
</mgrwt>
</event>
<event>
 7    1  0.3337990E-009  0.9003424E+02  0.7818608E-02  0.1302769E+00
          2   -1    0    0  501    0  0.00000000000E+00  0.00000000000E+00  0.26716832400E+03  0.26716832401E+03  0.25500000000E-02 0. -1.
         -2   -1    0    0    0  501 -0.00000000000E+00 -0.00000000000E+00 -0.75852591978E+01  0.75852596264E+01  0.25500000000E-02 0.  1.
         23    2    1    2    0    0  0.00000000000E+00  0.00000000000E+00  0.25958306480E+03  0.27475358364E+03  0.90034238987E+02 0.  0.
    9000005    2    3    3    0    0 -0.17428089254E+02  0.29525426886E+02  0.21825318798E+03  0.22105397613E+03  0.74106122710E+01 0.  0.
         22    1    3    3    0    0  0.17428089254E+02 -0.29525426886E+02  0.41329876823E+02  0.53699607503E+02  0.00000000000E+00 0.  1.
         22    1    4    4    0    0 -0.13476343746E+02  0.24983067789E+02  0.19394336119E+03  0.19600967544E+03  0.00000000000E+00 0.  1.
         22    1    4    4    0    0 -0.39517455077E+01  0.45423590967E+01  0.24309826787E+02  0.25044300692E+02  0.00000000000E+00 0.  1.
<mgrwt>
<rscale>  0 0.90034239E+02</rscale>
<asrwt>0</asrwt>
<pdfrwt beam="1">  1        2 0.41102818E-01 0.90034239E+02</pdfrwt>
<pdfrwt beam="2">  1       -2 0.11669630E-02 0.90034239E+02</pdfrwt>
<totfact> 0.17795259E+05</totfact>
</mgrwt>
</event>
<event>
 7    1  0.3337990E-009  0.8955626E+02  0.7818608E-02  0.1303930E+00
         -2   -1    0    0    0  501 -0.00000000000E+00  0.00000000000E+00  0.11029508522E+03  0.11029508525E+03  0.25500000000E-02 0.  1.
          2   -1    0    0  501    0  0.00000000000E+00 -0.00000000000E+00 -0.18179242607E+02  0.18179242786E+02  0.25500000000E-02 0. -1.
         23    2    1    2    0    0  0.00000000000E+00  0.00000000000E+00  0.92115842616E+02  0.12847432804E+03  0.89556264460E+02 0.  0.
    9000005    2    3    3    0    0  0.53016095263E+01 -0.43970799638E+02  0.39104476783E+02  0.59396522689E+02  0.61031564526E+01 0.  0.
         22    1    3    3    0    0 -0.53016095263E+01  0.43970799638E+02  0.53011365833E+02  0.69077805349E+02  0.00000000000E+00 0. -1.
         22    1    4    4    0    0  0.34460425484E+01 -0.86154539471E+01  0.73320400558E+01  0.11826244854E+02  0.00000000000E+00 0. -1.
         22    1    4    4    0    0  0.18555669779E+01 -0.35355345691E+02  0.31772436727E+02  0.47570277835E+02  0.00000000000E+00 0. -1.
<mgrwt>
<rscale>  0 0.89556264E+02</rscale>
<asrwt>0</asrwt>
<pdfrwt beam="2">  1        2 0.27968066E-02 0.89556264E+02</pdfrwt>
<pdfrwt beam="1">  1       -2 0.16968474E-01 0.89556264E+02</pdfrwt>
<totfact> 0.81009627E+04</totfact>
</mgrwt>
</event>
<event>
 7    1  0.3337990E-009  0.9095637E+02  0.7818608E-02  0.1300552E+00
          2   -1    0    0  501    0  0.00000000000E+00  0.00000000000E+00  0.19384627117E+03  0.19384627118E+03  0.25500000000E-02 0. -1.
         -2   -1    0    0    0  501 -0.00000000000E+00 -0.00000000000E+00 -0.10669616496E+02  0.10669616801E+02  0.25500000000E-02 0.  1.
         23    2    1    2    0    0 -0.22204460493E-15  0.00000000000E+00  0.18317665467E+03  0.20451588798E+03  0.90956372079E+02 0.  0.
    9000005    2    3    3    0    0 -0.11457601313E+01  0.36491492946E+02  0.15102322782E+03  0.15586627666E+03  0.12383013989E+02 0.  0.
         22    1    3    3    0    0  0.11457601313E+01 -0.36491492946E+02  0.32153426851E+02  0.48649611323E+02  0.00000000000E+00 0.  1.
         22    1    4    4    0    0 -0.28525523147E+01  0.12699599524E+02  0.77070613393E+02  0.78161987766E+02  0.00000000000E+00 0.  1.
         22    1    4    4    0    0  0.17067921834E+01  0.23791893421E+02  0.73952614426E+02  0.77704288894E+02  0.00000000000E+00 0.  1.
<mgrwt>
<rscale>  0 0.90956372E+02</rscale>
<asrwt>0</asrwt>
<pdfrwt beam="1">  1        2 0.29822502E-01 0.90956372E+02</pdfrwt>
<pdfrwt beam="2">  1       -2 0.16414796E-02 0.90956372E+02</pdfrwt>
<totfact> 0.15394670E+05</totfact>
</mgrwt>
</event>
<event>
 7    1  0.3337990E-009  0.9049844E+02  0.7818608E-02  0.1301649E+00
         -2   -1    0    0    0  501 -0.00000000000E+00  0.00000000000E+00  0.50223328827E+02  0.50223328891E+02  0.25500000000E-02 0.  1.
          2   -1    0    0  501    0  0.00000000000E+00 -0.00000000000E+00 -0.40767743018E+02  0.40767743098E+02  0.25500000000E-02 0. -1.
         23    2    1    2    0    0 -0.35527136788E-14  0.35527136788E-14  0.94555858085E+01  0.90991071989E+02  0.90498436886E+02 0.  0.
    9000005    2    3    3    0    0 -0.30474343881E+02  0.18271280005E+02 -0.22212939863E+02  0.43394634873E+02  0.11276272898E+02 0.  0.
         22    1    3    3    0    0  0.30474343881E+02 -0.18271280005E+02  0.31668525671E+02  0.47596437116E+02  0.00000000000E+00 0.  1.
         22    1    4    4    0    0 -0.30572891688E+02  0.17484471764E+02 -0.23165623352E+02  0.42155125007E+02  0.00000000000E+00 0. -1.
         22    1    4    4    0    0  0.98547807542E-01  0.78680824077E+00  0.95268348937E+00  0.12395098665E+01  0.00000000000E+00 0. -1.
<mgrwt>
<rscale>  0 0.90498437E+02</rscale>
<asrwt>0</asrwt>
<pdfrwt beam="2">  1        2 0.62719604E-02 0.90498437E+02</pdfrwt>
<pdfrwt beam="1">  1       -2 0.77266660E-02 0.90498437E+02</pdfrwt>
<totfact> 0.97949386E+04</totfact>
</mgrwt>
</event>
<event>
 7    1  0.3337990E-009  0.9091692E+02  0.7818608E-02  0.1300646E+00
          2   -1    0    0  501    0  0.00000000000E+00  0.00000000000E+00  0.85026867217E+03  0.85026867218E+03  0.25500000000E-02 0. -1.
         -2   -1    0    0    0  501 -0.00000000000E+00 -0.00000000000E+00 -0.24303743579E+01  0.24303756956E+01  0.25500000000E-02 0.  1.
         23    2    1    2    0    0 -0.71054273576E-14  0.00000000000E+00  0.84783829781E+03  0.85269904787E+03  0.90916923620E+02 0.  0.
    9000005    2    3    3    0    0 -0.38974166122E+02  0.51306114567E+00  0.63164077976E+03  0.63301605884E+03  0.14832640960E+02 0.  0.
         22    1    3    3    0    0  0.38974166122E+02 -0.51306114567E+00  0.21619751805E+03  0.21968298903E+03  0.00000000000E+00 0.  1.
         22    1    4    4    0    0 -0.35297455798E+02 -0.15295224859E+00  0.61236445512E+03  0.61338092543E+03  0.00000000000E+00 0. -1.
         22    1    4    4    0    0 -0.36767103239E+01  0.66601339426E+00  0.19276324639E+02  0.19635133415E+02  0.00000000000E+00 0. -1.
<mgrwt>
<rscale>  0 0.90916924E+02</rscale>
<asrwt>0</asrwt>
<pdfrwt beam="1">  1        2 0.13081079E+00 0.90916924E+02</pdfrwt>
<pdfrwt beam="2">  1       -2 0.37390321E-03 0.90916924E+02</pdfrwt>
<totfact> 0.24799151E+05</totfact>
</mgrwt>
</event>
<event>
 7    1  0.3337990E-009  0.8996522E+02  0.7818608E-02  0.1302936E+00
          2   -1    0    0  501    0  0.00000000000E+00  0.00000000000E+00  0.31231826124E+03  0.31231826125E+03  0.25500000000E-02 0.  1.
         -2   -1    0    0    0  501 -0.00000000000E+00 -0.00000000000E+00 -0.64787605937E+01  0.64787610956E+01  0.25500000000E-02 0. -1.
         23    2    1    2    0    0  0.00000000000E+00  0.00000000000E+00  0.30583950064E+03  0.31879702234E+03  0.89965222731E+02 0.  0.
    9000005    2    3    3    0    0 -0.43275755061E+02  0.35162350336E+01  0.14352204751E+03  0.15077288575E+03  0.15771178524E+02 0.  0.
         22    1    3    3    0    0  0.43275755061E+02 -0.35162350336E+01  0.16231745314E+03  0.16802413659E+03  0.00000000000E+00 0. -1.
         22    1    4    4    0    0 -0.26645713775E+01  0.37354967762E+01  0.26739715427E+02  0.27130541055E+02  0.00000000000E+00 0.  1.
         22    1    4    4    0    0 -0.40611183684E+02 -0.21926174250E+00  0.11678233208E+03  0.12364234469E+03  0.00000000000E+00 0.  1.
<mgrwt>
<rscale>  0 0.89965223E+02</rscale>
<asrwt>0</asrwt>
<pdfrwt beam="1">  1        2 0.48048940E-01 0.89965223E+02</pdfrwt>
<pdfrwt beam="2">  1       -2 0.99673291E-03 0.89965223E+02</pdfrwt>
<totfact> 0.18898264E+05</totfact>
</mgrwt>
</event>
<event>
 7    1  0.3337990E-009  0.9129445E+02  0.7818608E-02  0.1299747E+00
         -2   -1    0    0    0  501 -0.00000000000E+00  0.00000000000E+00  0.55761105368E+01  0.55761111198E+01  0.25500000000E-02 0.  1.
          2   -1    0    0  501    0  0.00000000000E+00 -0.00000000000E+00 -0.37367784433E+03  0.37367784434E+03  0.25500000000E-02 0. -1.
         23    2    1    2    0    0  0.00000000000E+00  0.00000000000E+00 -0.36810173379E+03  0.37925395546E+03  0.91294448403E+02 0.  0.
    9000005    2    3    3    0    0 -0.20120498007E+02 -0.38522147324E+02 -0.23101189646E+03  0.23544013910E+03  0.13295582746E+02 0.  0.
         22    1    3    3    0    0  0.20120498007E+02  0.38522147324E+02 -0.13708983733E+03  0.14381381635E+03  0.00000000000E+00 0.  1.
         22    1    4    4    0    0 -0.16845049423E+02 -0.17980690089E+02 -0.12757789863E+03  0.12993529592E+03  0.00000000000E+00 0. -1.
         22    1    4    4    0    0 -0.32754485844E+01 -0.20541457235E+02 -0.10343399783E+03  0.10550484318E+03  0.00000000000E+00 0. -1.
<mgrwt>
<rscale>  0 0.91294448E+02</rscale>
<asrwt>0</asrwt>
<pdfrwt beam="2">  1        2 0.57488879E-01 0.91294448E+02</pdfrwt>
<pdfrwt beam="1">  1       -2 0.85786350E-03 0.91294448E+02</pdfrwt>
<totfact> 0.19411634E+05</totfact>
</mgrwt>
</event>
<event>
 7    1  0.3337990E-009  0.9241654E+02  0.7818608E-02  0.1297103E+00
         -2   -1    0    0    0  501 -0.00000000000E+00  0.00000000000E+00  0.12324090437E+03  0.12324090440E+03  0.25500000000E-02 0.  1.
          2   -1    0    0  501    0  0.00000000000E+00 -0.00000000000E+00 -0.17325449111E+02  0.17325449299E+02  0.25500000000E-02 0. -1.
         23    2    1    2    0    0 -0.71054273576E-14 -0.17763568394E-14  0.10591545526E+03  0.14056635370E+03  0.92416536012E+02 0.  0.
    9000005    2    3    3    0    0  0.41973318947E+02  0.15952735745E+02  0.52318201715E+02  0.70645578037E+02  0.15406303395E+02 0.  0.
         22    1    3    3    0    0 -0.41973318947E+02 -0.15952735745E+02  0.53597253546E+02  0.69920775660E+02  0.00000000000E+00 0.  1.
         22    1    4    4    0    0  0.74651552932E+00 -0.21188324716E+01  0.12506303987E+01  0.25711501069E+01  0.00000000000E+00 0.  1.
         22    1    4    4    0    0  0.41226803418E+02  0.18071568216E+02  0.51067571316E+02  0.68074427930E+02  0.00000000000E+00 0.  1.
<mgrwt>
<rscale>  0 0.92416536E+02</rscale>
<asrwt>0</asrwt>
<pdfrwt beam="2">  1        2 0.26654537E-02 0.92416536E+02</pdfrwt>
<pdfrwt beam="1">  1       -2 0.18960139E-01 0.92416536E+02</pdfrwt>
<totfact> 0.72268159E+04</totfact>
</mgrwt>
</event>
<event>
 7    1  0.3337990E-009  0.9114175E+02  0.7818608E-02  0.1300110E+00
         -2   -1    0    0    0  501 -0.00000000000E+00  0.00000000000E+00  0.11872766085E+02  0.11872766359E+02  0.25500000000E-02 0.  1.
          2   -1    0    0  501    0  0.00000000000E+00 -0.00000000000E+00 -0.17491327467E+03  0.17491327469E+03  0.25500000000E-02 0. -1.
         23    2    1    2    0    0  0.35527136788E-14  0.00000000000E+00 -0.16304050859E+03  0.18678604105E+03  0.91141745049E+02 0.  0.
    9000005    2    3    3    0    0  0.21191476095E+02  0.32459913806E+02 -0.36988018479E+02  0.54907479767E+02  0.11999714995E+02 0.  0.
         22    1    3    3    0    0 -0.21191476095E+02 -0.32459913806E+02 -0.12605249011E+03  0.13187856128E+03  0.00000000000E+00 0. -1.
         22    1    4    4    0    0  0.20579078920E+02  0.22086469475E+02 -0.27614753327E+02  0.40913142441E+02  0.00000000000E+00 0. -1.
         22    1    4    4    0    0  0.61239717562E+00  0.10373444331E+02 -0.93732651520E+01  0.13994337326E+02  0.00000000000E+00 0. -1.
<mgrwt>
<rscale>  0 0.91141745E+02</rscale>
<asrwt>0</asrwt>
<pdfrwt beam="2">  1        2 0.26909733E-01 0.91141745E+02</pdfrwt>
<pdfrwt beam="1">  1       -2 0.18265795E-02 0.91141745E+02</pdfrwt>
<totfact> 0.14759792E+05</totfact>
</mgrwt>
</event>
<event>
 7    1  0.3337990E-009  0.9214468E+02  0.7818608E-02  0.1297740E+00
         -2   -1    0    0    0  501 -0.00000000000E+00  0.00000000000E+00  0.32446793830E+02  0.32446793931E+02  0.25500000000E-02 0.  1.
          2   -1    0    0  501    0  0.00000000000E+00 -0.00000000000E+00 -0.65419732943E+02  0.65419732993E+02  0.25500000000E-02 0. -1.
         23    2    1    2    0    0  0.00000000000E+00 -0.71054273576E-14 -0.32972939113E+02  0.97866526924E+02  0.92144681769E+02 0.  0.
    9000005    2    3    3    0    0  0.13023989815E+02  0.43155065129E+02 -0.21737074967E+02  0.51409787907E+02  0.11767833597E+02 0.  0.
         22    1    3    3    0    0 -0.13023989815E+02 -0.43155065129E+02 -0.11235864146E+02  0.46456739017E+02  0.00000000000E+00 0. -1.
         22    1    4    4    0    0  0.14252407500E+02  0.36334734225E+02 -0.21305027341E+02  0.44466259352E+02  0.00000000000E+00 0.  1.
         22    1    4    4    0    0 -0.12284176852E+01  0.68203309035E+01 -0.43204762613E+00  0.69435285550E+01  0.00000000000E+00 0.  1.
<mgrwt>
<rscale>  0 0.92144682E+02</rscale>
<asrwt>0</asrwt>
<pdfrwt beam="2">  1        2 0.10064574E-01 0.92144682E+02</pdfrwt>
<pdfrwt beam="1">  1       -2 0.49918145E-02 0.92144682E+02</pdfrwt>
<totfact> 0.10540297E+05</totfact>
</mgrwt>
</event>
<event>
 7    1  0.3337990E-009  0.9119522E+02  0.7818608E-02  0.1299983E+00
          2   -1    0    0  501    0  0.00000000000E+00  0.00000000000E+00  0.97074637361E+01  0.97074640710E+01  0.25500000000E-02 0. -1.
         -2   -1    0    0    0  501 -0.00000000000E+00 -0.00000000000E+00 -0.21417975706E+03  0.21417975707E+03  0.25500000000E-02 0.  1.
         23    2    1    2    0    0  0.00000000000E+00  0.00000000000E+00 -0.20447229332E+03  0.22388722114E+03  0.91195224959E+02 0.  0.
    9000005    2    3    3    0    0 -0.25521708925E+02  0.36025145429E+02 -0.83705911107E+02  0.95303832626E+02  0.11268195477E+02 0.  0.
         22    1    3    3    0    0  0.25521708925E+02 -0.36025145429E+02 -0.12076638222E+03  0.12858338852E+03  0.00000000000E+00 0.  1.
         22    1    4    4    0    0 -0.13074371546E+02  0.21432860543E+02 -0.58258470869E+02  0.63437813096E+02  0.00000000000E+00 0. -1.
         22    1    4    4    0    0 -0.12447337379E+02  0.14592284886E+02 -0.25447440238E+02  0.31866019530E+02  0.00000000000E+00 0. -1.
<mgrwt>
<rscale>  0 0.91195225E+02</rscale>
<asrwt>0</asrwt>
<pdfrwt beam="1">  1        2 0.14934562E-02 0.91195225E+02</pdfrwt>
<pdfrwt beam="2">  1       -2 0.32950728E-01 0.91195225E+02</pdfrwt>
<totfact> 0.60427930E+04</totfact>
</mgrwt>
</event>
<event>
 7    1  0.3337990E-009  0.8999661E+02  0.7818608E-02  0.1302860E+00
          2   -1    0    0  501    0  0.00000000000E+00  0.00000000000E+00  0.26007345112E+03  0.26007345113E+03  0.25500000000E-02 0. -1.
         -2   -1    0    0    0  501 -0.00000000000E+00 -0.00000000000E+00 -0.77856754254E+01  0.77856758430E+01  0.25500000000E-02 0.  1.
         23    2    1    2    0    0  0.00000000000E+00  0.00000000000E+00  0.25228777569E+03  0.26785912697E+03  0.89996611820E+02 0.  0.
    9000005    2    3    3    0    0  0.26433231075E+02 -0.19600474344E+02  0.21567578424E+03  0.21863177464E+03  0.14174437386E+02 0.  0.
         22    1    3    3    0    0 -0.26433231075E+02  0.19600474344E+02  0.36611991452E+02  0.49227352332E+02  0.00000000000E+00 0.  1.
         22    1    4    4    0    0  0.58077194111E+00 -0.67719602254E+01  0.33298089152E+02  0.33984694828E+02  0.00000000000E+00 0.  1.
         22    1    4    4    0    0  0.25852459134E+02 -0.12828514119E+02  0.18237769509E+03  0.18464707981E+03  0.00000000000E+00 0.  1.
<mgrwt>
<rscale>  0 0.89996612E+02</rscale>
<asrwt>0</asrwt>
<pdfrwt beam="1">  1        2 0.40011302E-01 0.89996612E+02</pdfrwt>
<pdfrwt beam="2">  1       -2 0.11977962E-02 0.89996612E+02</pdfrwt>
<totfact> 0.17637524E+05</totfact>
</mgrwt>
</event>
<event>
 7    1  0.3337990E-009  0.1027902E+03  0.7818608E-02  0.1274536E+00
          2   -1    0    0  501    0  0.00000000000E+00  0.00000000000E+00  0.90225802267E+03  0.90225802267E+03  0.25500000000E-02 0. -1.
         -2   -1    0    0    0  501 -0.00000000000E+00 -0.00000000000E+00 -0.29276040521E+01  0.29276051626E+01  0.25500000000E-02 0.  1.
         23    2    1    2    0    0  0.00000000000E+00 -0.88817841970E-15  0.89933041861E+03  0.90518562783E+03  0.10279016971E+03 0.  0.
    9000005    2    3    3    0    0  0.46429270530E+02  0.56480450509E+01  0.62331004830E+03  0.62523059144E+03  0.14501675151E+02 0.  0.
         22    1    3    3    0    0 -0.46429270530E+02 -0.56480450509E+01  0.27602037032E+03  0.27995503640E+03  0.00000000000E+00 0. -1.
         22    1    4    4    0    0  0.23820482196E+01 -0.31156238637E+01  0.64229369932E+02  0.64348995545E+02  0.00000000000E+00 0.  1.
         22    1    4    4    0    0  0.44047222310E+02  0.87636689146E+01  0.55908067837E+03  0.56088159589E+03  0.00000000000E+00 0.  1.
<mgrwt>
<rscale>  0 0.10279017E+03</rscale>
<asrwt>0</asrwt>
<pdfrwt beam="1">  1        2 0.13880894E+00 0.10279017E+03</pdfrwt>
<pdfrwt beam="2">  1       -2 0.45040065E-03 0.10279017E+03</pdfrwt>
<totfact> 0.18051513E+05</totfact>
</mgrwt>
</event>
<event>
 7    1  0.3337990E-009  0.9097639E+02  0.7818608E-02  0.1300504E+00
         -2   -1    0    0    0  501 -0.00000000000E+00  0.00000000000E+00  0.55367323161E+02  0.55367323220E+02  0.25500000000E-02 0.  1.
          2   -1    0    0  501    0  0.00000000000E+00 -0.00000000000E+00 -0.37371789454E+02  0.37371789541E+02  0.25500000000E-02 0. -1.
         23    2    1    2    0    0  0.35527136788E-14  0.71054273576E-14  0.17995533707E+02  0.92739112761E+02  0.90976391456E+02 0.  0.
    9000005    2    3    3    0    0 -0.22974351007E+02 -0.38528378337E+02  0.18920006048E+01  0.45078012062E+02  0.40237748149E+01 0.  0.
         22    1    3    3    0    0  0.22974351007E+02  0.38528378337E+02  0.16103533102E+02  0.47661100699E+02  0.00000000000E+00 0.  1.
         22    1    4    4    0    0 -0.11560976995E+02 -0.18563080474E+02 -0.10457337412E+01  0.21893782332E+02  0.00000000000E+00 0. -1.
         22    1    4    4    0    0 -0.11413374012E+02 -0.19965297863E+02  0.29377343461E+01  0.23184229730E+02  0.00000000000E+00 0. -1.
<mgrwt>
<rscale>  0 0.90976391E+02</rscale>
<asrwt>0</asrwt>
<pdfrwt beam="2">  1        2 0.57495061E-02 0.90976391E+02</pdfrwt>
<pdfrwt beam="1">  1       -2 0.85180498E-02 0.90976391E+02</pdfrwt>
<totfact> 0.94326077E+04</totfact>
</mgrwt>
</event>
<event>
 7    1  0.3337990E-009  0.9100109E+02  0.7818608E-02  0.1300445E+00
          2   -1    0    0  501    0  0.00000000000E+00  0.00000000000E+00  0.71309088717E+01  0.71309093276E+01  0.25500000000E-02 0. -1.
         -2   -1    0    0    0  501 -0.00000000000E+00 -0.00000000000E+00 -0.29032757687E+03  0.29032757689E+03  0.25500000000E-02 0.  1.
         23    2    1    2    0    0  0.00000000000E+00  0.00000000000E+00 -0.28319666800E+03  0.29745848621E+03  0.91001089293E+02 0.  0.
    9000005    2    3    3    0    0  0.32580862366E+02 -0.16748834323E+02 -0.64807347742E+02  0.76017904459E+02  0.15384844272E+02 0.  0.
         22    1    3    3    0    0 -0.32580862366E+02  0.16748834323E+02 -0.21838932026E+03  0.22144058175E+03  0.00000000000E+00 0.  1.
         22    1    4    4    0    0  0.29804609430E+02 -0.12422599625E+02 -0.43950762888E+02  0.54537191743E+02  0.00000000000E+00 0. -1.
         22    1    4    4    0    0  0.27762529357E+01 -0.43262346985E+01 -0.20856584854E+02  0.21480712717E+02  0.00000000000E+00 0. -1.
<mgrwt>
<rscale>  0 0.91001089E+02</rscale>
<asrwt>0</asrwt>
<pdfrwt beam="1">  1        2 0.10970632E-02 0.91001089E+02</pdfrwt>
<pdfrwt beam="2">  1       -2 0.44665772E-01 0.91001089E+02</pdfrwt>
<totfact> 0.52198441E+04</totfact>
</mgrwt>
</event>
<event>
 7    1  0.3337990E-009  0.9153064E+02  0.7818608E-02  0.1299187E+00
          2   -1    0    0  501    0  0.00000000000E+00  0.00000000000E+00  0.21017817055E+02  0.21017817210E+02  0.25500000000E-02 0. -1.
         -2   -1    0    0    0  501 -0.00000000000E+00 -0.00000000000E+00 -0.99651857071E+02  0.99651857104E+02  0.25500000000E-02 0.  1.
         23    2    1    2    0    0  0.22204460493E-15 -0.71054273576E-14 -0.78634040016E+02  0.12066967431E+03  0.91530639951E+02 0.  0.
    9000005    2    3    3    0    0  0.56442877373E+00 -0.42675723636E+02 -0.17903496305E+02  0.46442085729E+02  0.38465801953E+01 0.  0.
         22    1    3    3    0    0 -0.56442877373E+00  0.42675723636E+02 -0.60730543711E+02  0.74227588585E+02  0.00000000000E+00 0.  1.
         22    1    4    4    0    0  0.16901426278E+01 -0.10204530271E+02 -0.37479842777E+01  0.11001654707E+02  0.00000000000E+00 0.  1.
         22    1    4    4    0    0 -0.11257138541E+01 -0.32471193365E+02 -0.14155512027E+02  0.35440431021E+02  0.00000000000E+00 0.  1.
<mgrwt>
<rscale>  0 0.91530640E+02</rscale>
<asrwt>0</asrwt>
<pdfrwt beam="1">  1        2 0.32335104E-02 0.91530640E+02</pdfrwt>
<pdfrwt beam="2">  1       -2 0.15331055E-01 0.91530640E+02</pdfrwt>
<totfact> 0.79122448E+04</totfact>
</mgrwt>
</event>
<event>
 7    1  0.3337990E-009  0.9081846E+02  0.7818608E-02  0.1300882E+00
         -2   -1    0    0    0  501 -0.00000000000E+00  0.00000000000E+00  0.62366060599E+02  0.62366060651E+02  0.25500000000E-02 0.  1.
          2   -1    0    0  501    0  0.00000000000E+00 -0.00000000000E+00 -0.33062828515E+02  0.33062828613E+02  0.25500000000E-02 0. -1.
         23    2    1    2    0    0  0.00000000000E+00  0.00000000000E+00  0.29303232085E+02  0.95428889264E+02  0.90818464508E+02 0.  0.
    9000005    2    3    3    0    0  0.94526256263E+01 -0.42925072626E+02  0.26258180184E+02  0.51369993088E+02  0.41797334909E+01 0.  0.
         22    1    3    3    0    0 -0.94526256263E+01  0.42925072626E+02  0.30450519007E+01  0.44058896176E+02  0.00000000000E+00 0. -1.
         22    1    4    4    0    0  0.74571329582E+01 -0.39341184745E+02  0.24100910326E+02  0.46735334894E+02  0.00000000000E+00 0.  1.
         22    1    4    4    0    0  0.19954926680E+01 -0.35838878812E+01  0.21572698578E+01  0.46346581937E+01  0.00000000000E+00 0.  1.
<mgrwt>
<rscale>  0 0.90818465E+02</rscale>
<asrwt>0</asrwt>
<pdfrwt beam="2">  1        2 0.50865891E-02 0.90818465E+02</pdfrwt>
<pdfrwt beam="1">  1       -2 0.95947784E-02 0.90818465E+02</pdfrwt>
<totfact> 0.91830467E+04</totfact>
</mgrwt>
</event>
<event>
 7    1  0.3337990E-009  0.9842718E+02  0.7818608E-02  0.1283639E+00
          2   -1    0    0  501    0  0.00000000000E+00  0.00000000000E+00  0.53048458877E+03  0.53048458878E+03  0.25500000000E-02 0. -1.
         -2   -1    0    0    0  501 -0.00000000000E+00 -0.00000000000E+00 -0.45655936634E+01  0.45655943755E+01  0.25500000000E-02 0.  1.
         23    2    1    2    0    0  0.00000000000E+00  0.00000000000E+00  0.52591899511E+03  0.53505018315E+03  0.98427176515E+02 0.  0.
    9000005    2    3    3    0    0  0.13405350432E+02  0.46020051606E+02  0.32091404503E+03  0.32451615235E+03  0.52307043556E+01 0.  0.
         22    1    3    3    0    0 -0.13405350432E+02 -0.46020051606E+02  0.20500495008E+03  0.21053403081E+03  0.00000000000E+00 0.  1.
         22    1    4    4    0    0  0.22308740065E+01  0.13702699221E+02  0.81875418825E+02  0.83044114617E+02  0.00000000000E+00 0.  1.
         22    1    4    4    0    0  0.11174476425E+02  0.32317352385E+02  0.23903862620E+03  0.24147203773E+03  0.00000000000E+00 0.  1.
<mgrwt>
<rscale>  0 0.98427177E+02</rscale>
<asrwt>0</asrwt>
<pdfrwt beam="1">  1        2 0.81613032E-01 0.98427177E+02</pdfrwt>
<pdfrwt beam="2">  1       -2 0.70239892E-03 0.98427177E+02</pdfrwt>
<totfact> 0.17921855E+05</totfact>
</mgrwt>
</event>
<event>
 7    1  0.3337990E-009  0.9140690E+02  0.7818608E-02  0.1299480E+00
         -2   -1    0    0    0  501 -0.00000000000E+00  0.00000000000E+00  0.31438980324E+02  0.31438980427E+02  0.25500000000E-02 0.  1.
          2   -1    0    0  501    0  0.00000000000E+00 -0.00000000000E+00 -0.66439989361E+02  0.66439989410E+02  0.25500000000E-02 0. -1.
         23    2    1    2    0    0  0.00000000000E+00  0.88817841970E-15 -0.35001009037E+02  0.97878969837E+02  0.91406904021E+02 0.  0.
    9000005    2    3    3    0    0 -0.12831750677E+02  0.54829688394E+01 -0.63587286137E+02  0.66068719740E+02  0.11270137404E+02 0.  0.
         22    1    3    3    0    0  0.12831750677E+02 -0.54829688394E+01  0.28586277100E+02  0.31810250097E+02  0.00000000000E+00 0.  1.
         22    1    4    4    0    0 -0.58287207466E+01 -0.23717570362E+01 -0.13593407268E+02  0.14979317011E+02  0.00000000000E+00 0. -1.
         22    1    4    4    0    0 -0.70030299307E+01  0.78547258756E+01 -0.49993878870E+02  0.51089402729E+02  0.00000000000E+00 0. -1.
<mgrwt>
<rscale>  0 0.91406904E+02</rscale>
<asrwt>0</asrwt>
<pdfrwt beam="2">  1        2 0.10221537E-01 0.91406904E+02</pdfrwt>
<pdfrwt beam="1">  1       -2 0.48367662E-02 0.91406904E+02</pdfrwt>
<totfact> 0.10827163E+05</totfact>
</mgrwt>
</event>
<event>
 7    1  0.3337990E-009  0.8840079E+02  0.7818608E-02  0.1306771E+00
          2   -1    0    0  501    0  0.00000000000E+00  0.00000000000E+00  0.24456973429E+03  0.24456973430E+03  0.25500000000E-02 0. -1.
         -2   -1    0    0    0  501 -0.00000000000E+00 -0.00000000000E+00 -0.79882126968E+01  0.79882131038E+01  0.25500000000E-02 0.  1.
         23    2    1    2    0    0  0.00000000000E+00  0.00000000000E+00  0.23658152159E+03  0.25255794741E+03  0.88400794335E+02 0.  0.
    9000005    2    3    3    0    0  0.42722432796E+01  0.39816053880E+02  0.16538303551E+03  0.17087077198E+03  0.15546770474E+02 0.  0.
         22    1    3    3    0    0 -0.42722432796E+01 -0.39816053880E+02  0.71198486083E+02  0.81687175431E+02  0.00000000000E+00 0. -1.
         22    1    4    4    0    0  0.60464207465E+01  0.35960870986E+02  0.15950858190E+03  0.16362374872E+03  0.00000000000E+00 0.  1.
         22    1    4    4    0    0 -0.17741774669E+01  0.38551828947E+01  0.58744536052E+01  0.72470232506E+01  0.00000000000E+00 0.  1.
<mgrwt>
<rscale>  0 0.88400794E+02</rscale>
<asrwt>0</asrwt>
<pdfrwt beam="1">  1        2 0.37626106E-01 0.88400794E+02</pdfrwt>
<pdfrwt beam="2">  1       -2 0.12289561E-02 0.88400794E+02</pdfrwt>
<totfact> 0.18084839E+05</totfact>
</mgrwt>
</event>
<event>
 7    1  0.3337990E-009  0.9108183E+02  0.7818608E-02  0.1300253E+00
         -2   -1    0    0    0  501 -0.00000000000E+00  0.00000000000E+00  0.21342772621E+01  0.21342787854E+01  0.25500000000E-02 0.  1.
          2   -1    0    0  501    0  0.00000000000E+00 -0.00000000000E+00 -0.97174540949E+03  0.97174540950E+03  0.25500000000E-02 0. -1.
         23    2    1    2    0    0  0.35527136788E-14  0.17763568394E-14 -0.96961113223E+03  0.97387968828E+03  0.91081828603E+02 0.  0.
    9000005    2    3    3    0    0 -0.28276869678E+02 -0.89039341955E+01 -0.85413371650E+03  0.85465764776E+03  0.40531228809E+01 0.  0.
         22    1    3    3    0    0  0.28276869678E+02  0.89039341955E+01 -0.11547741573E+03  0.11922204053E+03  0.00000000000E+00 0.  1.
         22    1    4    4    0    0 -0.16225915285E+02 -0.35531381720E+01 -0.51459041910E+03  0.51485843156E+03  0.00000000000E+00 0.  1.
         22    1    4    4    0    0 -0.12050954392E+02 -0.53507960235E+01 -0.33954329740E+03  0.33979921620E+03  0.00000000000E+00 0.  1.
<mgrwt>
<rscale>  0 0.91081829E+02</rscale>
<asrwt>0</asrwt>
<pdfrwt beam="2">  1        2 0.14949894E+00 0.91081829E+02</pdfrwt>
<pdfrwt beam="1">  1       -2 0.32835124E-03 0.91081829E+02</pdfrwt>
<totfact> 0.25031653E+05</totfact>
</mgrwt>
</event>
<event>
 7    1  0.3337990E-009  0.8860144E+02  0.7818608E-02  0.1306274E+00
          2   -1    0    0  501    0  0.00000000000E+00  0.00000000000E+00  0.92102115604E+02  0.92102115640E+02  0.25500000000E-02 0.  1.
         -2   -1    0    0    0  501 -0.00000000000E+00 -0.00000000000E+00 -0.21308456728E+02  0.21308456881E+02  0.25500000000E-02 0. -1.
         23    2    1    2    0    0  0.00000000000E+00  0.00000000000E+00  0.70793658876E+02  0.11341057252E+03  0.88601443681E+02 0.  0.
    9000005    2    3    3    0    0 -0.12875354380E+02  0.40008803674E+02  0.48489583390E+02  0.65829579413E+02  0.14690633289E+02 0.  0.
         22    1    3    3    0    0  0.12875354380E+02 -0.40008803674E+02  0.22304075486E+02  0.47580993108E+02  0.00000000000E+00 0.  1.
         22    1    4    4    0    0 -0.47909833956E+00  0.90450617473E+01  0.20037462032E+02  0.21989601222E+02  0.00000000000E+00 0. -1.
         22    1    4    4    0    0 -0.12396256041E+02  0.30963741927E+02  0.28452121358E+02  0.43839978190E+02  0.00000000000E+00 0. -1.
<mgrwt>
<rscale>  0 0.88601444E+02</rscale>
<asrwt>0</asrwt>
<pdfrwt beam="1">  1        2 0.14169556E-01 0.88601444E+02</pdfrwt>
<pdfrwt beam="2">  1       -2 0.32782241E-02 0.88601444E+02</pdfrwt>
<totfact> 0.12950144E+05</totfact>
</mgrwt>
</event>
<event>
 7    1  0.3337990E-009  0.9045117E+02  0.7818608E-02  0.1301763E+00
         -2   -1    0    0    0  501 -0.00000000000E+00  0.00000000000E+00  0.85154038805E+01  0.85154042623E+01  0.25500000000E-02 0.  1.
          2   -1    0    0  501    0  0.00000000000E+00 -0.00000000000E+00 -0.24019455321E+03  0.24019455322E+03  0.25500000000E-02 0. -1.
         23    2    1    2    0    0  0.00000000000E+00 -0.71054273576E-14 -0.23167914933E+03  0.24870995749E+03  0.90451173119E+02 0.  0.
    9000005    2    3    3    0    0 -0.22301974771E+02 -0.37702245289E+02 -0.10361777331E+03  0.11336390691E+03  0.13996251841E+02 0.  0.
         22    1    3    3    0    0  0.22301974771E+02  0.37702245289E+02 -0.12806137602E+03  0.13534605058E+03  0.00000000000E+00 0. -1.
         22    1    4    4    0    0 -0.88831710167E+01 -0.51965294035E+01 -0.16901261384E+02  0.19788059064E+02  0.00000000000E+00 0. -1.
         22    1    4    4    0    0 -0.13418803754E+02 -0.32505715886E+02 -0.86716511921E+02  0.93575847841E+02  0.00000000000E+00 0. -1.
<mgrwt>
<rscale>  0 0.90451173E+02</rscale>
<asrwt>0</asrwt>
<pdfrwt beam="2">  1        2 0.36953003E-01 0.90451173E+02</pdfrwt>
<pdfrwt beam="1">  1       -2 0.13100623E-02 0.90451173E+02</pdfrwt>
<totfact> 0.16897379E+05</totfact>
</mgrwt>
</event>
<event>
 7    1  0.3337990E-009  0.8857859E+02  0.7818608E-02  0.1306331E+00
          2   -1    0    0  501    0  0.00000000000E+00  0.00000000000E+00  0.24160785259E+03  0.24160785260E+03  0.25500000000E-02 0.  1.
         -2   -1    0    0    0  501 -0.00000000000E+00 -0.00000000000E+00 -0.81186993230E+01  0.81186997235E+01  0.25500000000E-02 0. -1.
         23    2    1    2    0    0  0.00000000000E+00  0.00000000000E+00  0.23348915327E+03  0.24972655233E+03  0.88578587953E+02 0.  0.
    9000005    2    3    3    0    0  0.15955402388E+01 -0.30531444738E+02  0.20582790919E+03  0.20849720246E+03  0.13085884223E+02 0.  0.
         22    1    3    3    0    0 -0.15955402388E+01  0.30531444738E+02  0.27661244075E+02  0.41229349864E+02  0.00000000000E+00 0. -1.
         22    1    4    4    0    0  0.14310999614E+01 -0.16666989568E+02  0.70346632958E+02  0.72308266173E+02  0.00000000000E+00 0.  1.
         22    1    4    4    0    0  0.16444027741E+00 -0.13864455170E+02  0.13548127623E+03  0.13618893629E+03  0.00000000000E+00 0.  1.
<mgrwt>
<rscale>  0 0.88578588E+02</rscale>
<asrwt>0</asrwt>
<pdfrwt beam="1">  1        2 0.37170437E-01 0.88578588E+02</pdfrwt>
<pdfrwt beam="2">  1       -2 0.12490308E-02 0.88578588E+02</pdfrwt>
<totfact> 0.17907716E+05</totfact>
</mgrwt>
</event>
<event>
 7    1  0.3337990E-009  0.9670450E+02  0.7818608E-02  0.1287383E+00
         -2   -1    0    0    0  501 -0.00000000000E+00  0.00000000000E+00  0.14962156496E+02  0.14962156713E+02  0.25500000000E-02 0.  1.
          2   -1    0    0  501    0  0.00000000000E+00 -0.00000000000E+00 -0.15625689058E+03  0.15625689060E+03  0.25500000000E-02 0. -1.
         23    2    1    2    0    0  0.17763568394E-14  0.00000000000E+00 -0.14129473408E+03  0.17121904731E+03  0.96704499808E+02 0.  0.
    9000005    2    3    3    0    0  0.12228514317E+02  0.88273211912E+01 -0.15167138366E+03  0.15291240868E+03  0.12269390567E+02 0.  0.
         22    1    3    3    0    0 -0.12228514317E+02 -0.88273211912E+01  0.10376649573E+02  0.18306638637E+02  0.00000000000E+00 0.  1.
         22    1    4    4    0    0  0.87341281565E+01  0.87377178263E+01 -0.64592392996E+02  0.65763287178E+02  0.00000000000E+00 0.  1.
         22    1    4    4    0    0  0.34943861608E+01  0.89603364857E-01 -0.87078990660E+02  0.87149121497E+02  0.00000000000E+00 0.  1.
<mgrwt>
<rscale>  0 0.96704500E+02</rscale>
<asrwt>0</asrwt>
<pdfrwt beam="2">  1        2 0.24039520E-01 0.96704500E+02</pdfrwt>
<pdfrwt beam="1">  1       -2 0.23018704E-02 0.96704500E+02</pdfrwt>
<totfact> 0.12078029E+05</totfact>
</mgrwt>
</event>
<event>
 7    1  0.3337990E-009  0.9300570E+02  0.7818608E-02  0.1295732E+00
          2   -1    0    0  501    0  0.00000000000E+00  0.00000000000E+00  0.43330978540E+03  0.43330978541E+03  0.25500000000E-02 0.  1.
         -2   -1    0    0    0  501 -0.00000000000E+00 -0.00000000000E+00 -0.49906905866E+01  0.49906912381E+01  0.25500000000E-02 0. -1.
         23    2    1    2    0    0  0.00000000000E+00 -0.71054273576E-14  0.42831909481E+03  0.43830047664E+03  0.93005703298E+02 0.  0.
    9000005    2    3    3    0    0 -0.91934209762E+01 -0.40986332276E+02  0.30515834914E+03  0.30817373958E+03  0.92215670271E+01 0.  0.
         22    1    3    3    0    0  0.91934209762E+01  0.40986332276E+02  0.12316074567E+03  0.13012673706E+03  0.00000000000E+00 0. -1.
         22    1    4    4    0    0 -0.26788339764E+01 -0.21745203063E+02  0.18735732758E+03  0.18863403247E+03  0.00000000000E+00 0.  1.
         22    1    4    4    0    0 -0.65145869997E+01 -0.19241129214E+02  0.11780102156E+03  0.11953970712E+03  0.00000000000E+00 0.  1.
<mgrwt>
<rscale>  0 0.93005703E+02</rscale>
<asrwt>0</asrwt>
<pdfrwt beam="1">  1        2 0.66663052E-01 0.93005703E+02</pdfrwt>
<pdfrwt beam="2">  1       -2 0.76779851E-03 0.93005703E+02</pdfrwt>
<totfact> 0.19479163E+05</totfact>
</mgrwt>
</event>
<event>
 7    1  0.3337990E-009  0.8998046E+02  0.7818608E-02  0.1302899E+00
          2   -1    0    0  501    0  0.00000000000E+00  0.00000000000E+00  0.23036903110E+02  0.23036903251E+02  0.25500000000E-02 0. -1.
         -2   -1    0    0    0  501 -0.00000000000E+00 -0.00000000000E+00 -0.87864267939E+02  0.87864267976E+02  0.25500000000E-02 0.  1.
         23    2    1    2    0    0 -0.88817841970E-15  0.00000000000E+00 -0.64827364829E+02  0.11090117123E+03  0.89980456483E+02 0.  0.
    9000005    2    3    3    0    0 -0.66007022855E+01  0.16134455126E+02  0.18442888780E+02  0.25825763212E+02  0.47895705540E+01 0.  0.
         22    1    3    3    0    0  0.66007022855E+01 -0.16134455126E+02 -0.83270253609E+02  0.85075408015E+02  0.00000000000E+00 0.  1.
         22    1    4    4    0    0 -0.14863877290E+01  0.35367654755E+01  0.73001697789E+01  0.82468501448E+01  0.00000000000E+00 0.  1.
         22    1    4    4    0    0 -0.51143145565E+01  0.12597689650E+02  0.11142719001E+02  0.17578913067E+02  0.00000000000E+00 0.  1.
<mgrwt>
<rscale>  0 0.89980456E+02</rscale>
<asrwt>0</asrwt>
<pdfrwt beam="1">  1        2 0.35441390E-02 0.89980456E+02</pdfrwt>
<pdfrwt beam="2">  1       -2 0.13517579E-01 0.89980456E+02</pdfrwt>
<totfact> 0.85618904E+04</totfact>
</mgrwt>
</event>
<event>
 7    1  0.3337990E-009  0.9129314E+02  0.7818608E-02  0.1299750E+00
          2   -1    0    0  501    0  0.00000000000E+00  0.00000000000E+00  0.14694611632E+03  0.14694611635E+03  0.25500000000E-02 0.  1.
         -2   -1    0    0    0  501 -0.00000000000E+00 -0.00000000000E+00 -0.14179409150E+02  0.14179409379E+02  0.25500000000E-02 0. -1.
         23    2    1    2    0    0  0.00000000000E+00  0.00000000000E+00  0.13276670717E+03  0.16112552572E+03  0.91293135046E+02 0.  0.
    9000005    2    3    3    0    0  0.15995351284E+02 -0.78073517569E+01  0.14056143942E+03  0.14169452331E+03  0.17359956498E+01 0.  0.
         22    1    3    3    0    0 -0.15995351284E+02  0.78073517569E+01 -0.77947322425E+01  0.19431002416E+02  0.00000000000E+00 0. -1.
         22    1    4    4    0    0  0.92183727880E+01 -0.39622053830E+01  0.73413619379E+02  0.74096133359E+02  0.00000000000E+00 0.  1.
         22    1    4    4    0    0  0.67769784964E+01 -0.38451463739E+01  0.67147820036E+02  0.67598389950E+02  0.00000000000E+00 0.  1.
<mgrwt>
<rscale>  0 0.91293135E+02</rscale>
<asrwt>0</asrwt>
<pdfrwt beam="1">  1        2 0.22607096E-01 0.91293135E+02</pdfrwt>
<pdfrwt beam="2">  1       -2 0.21814475E-02 0.91293135E+02</pdfrwt>
<totfact> 0.13835698E+05</totfact>
</mgrwt>
</event>
<event>
 7    1  0.3337990E-009  0.9051128E+02  0.7818608E-02  0.1301618E+00
         -2   -1    0    0    0  501 -0.00000000000E+00  0.00000000000E+00  0.11812416055E+02  0.11812416331E+02  0.25500000000E-02 0.  1.
          2   -1    0    0  501    0  0.00000000000E+00 -0.00000000000E+00 -0.17338306442E+03  0.17338306444E+03  0.25500000000E-02 0. -1.
         23    2    1    2    0    0  0.00000000000E+00 -0.17763568394E-14 -0.16157064837E+03  0.18519548077E+03  0.90511279323E+02 0.  0.
    9000005    2    3    3    0    0  0.38022084640E+02 -0.14670550423E+02 -0.47318799643E+02  0.63892599904E+02  0.13501538901E+02 0.  0.
         22    1    3    3    0    0 -0.38022084640E+02  0.14670550423E+02 -0.11425184873E+03  0.12130288087E+03  0.00000000000E+00 0. -1.
         22    1    4    4    0    0  0.36387081627E+02 -0.16217725496E+02 -0.40919832412E+02  0.57109255066E+02  0.00000000000E+00 0.  1.
         22    1    4    4    0    0  0.16350030134E+01  0.15471750731E+01 -0.63989672314E+01  0.67833448378E+01  0.00000000000E+00 0.  1.
<mgrwt>
<rscale>  0 0.90511279E+02</rscale>
<asrwt>0</asrwt>
<pdfrwt beam="2">  1        2 0.26674316E-01 0.90511279E+02</pdfrwt>
<pdfrwt beam="1">  1       -2 0.18172949E-02 0.90511279E+02</pdfrwt>
<totfact> 0.14992635E+05</totfact>
</mgrwt>
</event>
<event>
 7    1  0.3337990E-009  0.9734867E+02  0.7818608E-02  0.1285972E+00
          2   -1    0    0  501    0  0.00000000000E+00  0.00000000000E+00  0.30777321306E+02  0.30777321412E+02  0.25500000000E-02 0. -1.
         -2   -1    0    0    0  501 -0.00000000000E+00 -0.00000000000E+00 -0.76978466048E+02  0.76978466090E+02  0.25500000000E-02 0.  1.
         23    2    1    2    0    0 -0.22204460493E-15  0.00000000000E+00 -0.46201144742E+02  0.10775578750E+03  0.97348672126E+02 0.  0.
    9000005    2    3    3    0    0 -0.19997105773E+01  0.46522211440E+02 -0.35072285063E+02  0.59879211628E+02  0.13679905189E+02 0.  0.
         22    1    3    3    0    0  0.19997105773E+01 -0.46522211440E+02 -0.11128859679E+02  0.47876575874E+02  0.00000000000E+00 0. -1.
         22    1    4    4    0    0  0.31562198778E+01  0.16700333820E+02 -0.19419808854E+02  0.25806817889E+02  0.00000000000E+00 0. -1.
         22    1    4    4    0    0 -0.51559304551E+01  0.29821877620E+02 -0.15652476209E+02  0.34072393739E+02  0.00000000000E+00 0. -1.
<mgrwt>
<rscale>  0 0.97348672E+02</rscale>
<asrwt>0</asrwt>
<pdfrwt beam="1">  1        2 0.47349725E-02 0.97348672E+02</pdfrwt>
<pdfrwt beam="2">  1       -2 0.11842841E-01 0.97348672E+02</pdfrwt>
<totfact> 0.73240797E+04</totfact>
</mgrwt>
</event>
<event>
 7    1  0.3337990E-009  0.9332130E+02  0.7818608E-02  0.1295002E+00
          2   -1    0    0  501    0  0.00000000000E+00  0.00000000000E+00  0.28305225928E+03  0.28305225929E+03  0.25500000000E-02 0. -1.
         -2   -1    0    0    0  501 -0.00000000000E+00 -0.00000000000E+00 -0.76919227216E+01  0.76919231443E+01  0.25500000000E-02 0.  1.
         23    2    1    2    0    0 -0.71054273576E-14  0.00000000000E+00  0.27536033656E+03  0.29074418243E+03  0.93321298055E+02 0.  0.
    9000005    2    3    3    0    0 -0.43379524654E+02 -0.10434422507E+02  0.11299296847E+03  0.12235824907E+03  0.14610607852E+02 0.  0.
         22    1    3    3    0    0  0.43379524654E+02  0.10434422507E+02  0.16236736809E+03  0.16838593336E+03  0.00000000000E+00 0. -1.
         22    1    4    4    0    0 -0.84373767931E+01 -0.24841032272E+01  0.41082974557E+02  0.42013936907E+02  0.00000000000E+00 0.  1.
         22    1    4    4    0    0 -0.34942147861E+02 -0.79503192797E+01  0.71909993908E+02  0.80344312167E+02  0.00000000000E+00 0.  1.
<mgrwt>
<rscale>  0 0.93321298E+02</rscale>
<asrwt>0</asrwt>
<pdfrwt beam="1">  1        2 0.43546504E-01 0.93321298E+02</pdfrwt>
<pdfrwt beam="2">  1       -2 0.11833727E-02 0.93321298E+02</pdfrwt>
<totfact> 0.16520183E+05</totfact>
</mgrwt>
</event>
<event>
 7    1  0.3337990E-009  0.9848391E+02  0.7818608E-02  0.1283517E+00
         -2   -1    0    0    0  501 -0.00000000000E+00  0.00000000000E+00  0.74265952420E+02  0.74265952464E+02  0.25500000000E-02 0.  1.
          2   -1    0    0  501    0  0.00000000000E+00 -0.00000000000E+00 -0.32649824507E+02  0.32649824607E+02  0.25500000000E-02 0. -1.
         23    2    1    2    0    0 -0.17763568394E-14  0.00000000000E+00  0.41616127913E+02  0.10691577707E+03  0.98483913834E+02 0.  0.
    9000005    2    3    3    0    0  0.10067814601E+02 -0.39781322596E+02  0.48411116289E+02  0.65321469944E+02  0.15470738090E+02 0.  0.
         22    1    3    3    0    0 -0.10067814601E+02  0.39781322596E+02 -0.67949883760E+01  0.41594307126E+02  0.00000000000E+00 0. -1.
         22    1    4    4    0    0  0.38948155497E+01 -0.25235448755E+02  0.18630730195E+02  0.31608567978E+02  0.00000000000E+00 0. -1.
         22    1    4    4    0    0  0.61729990513E+01 -0.14545873841E+02  0.29780386094E+02  0.33712901966E+02  0.00000000000E+00 0. -1.
<mgrwt>
<rscale>  0 0.98483914E+02</rscale>
<asrwt>0</asrwt>
<pdfrwt beam="2">  1        2 0.50230500E-02 0.98483914E+02</pdfrwt>
<pdfrwt beam="1">  1       -2 0.11425531E-01 0.98483914E+02</pdfrwt>
<totfact> 0.71927875E+04</totfact>
</mgrwt>
</event>
<event>
 7    1  0.3337990E-009  0.8904432E+02  0.7818608E-02  0.1305183E+00
          2   -1    0    0  501    0  0.00000000000E+00  0.00000000000E+00  0.12552873163E+03  0.12552873166E+03  0.25500000000E-02 0. -1.
         -2   -1    0    0    0  501 -0.00000000000E+00 -0.00000000000E+00 -0.15790989204E+02  0.15790989410E+02  0.25500000000E-02 0.  1.
         23    2    1    2    0    0  0.00000000000E+00  0.00000000000E+00  0.10973774243E+03  0.14131972107E+03  0.89044322948E+02 0.  0.
    9000005    2    3    3    0    0 -0.10816993268E+02  0.35200640171E+02  0.94299600361E+02  0.10138942377E+03  0.55953741605E+01 0.  0.
         22    1    3    3    0    0  0.10816993268E+02 -0.35200640171E+02  0.15438142065E+02  0.39930297297E+02  0.00000000000E+00 0.  1.
         22    1    4    4    0    0 -0.97717890763E+00  0.10810096077E+02  0.30905022497E+02  0.32755663195E+02  0.00000000000E+00 0.  1.
         22    1    4    4    0    0 -0.98398143606E+01  0.24390544094E+02  0.63394577864E+02  0.68633760573E+02  0.00000000000E+00 0.  1.
<mgrwt>
<rscale>  0 0.89044323E+02</rscale>
<asrwt>0</asrwt>
<pdfrwt beam="1">  1        2 0.19312113E-01 0.89044323E+02</pdfrwt>
<pdfrwt beam="2">  1       -2 0.24293829E-02 0.89044323E+02</pdfrwt>
<totfact> 0.14053804E+05</totfact>
</mgrwt>
</event>
<event>
 7    1  0.3337990E-009  0.9084581E+02  0.7818608E-02  0.1300816E+00
          2   -1    0    0  501    0  0.00000000000E+00  0.00000000000E+00  0.66773095600E+02  0.66773095648E+02  0.25500000000E-02 0. -1.
         -2   -1    0    0    0  501 -0.00000000000E+00 -0.00000000000E+00 -0.30899274581E+02  0.30899274686E+02  0.25500000000E-02 0.  1.
         23    2    1    2    0    0  0.00000000000E+00  0.17763568394E-14  0.35873821019E+02  0.97672370334E+02  0.90845808336E+02 0.  0.
    9000005    2    3    3    0    0 -0.30339012502E+02  0.14777174564E+02  0.50507014300E+02  0.60889889269E+02  0.42189517569E+01 0.  0.
         22    1    3    3    0    0  0.30339012502E+02 -0.14777174564E+02 -0.14633193281E+02  0.36782481066E+02  0.00000000000E+00 0.  1.
         22    1    4    4    0    0 -0.29621621895E+02  0.14621535776E+02  0.50200783982E+02  0.60094496458E+02  0.00000000000E+00 0. -1.
         22    1    4    4    0    0 -0.71739060706E+00  0.15563878864E+00  0.30623031832E+00  0.79539281081E+00  0.00000000000E+00 0. -1.
<mgrwt>
<rscale>  0 0.90845808E+02</rscale>
<asrwt>0</asrwt>
<pdfrwt beam="1">  1        2 0.10272784E-01 0.90845808E+02</pdfrwt>
<pdfrwt beam="2">  1       -2 0.47537346E-02 0.90845808E+02</pdfrwt>
<totfact> 0.11030917E+05</totfact>
</mgrwt>
</event>
<event>
 7    1  0.3337990E-009  0.9271699E+02  0.7818608E-02  0.1296402E+00
         -2   -1    0    0    0  501 -0.00000000000E+00  0.00000000000E+00  0.15435185060E+02  0.15435185271E+02  0.25500000000E-02 0.  1.
          2   -1    0    0  501    0  0.00000000000E+00 -0.00000000000E+00 -0.13923447103E+03  0.13923447105E+03  0.25500000000E-02 0. -1.
         23    2    1    2    0    0  0.88817841970E-15  0.71054273576E-14 -0.12379928597E+03  0.15466965632E+03  0.92716985395E+02 0.  0.
    9000005    2    3    3    0    0  0.73300739228E+01  0.33360302449E+02 -0.11370965904E+03  0.11905448631E+03  0.88002493861E+01 0.  0.
         22    1    3    3    0    0 -0.73300739228E+01 -0.33360302449E+02 -0.10089626928E+02  0.35615170009E+02  0.00000000000E+00 0.  1.
         22    1    4    4    0    0  0.25149619897E+01  0.18859136933E+02 -0.76484688833E+02  0.78815605723E+02  0.00000000000E+00 0.  1.
         22    1    4    4    0    0  0.48151119332E+01  0.14501165517E+02 -0.37224970205E+02  0.40238880589E+02  0.00000000000E+00 0.  1.
<mgrwt>
<rscale>  0 0.92716985E+02</rscale>
<asrwt>0</asrwt>
<pdfrwt beam="2">  1        2 0.21420687E-01 0.92716985E+02</pdfrwt>
<pdfrwt beam="1">  1       -2 0.23746440E-02 0.92716985E+02</pdfrwt>
<totfact> 0.13025804E+05</totfact>
</mgrwt>
</event>
<event>
 7    1  0.3337990E-009  0.8872444E+02  0.7818608E-02  0.1305970E+00
         -2   -1    0    0    0  501 -0.00000000000E+00  0.00000000000E+00  0.21359989335E+03  0.21359989336E+03  0.25500000000E-02 0. -1.
          2   -1    0    0  501    0  0.00000000000E+00 -0.00000000000E+00 -0.92135191763E+01  0.92135195292E+01  0.25500000000E-02 0.  1.
         23    2    1    2    0    0  0.00000000000E+00 -0.35527136788E-14  0.20438637417E+03  0.22281341289E+03  0.88724444308E+02 0.  0.
    9000005    2    3    3    0    0  0.47041342169E+01 -0.25310730618E+02  0.19198867125E+03  0.19423956119E+03  0.14373422738E+02 0.  0.
         22    1    3    3    0    0 -0.47041342169E+01  0.25310730618E+02  0.12397702922E+02  0.28573851699E+02  0.00000000000E+00 0.  1.
         22    1    4    4    0    0  0.58760196200E+01 -0.25175174452E+02  0.14839889724E+03  0.15063382660E+03  0.00000000000E+00 0.  1.
         22    1    4    4    0    0 -0.11718854031E+01 -0.13555616626E+00  0.43589774013E+02  0.43605734593E+02  0.00000000000E+00 0.  1.
<mgrwt>
<rscale>  0 0.88724444E+02</rscale>
<asrwt>0</asrwt>
<pdfrwt beam="2">  1        2 0.14174646E-02 0.88724444E+02</pdfrwt>
<pdfrwt beam="1">  1       -2 0.32861519E-01 0.88724444E+02</pdfrwt>
<totfact> 0.64900218E+04</totfact>
</mgrwt>
</event>
<event>
 7    1  0.3337990E-009  0.9475204E+02  0.7818608E-02  0.1291736E+00
          2   -1    0    0  501    0  0.00000000000E+00  0.00000000000E+00  0.71995674231E+02  0.71995674276E+02  0.25500000000E-02 0. -1.
         -2   -1    0    0    0  501 -0.00000000000E+00 -0.00000000000E+00 -0.31175309298E+02  0.31175309402E+02  0.25500000000E-02 0.  1.
         23    2    1    2    0    0  0.00000000000E+00  0.00000000000E+00  0.40820364933E+02  0.10317098368E+03  0.94752043144E+02 0.  0.
    9000005    2    3    3    0    0  0.76210183839E+00 -0.46145686311E+02  0.15345029119E+02  0.50454782193E+02  0.13424230450E+02 0.  0.
         22    1    3    3    0    0 -0.76210183839E+00  0.46145686311E+02  0.25475335814E+02  0.52716201486E+02  0.00000000000E+00 0.  1.
         22    1    4    4    0    0  0.39311615985E+00 -0.31504981261E+02  0.16853821280E+02  0.35731913975E+02  0.00000000000E+00 0. -1.
         22    1    4    4    0    0  0.36898567853E+00 -0.14640705049E+02 -0.15087921610E+01  0.14722868218E+02  0.00000000000E+00 0. -1.
<mgrwt>
<rscale>  0 0.94752043E+02</rscale>
<asrwt>0</asrwt>
<pdfrwt beam="1">  1        2 0.11076257E-01 0.94752043E+02</pdfrwt>
<pdfrwt beam="2">  1       -2 0.47962015E-02 0.94752043E+02</pdfrwt>
<totfact> 0.10008447E+05</totfact>
</mgrwt>
</event>
<event>
 7    1  0.3337990E-009  0.9161300E+02  0.7818608E-02  0.1298992E+00
         -2   -1    0    0    0  501 -0.00000000000E+00  0.00000000000E+00  0.17881524164E+02  0.17881524346E+02  0.25500000000E-02 0.  1.
          2   -1    0    0  501    0  0.00000000000E+00 -0.00000000000E+00 -0.11734096082E+03  0.11734096085E+03  0.25500000000E-02 0. -1.
         23    2    1    2    0    0  0.00000000000E+00  0.00000000000E+00 -0.99459436656E+02  0.13522248519E+03  0.91612995595E+02 0.  0.
    9000005    2    3    3    0    0 -0.37486110602E+02  0.78476012817E+01 -0.13294356116E+02  0.40929248753E+02  0.56276251600E+01 0.  0.
         22    1    3    3    0    0  0.37486110602E+02 -0.78476012817E+01 -0.86165080540E+02  0.94293236440E+02  0.00000000000E+00 0. -1.
         22    1    4    4    0    0 -0.26316416754E+02  0.81083288184E+01 -0.94340303723E+01  0.29108413149E+02  0.00000000000E+00 0. -1.
         22    1    4    4    0    0 -0.11169693849E+02 -0.26072753670E+00 -0.38603257437E+01  0.11820835604E+02  0.00000000000E+00 0. -1.
<mgrwt>
<rscale>  0 0.91612996E+02</rscale>
<asrwt>0</asrwt>
<pdfrwt beam="2">  1        2 0.18052455E-01 0.91612996E+02</pdfrwt>
<pdfrwt beam="1">  1       -2 0.27510038E-02 0.91612996E+02</pdfrwt>
<totfact> 0.12726379E+05</totfact>
</mgrwt>
</event>
<event>
 7    1  0.3337990E-009  0.9202062E+02  0.7818608E-02  0.1298031E+00
         -2   -1    0    0    0  501 -0.00000000000E+00  0.00000000000E+00  0.15432760257E+03  0.15432760259E+03  0.25500000000E-02 0.  1.
          2   -1    0    0  501    0  0.00000000000E+00 -0.00000000000E+00 -0.13717238455E+02  0.13717238692E+02  0.25500000000E-02 0. -1.
         23    2    1    2    0    0  0.35527136788E-14  0.00000000000E+00  0.14061036411E+03  0.16804484128E+03  0.92020618263E+02 0.  0.
    9000005    2    3    3    0    0 -0.21516624908E+02  0.13063049870E+02  0.37547815154E+01  0.28893632493E+02  0.13679736659E+02 0.  0.
         22    1    3    3    0    0  0.21516624908E+02 -0.13063049870E+02  0.13685558260E+03  0.13915120879E+03  0.00000000000E+00 0.  1.
         22    1    4    4    0    0  0.39370570998E+00  0.49070365642E+01 -0.10312449642E+01  0.50296598497E+01  0.00000000000E+00 0.  1.
         22    1    4    4    0    0 -0.21910330618E+02  0.81560133055E+01  0.47860264796E+01  0.23863972643E+02  0.00000000000E+00 0.  1.
<mgrwt>
<rscale>  0 0.92020618E+02</rscale>
<asrwt>0</asrwt>
<pdfrwt beam="2">  1        2 0.21103444E-02 0.92020618E+02</pdfrwt>
<pdfrwt beam="1">  1       -2 0.23742708E-01 0.92020618E+02</pdfrwt>
<totfact> 0.67534568E+04</totfact>
</mgrwt>
</event>
<event>
 7    1  0.3337990E-009  0.9108012E+02  0.7818608E-02  0.1300257E+00
         -2   -1    0    0    0  501 -0.00000000000E+00  0.00000000000E+00  0.20809105031E+02  0.20809105187E+02  0.25500000000E-02 0.  1.
          2   -1    0    0  501    0  0.00000000000E+00 -0.00000000000E+00 -0.99662970727E+02  0.99662970760E+02  0.25500000000E-02 0. -1.
         23    2    1    2    0    0  0.00000000000E+00  0.00000000000E+00 -0.78853865696E+02  0.12047207595E+03  0.91080123780E+02 0.  0.
    9000005    2    3    3    0    0  0.37932694580E+02  0.16460027929E+02 -0.17167461049E+02  0.46208798644E+02  0.11432826233E+02 0.  0.
         22    1    3    3    0    0 -0.37932694580E+02 -0.16460027929E+02 -0.61686404646E+02  0.74263277303E+02  0.00000000000E+00 0. -1.
         22    1    4    4    0    0  0.28754103634E+02  0.17293973830E+02 -0.14923463992E+02  0.36723150521E+02  0.00000000000E+00 0.  1.
         22    1    4    4    0    0  0.91785909464E+01 -0.83394590097E+00 -0.22439970570E+01  0.94856481233E+01  0.00000000000E+00 0.  1.
<mgrwt>
<rscale>  0 0.91080124E+02</rscale>
<asrwt>0</asrwt>
<pdfrwt beam="2">  1        2 0.15332765E-01 0.91080124E+02</pdfrwt>
<pdfrwt beam="1">  1       -2 0.32014008E-02 0.91080124E+02</pdfrwt>
<totfact> 0.12290915E+05</totfact>
</mgrwt>
</event>
<event>
 7    1  0.3337990E-009  0.9066970E+02  0.7818608E-02  0.1301238E+00
          2   -1    0    0  501    0  0.00000000000E+00  0.00000000000E+00  0.25618172259E+03  0.25618172260E+03  0.25500000000E-02 0.  1.
         -2   -1    0    0    0  501 -0.00000000000E+00 -0.00000000000E+00 -0.80226207011E+01  0.80226211063E+01  0.25500000000E-02 0. -1.
         23    2    1    2    0    0  0.00000000000E+00  0.00000000000E+00  0.24815910189E+03  0.26420434371E+03  0.90669704888E+02 0.  0.
    9000005    2    3    3    0    0  0.46533138141E+01  0.11946967430E+02  0.25078277806E+03  0.25111744045E+03  0.18930850857E+01 0.  0.
         22    1    3    3    0    0 -0.46533138141E+01 -0.11946967430E+02 -0.26236761643E+01  0.13086903256E+02  0.00000000000E+00 0. -1.
         22    1    4    4    0    0  0.32689493210E+01  0.66123409501E+01  0.15647018267E+03  0.15664395024E+03  0.00000000000E+00 0. -1.
         22    1    4    4    0    0  0.13843644931E+01  0.53346264800E+01  0.94312595384E+02  0.94473490212E+02  0.00000000000E+00 0. -1.
<mgrwt>
<rscale>  0 0.90669705E+02</rscale>
<asrwt>0</asrwt>
<pdfrwt beam="1">  1        2 0.39412575E-01 0.90669705E+02</pdfrwt>
<pdfrwt beam="2">  1       -2 0.12342493E-02 0.90669705E+02</pdfrwt>
<totfact> 0.17193186E+05</totfact>
</mgrwt>
</event>
<event>
 7    1  0.3337990E-009  0.9097650E+02  0.7818608E-02  0.1300504E+00
         -2   -1    0    0    0  501 -0.00000000000E+00  0.00000000000E+00  0.29938507901E+02  0.29938508010E+02  0.25500000000E-02 0.  1.
          2   -1    0    0  501    0  0.00000000000E+00 -0.00000000000E+00 -0.69114359078E+02  0.69114359125E+02  0.25500000000E-02 0. -1.
         23    2    1    2    0    0  0.00000000000E+00  0.00000000000E+00 -0.39175851177E+02  0.99052867135E+02  0.90976497911E+02 0.  0.
    9000005    2    3    3    0    0 -0.14067246888E+02 -0.40269669236E+02 -0.25244290583E+01  0.42813553139E+02  0.26634366864E+01 0.  0.
         22    1    3    3    0    0  0.14067246888E+02  0.40269669236E+02 -0.36651422119E+02  0.56239313996E+02  0.00000000000E+00 0. -1.
         22    1    4    4    0    0 -0.13634863095E+02 -0.39609898792E+02 -0.21655102469E+01  0.41946907020E+02  0.00000000000E+00 0. -1.
         22    1    4    4    0    0 -0.43238379262E+00 -0.65977044411E+00 -0.35891881145E+00  0.86664611939E+00  0.00000000000E+00 0. -1.
<mgrwt>
<rscale>  0 0.90976498E+02</rscale>
<asrwt>0</asrwt>
<pdfrwt beam="2">  1        2 0.10632978E-01 0.90976498E+02</pdfrwt>
<pdfrwt beam="1">  1       -2 0.46059243E-02 0.90976498E+02</pdfrwt>
<totfact> 0.11091163E+05</totfact>
</mgrwt>
</event>
<event>
 7    1  0.3337990E-009  0.9095079E+02  0.7818608E-02  0.1300565E+00
          2   -1    0    0  501    0  0.00000000000E+00  0.00000000000E+00  0.80135843280E+02  0.80135843321E+02  0.25500000000E-02 0. -1.
         -2   -1    0    0    0  501 -0.00000000000E+00 -0.00000000000E+00 -0.25806326575E+02  0.25806326701E+02  0.25500000000E-02 0.  1.
         23    2    1    2    0    0  0.00000000000E+00  0.00000000000E+00  0.54329516705E+02  0.10594217002E+03  0.90950794408E+02 0.  0.
    9000005    2    3    3    0    0  0.19333031019E+02  0.35847221116E+02  0.49022481686E+02  0.64869624802E+02  0.12086155765E+02 0.  0.
         22    1    3    3    0    0 -0.19333031019E+02 -0.35847221116E+02  0.53070350193E+01  0.41072545220E+02  0.00000000000E+00 0. -1.
         22    1    4    4    0    0  0.14252583614E+02  0.16362388022E+02  0.31039001935E+02  0.37871935817E+02  0.00000000000E+00 0.  1.
         22    1    4    4    0    0  0.50804474052E+01  0.19484833094E+02  0.17983479751E+02  0.26997688985E+02  0.00000000000E+00 0.  1.
<mgrwt>
<rscale>  0 0.90950794E+02</rscale>
<asrwt>0</asrwt>
<pdfrwt beam="1">  1        2 0.12328591E-01 0.90950794E+02</pdfrwt>
<pdfrwt beam="2">  1       -2 0.39702041E-02 0.90950794E+02</pdfrwt>
<totfact> 0.11570697E+05</totfact>
</mgrwt>
</event>
<event>
 7    1  0.3337990E-009  0.9113455E+02  0.7818608E-02  0.1300127E+00
          2   -1    0    0  501    0  0.00000000000E+00  0.00000000000E+00  0.45650415650E+03  0.45650415651E+03  0.25500000000E-02 0. -1.
         -2   -1    0    0    0  501 -0.00000000000E+00 -0.00000000000E+00 -0.45484279739E+01  0.45484286887E+01  0.25500000000E-02 0.  1.
         23    2    1    2    0    0  0.00000000000E+00  0.00000000000E+00  0.45195572853E+03  0.46105258519E+03  0.91134547611E+02 0.  0.
    9000005    2    3    3    0    0 -0.38388415989E+02 -0.22874248498E+02  0.18494171362E+03  0.19032507296E+03  0.48264099543E+01 0.  0.
         22    1    3    3    0    0  0.38388415989E+02  0.22874248498E+02  0.26701401490E+03  0.27072751224E+03  0.00000000000E+00 0.  1.
         22    1    4    4    0    0 -0.38544086465E+01 -0.83103499736E+00  0.18453101466E+02  0.18869659215E+02  0.00000000000E+00 0.  1.
         22    1    4    4    0    0 -0.34534007343E+02 -0.22043213501E+02  0.16648861215E+03  0.17145541374E+03  0.00000000000E+00 0.  1.
<mgrwt>
<rscale>  0 0.91134548E+02</rscale>
<asrwt>0</asrwt>
<pdfrwt beam="1">  1        2 0.70231416E-01 0.91134548E+02</pdfrwt>
<pdfrwt beam="2">  1       -2 0.69975814E-03 0.91134548E+02</pdfrwt>
<totfact> 0.20932000E+05</totfact>
</mgrwt>
</event>
<event>
 7    1  0.3337990E-009  0.9103055E+02  0.7818608E-02  0.1300375E+00
          2   -1    0    0  501    0  0.00000000000E+00  0.00000000000E+00  0.57248610592E+02  0.57248610649E+02  0.25500000000E-02 0. -1.
         -2   -1    0    0    0  501 -0.00000000000E+00 -0.00000000000E+00 -0.36186737045E+02  0.36186737135E+02  0.25500000000E-02 0.  1.
         23    2    1    2    0    0 -0.35527136788E-14  0.35527136788E-14  0.21061873547E+02  0.93435347783E+02  0.91030553651E+02 0.  0.
    9000005    2    3    3    0    0  0.20380945014E+02 -0.26970696134E+02  0.41702251582E+02  0.53826932326E+02  0.39318554165E+01 0.  0.
         22    1    3    3    0    0 -0.20380945014E+02  0.26970696134E+02 -0.20640378035E+02  0.39608415457E+02  0.00000000000E+00 0.  1.
         22    1    4    4    0    0  0.17328873369E+02 -0.23484984448E+02  0.33713009112E+02  0.44591493921E+02  0.00000000000E+00 0.  1.
         22    1    4    4    0    0  0.30520716455E+01 -0.34857116862E+01  0.79892424694E+01  0.92354384045E+01  0.00000000000E+00 0.  1.
<mgrwt>
<rscale>  0 0.91030554E+02</rscale>
<asrwt>0</asrwt>
<pdfrwt beam="1">  1        2 0.88074785E-02 0.91030554E+02</pdfrwt>
<pdfrwt beam="2">  1       -2 0.55671903E-02 0.91030554E+02</pdfrwt>
<totfact> 0.10522461E+05</totfact>
</mgrwt>
</event>
<event>
 7    1  0.3337990E-009  0.9259821E+02  0.7818608E-02  0.1296679E+00
         -2   -1    0    0    0  501 -0.00000000000E+00  0.00000000000E+00  0.14857784923E+02  0.14857785142E+02  0.25500000000E-02 0.  1.
          2   -1    0    0  501    0  0.00000000000E+00 -0.00000000000E+00 -0.14427500653E+03  0.14427500655E+03  0.25500000000E-02 0. -1.
         23    2    1    2    0    0  0.00000000000E+00  0.00000000000E+00 -0.12941722160E+03  0.15913279169E+03  0.92598208102E+02 0.  0.
    9000005    2    3    3    0    0 -0.28095301583E+02 -0.19709188639E+02 -0.13417755619E+02  0.38163067394E+02  0.99290210576E+01 0.  0.
         22    1    3    3    0    0  0.28095301583E+02  0.19709188639E+02 -0.11599946598E+03  0.12096972430E+03  0.00000000000E+00 0. -1.
         22    1    4    4    0    0 -0.30045575316E+01 -0.30580531945E+00  0.11858617084E+01  0.32445571108E+01  0.00000000000E+00 0.  1.
         22    1    4    4    0    0 -0.25090744052E+02 -0.19403383320E+02 -0.14603617327E+02  0.34918510283E+02  0.00000000000E+00 0.  1.
<mgrwt>
<rscale>  0 0.92598208E+02</rscale>
<asrwt>0</asrwt>
<pdfrwt beam="2">  1        2 0.22196154E-01 0.92598208E+02</pdfrwt>
<pdfrwt beam="1">  1       -2 0.22858132E-02 0.92598208E+02</pdfrwt>
<totfact> 0.13228959E+05</totfact>
</mgrwt>
</event>
<event>
 7    1  0.3337990E-009  0.9112135E+02  0.7818608E-02  0.1300159E+00
          2   -1    0    0  501    0  0.00000000000E+00  0.00000000000E+00  0.53637333015E+03  0.53637333016E+03  0.25500000000E-02 0. -1.
         -2   -1    0    0    0  501 -0.00000000000E+00 -0.00000000000E+00 -0.38700184604E+01  0.38700193005E+01  0.25500000000E-02 0.  1.
         23    2    1    2    0    0  0.00000000000E+00  0.00000000000E+00  0.53250331169E+03  0.54024334946E+03  0.91121345862E+02 0.  0.
    9000005    2    3    3    0    0  0.16400331880E+02  0.38197666488E+02  0.36519345782E+03  0.36784665630E+03  0.14726449078E+02 0.  0.
         22    1    3    3    0    0 -0.16400331880E+02 -0.38197666488E+02  0.16730985387E+03  0.17239669316E+03  0.00000000000E+00 0.  1.
         22    1    4    4    0    0  0.17577034069E+02  0.38849258494E+02  0.34846283779E+03  0.35106205482E+03  0.00000000000E+00 0.  1.
         22    1    4    4    0    0 -0.11767021894E+01 -0.65159200549E+00  0.16730620034E+02  0.16784601482E+02  0.00000000000E+00 0.  1.
<mgrwt>
<rscale>  0 0.91121346E+02</rscale>
<asrwt>0</asrwt>
<pdfrwt beam="1">  1        2 0.82518941E-01 0.91121346E+02</pdfrwt>
<pdfrwt beam="2">  1       -2 0.59538776E-03 0.91121346E+02</pdfrwt>
<totfact> 0.22071788E+05</totfact>
</mgrwt>
</event>
<event>
 7    1  0.3337990E-009  0.9225576E+02  0.7818608E-02  0.1297479E+00
         -2   -1    0    0    0  501 -0.00000000000E+00  0.00000000000E+00  0.93394512078E+02  0.93394512113E+02  0.25500000000E-02 0.  1.
          2   -1    0    0  501    0  0.00000000000E+00 -0.00000000000E+00 -0.22782725340E+02  0.22782725483E+02  0.25500000000E-02 0. -1.
         23    2    1    2    0    0  0.71054273576E-14  0.00000000000E+00  0.70611786738E+02  0.11617723760E+03  0.92255764639E+02 0.  0.
    9000005    2    3    3    0    0  0.45094778633E+02 -0.42036946157E+01  0.32520932711E+02  0.56998497589E+02  0.11832478800E+02 0.  0.
         22    1    3    3    0    0 -0.45094778633E+02  0.42036946157E+01  0.38090854027E+02  0.59178740007E+02  0.00000000000E+00 0. -1.
         22    1    4    4    0    0  0.42588022776E+02 -0.57454007880E+01  0.32773314971E+02  0.54044791500E+02  0.00000000000E+00 0. -1.
         22    1    4    4    0    0  0.25067558576E+01  0.15417061723E+01 -0.25238225926E+00  0.29537060883E+01  0.00000000000E+00 0. -1.
<mgrwt>
<rscale>  0 0.92255765E+02</rscale>
<asrwt>0</asrwt>
<pdfrwt beam="2">  1        2 0.35050347E-02 0.92255765E+02</pdfrwt>
<pdfrwt beam="1">  1       -2 0.14368387E-01 0.92255765E+02</pdfrwt>
<totfact> 0.79086063E+04</totfact>
</mgrwt>
</event>
<event>
 7    1  0.3337990E-009  0.8971520E+02  0.7818608E-02  0.1303543E+00
         -2   -1    0    0    0  501 -0.00000000000E+00  0.00000000000E+00  0.66730483547E+02  0.66730483596E+02  0.25500000000E-02 0. -1.
          2   -1    0    0  501    0  0.00000000000E+00 -0.00000000000E+00 -0.30154196283E+02  0.30154196391E+02  0.25500000000E-02 0.  1.
         23    2    1    2    0    0 -0.55511151231E-16  0.00000000000E+00  0.36576287264E+02  0.96884679987E+02  0.89715196183E+02 0.  0.
    9000005    2    3    3    0    0 -0.18711784549E+00  0.23004056351E+02  0.59732414951E+02  0.64243787365E+02  0.54846328419E+01 0.  0.
         22    1    3    3    0    0  0.18711784549E+00 -0.23004056351E+02 -0.23156127687E+02  0.32640892622E+02  0.00000000000E+00 0.  1.
         22    1    4    4    0    0  0.62591343907E+00  0.14454648144E+02  0.44031799209E+02  0.46347901378E+02  0.00000000000E+00 0.  1.
         22    1    4    4    0    0 -0.81303128455E+00  0.85494082073E+01  0.15700615742E+02  0.17895885987E+02  0.00000000000E+00 0.  1.
<mgrwt>
<rscale>  0 0.89715196E+02</rscale>
<asrwt>0</asrwt>
<pdfrwt beam="2">  1        2 0.46391072E-02 0.89715196E+02</pdfrwt>
<pdfrwt beam="1">  1       -2 0.10266228E-01 0.89715196E+02</pdfrwt>
<totfact> 0.92925054E+04</totfact>
</mgrwt>
</event>
<event>
 7    1  0.3337990E-009  0.9133728E+02  0.7818608E-02  0.1299645E+00
         -2   -1    0    0    0  501 -0.00000000000E+00  0.00000000000E+00  0.12434647913E+03  0.12434647916E+03  0.25500000000E-02 0.  1.
          2   -1    0    0  501    0  0.00000000000E+00 -0.00000000000E+00 -0.16772688059E+02  0.16772688253E+02  0.25500000000E-02 0. -1.
         23    2    1    2    0    0  0.00000000000E+00  0.00000000000E+00  0.10757379107E+03  0.14111916741E+03  0.91337280916E+02 0.  0.
    9000005    2    3    3    0    0  0.36080313740E+02 -0.61613616638E+01  0.13741244627E+02  0.40400260598E+02  0.10178793414E+02 0.  0.
         22    1    3    3    0    0 -0.36080313740E+02  0.61613616638E+01  0.93832546448E+02  0.10071890682E+03  0.00000000000E+00 0.  1.
         22    1    4    4    0    0  0.28940655947E+02 -0.82411386691E+01  0.83910063608E+01  0.31239188866E+02  0.00000000000E+00 0. -1.
         22    1    4    4    0    0  0.71396577925E+01  0.20797770053E+01  0.53502382658E+01  0.91610717324E+01  0.00000000000E+00 0. -1.
<mgrwt>
<rscale>  0 0.91337281E+02</rscale>
<asrwt>0</asrwt>
<pdfrwt beam="2">  1        2 0.25804135E-02 0.91337281E+02</pdfrwt>
<pdfrwt beam="1">  1       -2 0.19130228E-01 0.91337281E+02</pdfrwt>
<totfact> 0.74216291E+04</totfact>
</mgrwt>
</event>
<event>
 7    1  0.3337990E-009  0.8824839E+02  0.7818608E-02  0.1307150E+00
          2   -1    0    0  501    0  0.00000000000E+00  0.00000000000E+00  0.16056367420E+04  0.16056367420E+04  0.25500000000E-02 0. -1.
         -2   -1    0    0    0  501 -0.00000000000E+00 -0.00000000000E+00 -0.12125672371E+01  0.12125699184E+01  0.25500000000E-02 0.  1.
         23    2    1    2    0    0  0.00000000000E+00  0.00000000000E+00  0.16044241748E+04  0.16068493120E+04  0.88248391804E+02 0.  0.
    9000005    2    3    3    0    0  0.55071698412E+01 -0.24749250435E+02  0.14595514247E+04  0.14597746097E+04  0.29488172031E+01 0.  0.
         22    1    3    3    0    0 -0.55071698412E+01  0.24749250435E+02  0.14487275011E+03  0.14707470224E+03  0.00000000000E+00 0.  1.
         22    1    4    4    0    0  0.22413307338E+01 -0.96058293491E+01  0.65199061473E+03  0.65206522466E+03  0.00000000000E+00 0. -1.
         22    1    4    4    0    0  0.32658391075E+01 -0.15143421086E+02  0.80756080998E+03  0.80770938506E+03  0.00000000000E+00 0. -1.
<mgrwt>
<rscale>  0 0.88248392E+02</rscale>
<asrwt>0</asrwt>
<pdfrwt beam="1">  1        2 0.24702264E+00 0.88248392E+02</pdfrwt>
<pdfrwt beam="2">  1       -2 0.18654780E-03 0.88248392E+02</pdfrwt>
<totfact> 0.24972675E+05</totfact>
</mgrwt>
</event>
<event>
 7    1  0.3337990E-009  0.1188044E+03  0.7818608E-02  0.1245083E+00
          2   -1    0    0  501    0  0.00000000000E+00  0.00000000000E+00  0.56674310735E+03  0.56674310736E+03  0.25500000000E-02 0. -1.
         -2   -1    0    0    0  501 -0.00000000000E+00 -0.00000000000E+00 -0.62261387211E+01  0.62261392433E+01  0.25500000000E-02 0.  1.
         23    2    1    2    0    0  0.00000000000E+00  0.00000000000E+00  0.56051696863E+03  0.57296924660E+03  0.11880439987E+03 0.  0.
    9000005    2    3    3    0    0 -0.44293640056E+02  0.36233308631E+02  0.34379358047E+03  0.34881794462E+03  0.14323173985E+02 0.  0.
         22    1    3    3    0    0  0.44293640056E+02 -0.36233308631E+02  0.21672338816E+03  0.22415130198E+03  0.00000000000E+00 0. -1.
         22    1    4    4    0    0 -0.21390629596E+02  0.11370175104E+02  0.11348566407E+03  0.11604238823E+03  0.00000000000E+00 0.  1.
         22    1    4    4    0    0 -0.22903010460E+02  0.24863133527E+02  0.23030791640E+03  0.23277555639E+03  0.00000000000E+00 0.  1.
<mgrwt>
<rscale>  0 0.11880440E+03</rscale>
<asrwt>0</asrwt>
<pdfrwt beam="1">  1        2 0.87191269E-01 0.11880440E+03</pdfrwt>
<pdfrwt beam="2">  1       -2 0.95786730E-03 0.11880440E+03</pdfrwt>
<totfact> 0.11026832E+05</totfact>
</mgrwt>
</event>
<event>
 6    1  0.3337990E-009  0.1299185E+03  0.7818608E-02  0.1227577E+00
         -2   -1    0    0    0  501 -0.00000000000E+00  0.00000000000E+00  0.24380610113E+01  0.24380623448E+01  0.25500000000E-02 0.  1.
          2   -1    0    0  501    0  0.00000000000E+00 -0.00000000000E+00 -0.17307625549E+04  0.17307625549E+04  0.25500000000E-02 0. -1.
    9000005    2    1    2    0    0 -0.10447467810E+02  0.42997484836E+02 -0.14956209796E+04  0.14963275313E+04  0.12491317241E+02 0.  0.
         22    1    1    2    0    0  0.10447467810E+02 -0.42997484836E+02 -0.23270351429E+03  0.23687308595E+03  0.00000000000E+00 0.  1.
         22    1    3    3    0    0 -0.59762974573E+01  0.10672748616E+02 -0.27738680817E+03  0.27765637943E+03  0.00000000000E+00 0.  1.
         22    1    3    3    0    0 -0.44711703522E+01  0.32324736220E+02 -0.12182341714E+04  0.12186711518E+04  0.00000000000E+00 0.  1.
<mgrwt>
<rscale>  0 0.12991853E+03</rscale>
<asrwt>0</asrwt>
<pdfrwt beam="2">  1        2 0.26627018E+00 0.12991853E+03</pdfrwt>
<pdfrwt beam="1">  1       -2 0.37508780E-03 0.12991853E+03</pdfrwt>
<totfact> 0.85057238E+04</totfact>
</mgrwt>
</event>
<event>
 7    1  0.3337990E-009  0.9101406E+02  0.7818608E-02  0.1300414E+00
         -2   -1    0    0    0  501 -0.00000000000E+00  0.00000000000E+00  0.21440552245E+03  0.21440552247E+03  0.25500000000E-02 0.  1.
          2   -1    0    0  501    0  0.00000000000E+00 -0.00000000000E+00 -0.96587516729E+01  0.96587520096E+01  0.25500000000E-02 0. -1.
         23    2    1    2    0    0  0.00000000000E+00  0.35527136788E-14  0.20474677078E+03  0.22406427448E+03  0.91014059092E+02 0.  0.
    9000005    2    3    3    0    0  0.11031934098E+02 -0.28843205923E+02  0.18329461303E+03  0.18646335468E+03  0.14765953154E+02 0.  0.
         22    1    3    3    0    0 -0.11031934098E+02  0.28843205923E+02  0.21452157746E+02  0.37600919800E+02  0.00000000000E+00 0. -1.
         22    1    4    4    0    0  0.26171723656E+01 -0.10809138892E+02  0.32258279153E+02  0.34121600910E+02  0.00000000000E+00 0. -1.
         22    1    4    4    0    0  0.84147617324E+01 -0.18034067030E+02  0.15103633388E+03  0.15234175377E+03  0.00000000000E+00 0. -1.
<mgrwt>
<rscale>  0 0.91014059E+02</rscale>
<asrwt>0</asrwt>
<pdfrwt beam="2">  1        2 0.14859621E-02 0.91014059E+02</pdfrwt>
<pdfrwt beam="1">  1       -2 0.32985459E-01 0.91014059E+02</pdfrwt>
<totfact> 0.60707404E+04</totfact>
</mgrwt>
</event>
<event>
 7    1  0.3337990E-009  0.9224689E+02  0.7818608E-02  0.1297500E+00
         -2   -1    0    0    0  501 -0.00000000000E+00  0.00000000000E+00  0.13505695377E+03  0.13505695380E+03  0.25500000000E-02 0.  1.
          2   -1    0    0  501    0  0.00000000000E+00 -0.00000000000E+00 -0.15751668702E+02  0.15751668909E+02  0.25500000000E-02 0. -1.
         23    2    1    2    0    0  0.71054273576E-14  0.00000000000E+00  0.11930528507E+03  0.15080862271E+03  0.92246894997E+02 0.  0.
    9000005    2    3    3    0    0  0.40276674785E+02 -0.21615049307E+02  0.59084855947E+02  0.75204912664E+02  0.86797349126E+01 0.  0.
         22    1    3    3    0    0 -0.40276674785E+02  0.21615049307E+02  0.60220429122E+02  0.75603710041E+02  0.00000000000E+00 0. -1.
         22    1    4    4    0    0  0.33113437545E+02 -0.14407315822E+02  0.42678222641E+02  0.55906181975E+02  0.00000000000E+00 0. -1.
         22    1    4    4    0    0  0.71632372408E+01 -0.72077334849E+01  0.16406633306E+02  0.19298730689E+02  0.00000000000E+00 0. -1.
<mgrwt>
<rscale>  0 0.92246895E+02</rscale>
<asrwt>0</asrwt>
<pdfrwt beam="2">  1        2 0.24233337E-02 0.92246895E+02</pdfrwt>
<pdfrwt beam="1">  1       -2 0.20777992E-01 0.92246895E+02</pdfrwt>
<totfact> 0.70395055E+04</totfact>
</mgrwt>
</event>
<event>
 7    1  0.3337990E-009  0.9248772E+02  0.7818608E-02  0.1296937E+00
          2   -1    0    0  501    0  0.00000000000E+00  0.00000000000E+00  0.10467228941E+02  0.10467229251E+02  0.25500000000E-02 0. -1.
         -2   -1    0    0    0  501 -0.00000000000E+00 -0.00000000000E+00 -0.20430378313E+03  0.20430378315E+03  0.25500000000E-02 0.  1.
         23    2    1    2    0    0  0.00000000000E+00 -0.71054273576E-14 -0.19383655419E+03  0.21477101240E+03  0.92487718246E+02 0.  0.
    9000005    2    3    3    0    0 -0.27404649507E+02 -0.29845698753E+02 -0.50334923636E+02  0.65658643628E+02  0.11647849453E+02 0.  0.
         22    1    3    3    0    0  0.27404649507E+02  0.29845698753E+02 -0.14350163056E+03  0.14911236877E+03  0.00000000000E+00 0.  1.
         22    1    4    4    0    0 -0.20832284916E+02 -0.17530966805E+02 -0.26246160188E+02  0.37817718288E+02  0.00000000000E+00 0.  1.
         22    1    4    4    0    0 -0.65723645913E+01 -0.12314731949E+02 -0.24088763448E+02  0.27840925339E+02  0.00000000000E+00 0.  1.
<mgrwt>
<rscale>  0 0.92487718E+02</rscale>
<asrwt>0</asrwt>
<pdfrwt beam="1">  1        2 0.16103431E-02 0.92487718E+02</pdfrwt>
<pdfrwt beam="2">  1       -2 0.31431348E-01 0.92487718E+02</pdfrwt>
<totfact> 0.59529885E+04</totfact>
</mgrwt>
</event>
<event>
 7    1  0.3337990E-009  0.9026498E+02  0.7818608E-02  0.1302211E+00
          2   -1    0    0  501    0  0.00000000000E+00  0.00000000000E+00  0.23151764323E+04  0.23151764324E+04  0.25500000000E-02 0. -1.
         -2   -1    0    0    0  501 -0.00000000000E+00 -0.00000000000E+00 -0.87981944762E+00  0.87982314297E+00  0.25500000000E-02 0.  1.
         23    2    1    2    0    0  0.00000000000E+00  0.00000000000E+00  0.23142966129E+04  0.23160562555E+04  0.90264977279E+02 0.  0.
    9000005    2    3    3    0    0  0.18783997564E+02 -0.50940706417E+01  0.22006898235E+04  0.22007944200E+04  0.90328171709E+01 0.  0.
         22    1    3    3    0    0 -0.18783997564E+02  0.50940706417E+01  0.11360678943E+03  0.11526183551E+03  0.00000000000E+00 0.  1.
         22    1    4    4    0    0  0.14117911311E+02  0.21945114405E+00  0.12943671854E+04  0.12944441951E+04  0.00000000000E+00 0.  1.
         22    1    4    4    0    0  0.46660862527E+01 -0.53135217857E+01  0.90632263810E+03  0.90635022491E+03  0.00000000000E+00 0.  1.
<mgrwt>
<rscale>  0 0.90264977E+02</rscale>
<asrwt>0</asrwt>
<pdfrwt beam="1">  1        2 0.35618071E+00 0.90264977E+02</pdfrwt>
<pdfrwt beam="2">  1       -2 0.13535723E-03 0.90264977E+02</pdfrwt>
<totfact> 0.17116226E+05</totfact>
</mgrwt>
</event>
<event>
 7    1  0.3337990E-009  0.8641618E+02  0.7818608E-02  0.1311770E+00
         -2   -1    0    0    0  501 -0.00000000000E+00  0.00000000000E+00  0.13538640805E+02  0.13538641045E+02  0.25500000000E-02 0.  1.
          2   -1    0    0  501    0  0.00000000000E+00 -0.00000000000E+00 -0.13789709375E+03  0.13789709378E+03  0.25500000000E-02 0. -1.
         23    2    1    2    0    0  0.35527136788E-14  0.00000000000E+00 -0.12435845295E+03  0.15143573482E+03  0.86416184603E+02 0.  0.
    9000005    2    3    3    0    0 -0.27867558695E+02  0.20834443274E+02 -0.19854733743E+02  0.41291728259E+02  0.10006073976E+02 0.  0.
         22    1    3    3    0    0  0.27867558695E+02 -0.20834443274E+02 -0.10450371920E+03  0.11014400656E+03  0.00000000000E+00 0. -1.
         22    1    4    4    0    0 -0.18713858586E+02  0.10719644345E+02 -0.73467129988E+01  0.22783622844E+02  0.00000000000E+00 0.  1.
         22    1    4    4    0    0 -0.91537001098E+01  0.10114798929E+02 -0.12508020744E+02  0.18508105414E+02  0.00000000000E+00 0.  1.
<mgrwt>
<rscale>  0 0.86416185E+02</rscale>
<asrwt>0</asrwt>
<pdfrwt beam="2">  1        2 0.21214937E-01 0.86416185E+02</pdfrwt>
<pdfrwt beam="1">  1       -2 0.20828679E-02 0.86416185E+02</pdfrwt>
<totfact> 0.15716106E+05</totfact>
</mgrwt>
</event>
<event>
 7    1  0.3337990E-009  0.9066797E+02  0.7818608E-02  0.1301242E+00
         -2   -1    0    0    0  501 -0.00000000000E+00  0.00000000000E+00  0.83125895341E+02  0.83125895380E+02  0.25500000000E-02 0.  1.
          2   -1    0    0  501    0  0.00000000000E+00 -0.00000000000E+00 -0.24723585730E+02  0.24723585861E+02  0.25500000000E-02 0. -1.
         23    2    1    2    0    0  0.00000000000E+00  0.00000000000E+00  0.58402309611E+02  0.10784948124E+03  0.90667970288E+02 0.  0.
    9000005    2    3    3    0    0 -0.39268938648E+02 -0.21786211319E+02  0.35290133026E+02  0.57343429597E+02  0.51173120670E+01 0.  0.
         22    1    3    3    0    0  0.39268938648E+02  0.21786211319E+02  0.23112176585E+02  0.50506051644E+02  0.00000000000E+00 0.  1.
         22    1    4    4    0    0 -0.10298574507E+02 -0.80407518766E+01  0.88272913104E+01  0.15768176797E+02  0.00000000000E+00 0. -1.
         22    1    4    4    0    0 -0.28970364141E+02 -0.13745459443E+02  0.26462841716E+02  0.41575252800E+02  0.00000000000E+00 0. -1.
<mgrwt>
<rscale>  0 0.90667970E+02</rscale>
<asrwt>0</asrwt>
<pdfrwt beam="2">  1        2 0.38036285E-02 0.90667970E+02</pdfrwt>
<pdfrwt beam="1">  1       -2 0.12788600E-01 0.90667970E+02</pdfrwt>
<totfact> 0.85345741E+04</totfact>
</mgrwt>
</event>
<event>
 7    1  0.3337990E-009  0.9031020E+02  0.7818608E-02  0.1302102E+00
          2   -1    0    0  501    0  0.00000000000E+00  0.00000000000E+00  0.17586885954E+02  0.17586886138E+02  0.25500000000E-02 0. -1.
         -2   -1    0    0    0  501 -0.00000000000E+00 -0.00000000000E+00 -0.11593769049E+03  0.11593769052E+03  0.25500000000E-02 0.  1.
         23    2    1    2    0    0  0.00000000000E+00  0.00000000000E+00 -0.98350804538E+02  0.13352457666E+03  0.90310197754E+02 0.  0.
    9000005    2    3    3    0    0 -0.18401563435E+02 -0.34976470329E+02 -0.78564313701E+02  0.89326429263E+02  0.15648915744E+02 0.  0.
         22    1    3    3    0    0  0.18401563435E+02  0.34976470329E+02 -0.19786490837E+02  0.44198147395E+02  0.00000000000E+00 0. -1.
         22    1    4    4    0    0  0.26509145792E+00 -0.15598720579E+02 -0.28773688639E+02  0.32730956526E+02  0.00000000000E+00 0. -1.
         22    1    4    4    0    0 -0.18666654893E+02 -0.19377749750E+02 -0.49790625062E+02  0.56595472737E+02  0.00000000000E+00 0. -1.
<mgrwt>
<rscale>  0 0.90310198E+02</rscale>
<asrwt>0</asrwt>
<pdfrwt beam="1">  1        2 0.27056749E-02 0.90310198E+02</pdfrwt>
<pdfrwt beam="2">  1       -2 0.17836567E-01 0.90310198E+02</pdfrwt>
<totfact> 0.78099921E+04</totfact>
</mgrwt>
</event>
<event>
 7    1  0.3337990E-009  0.9111982E+02  0.7818608E-02  0.1300162E+00
         -2   -1    0    0    0  501 -0.00000000000E+00  0.00000000000E+00  0.60599393384E+02  0.60599393437E+02  0.25500000000E-02 0.  1.
          2   -1    0    0  501    0  0.00000000000E+00 -0.00000000000E+00 -0.34252908445E+02  0.34252908540E+02  0.25500000000E-02 0. -1.
         23    2    1    2    0    0  0.00000000000E+00  0.00000000000E+00  0.26346484938E+02  0.94852301977E+02  0.91119821783E+02 0.  0.
    9000005    2    3    3    0    0  0.20486338036E+01  0.40698266836E+02  0.31662074861E+02  0.53757274052E+02  0.15060269091E+02 0.  0.
         22    1    3    3    0    0 -0.20486338036E+01 -0.40698266836E+02 -0.53155899225E+01  0.41095027925E+02  0.00000000000E+00 0. -1.
         22    1    4    4    0    0 -0.46300063331E+00  0.40884758930E+02  0.30326378768E+02  0.50906454714E+02  0.00000000000E+00 0. -1.
         22    1    4    4    0    0  0.25116344369E+01 -0.18649209408E+00  0.13356960931E+01  0.28508193382E+01  0.00000000000E+00 0. -1.
<mgrwt>
<rscale>  0 0.91119822E+02</rscale>
<asrwt>0</asrwt>
<pdfrwt beam="2">  1        2 0.52696784E-02 0.91119822E+02</pdfrwt>
<pdfrwt beam="1">  1       -2 0.93229834E-02 0.91119822E+02</pdfrwt>
<totfact> 0.91787684E+04</totfact>
</mgrwt>
</event>
<event>
 7    1  0.3337990E-009  0.8995256E+02  0.7818608E-02  0.1302967E+00
          2   -1    0    0  501    0  0.00000000000E+00  0.00000000000E+00  0.45481952898E+02  0.45481952970E+02  0.25500000000E-02 0. -1.
         -2   -1    0    0    0  501 -0.00000000000E+00 -0.00000000000E+00 -0.44476228903E+02  0.44476228976E+02  0.25500000000E-02 0.  1.
         23    2    1    2    0    0  0.00000000000E+00  0.00000000000E+00  0.10057239947E+01  0.89958181946E+02  0.89952559821E+02 0.  0.
    9000005    2    3    3    0    0 -0.32121802835E+02  0.21765501845E+02 -0.21594076908E+02  0.45054971717E+02  0.76222720328E+01 0.  0.
         22    1    3    3    0    0  0.32121802835E+02 -0.21765501845E+02  0.22599800903E+02  0.44903210229E+02  0.00000000000E+00 0. -1.
         22    1    4    4    0    0 -0.23827359485E+02  0.12932915919E+02 -0.17486078337E+02  0.32260909935E+02  0.00000000000E+00 0.  1.
         22    1    4    4    0    0 -0.82944433504E+01  0.88325859261E+01 -0.41079985712E+01  0.12794061783E+02  0.00000000000E+00 0.  1.
<mgrwt>
<rscale>  0 0.89952560E+02</rscale>
<asrwt>0</asrwt>
<pdfrwt beam="1">  1        2 0.69972235E-02 0.89952560E+02</pdfrwt>
<pdfrwt beam="2">  1       -2 0.68424968E-02 0.89952560E+02</pdfrwt>
<totfact> 0.10250785E+05</totfact>
</mgrwt>
</event>
<event>
 7    1  0.3337990E-009  0.9189485E+02  0.7818608E-02  0.1298327E+00
         -2   -1    0    0    0  501 -0.00000000000E+00  0.00000000000E+00  0.67300768632E+01  0.67300773463E+01  0.25500000000E-02 0.  1.
          2   -1    0    0  501    0  0.00000000000E+00 -0.00000000000E+00 -0.31369121841E+03  0.31369121842E+03  0.25500000000E-02 0. -1.
         23    2    1    2    0    0  0.00000000000E+00  0.00000000000E+00 -0.30696114154E+03  0.32042129576E+03  0.91894854921E+02 0.  0.
    9000005    2    3    3    0    0 -0.29022762281E+02 -0.31475427116E+02 -0.10913497166E+03  0.11801522685E+03  0.13569395215E+02 0.  0.
         22    1    3    3    0    0  0.29022762281E+02  0.31475427116E+02 -0.19782616988E+03  0.20240606891E+03  0.00000000000E+00 0. -1.
         22    1    4    4    0    0 -0.23692756924E+02 -0.29995503749E+02 -0.10238898310E+03  0.10929126606E+03  0.00000000000E+00 0.  1.
         22    1    4    4    0    0 -0.53300053572E+01 -0.14799233674E+01 -0.67459885609E+01  0.87239607946E+01  0.00000000000E+00 0.  1.
<mgrwt>
<rscale>  0 0.91894855E+02</rscale>
<asrwt>0</asrwt>
<pdfrwt beam="2">  1        2 0.48260176E-01 0.91894855E+02</pdfrwt>
<pdfrwt beam="1">  1       -2 0.10353967E-02 0.91894855E+02</pdfrwt>
<totfact> 0.17888192E+05</totfact>
</mgrwt>
</event>
<event>
 7    1  0.3337990E-009  0.9102004E+02  0.7818608E-02  0.1300400E+00
         -2   -1    0    0    0  501 -0.00000000000E+00  0.00000000000E+00  0.82115992631E+02  0.82115992671E+02  0.25500000000E-02 0.  1.
          2   -1    0    0  501    0  0.00000000000E+00 -0.00000000000E+00 -0.25222393030E+02  0.25222393159E+02  0.25500000000E-02 0. -1.
         23    2    1    2    0    0  0.00000000000E+00  0.00000000000E+00  0.56893599601E+02  0.10733838583E+03  0.91020038437E+02 0.  0.
    9000005    2    3    3    0    0 -0.43230754023E+02 -0.62698406078E+01  0.13734480395E+02  0.45930580421E+02  0.35739713806E+01 0.  0.
         22    1    3    3    0    0  0.43230754023E+02  0.62698406078E+01  0.43159119205E+02  0.61407805409E+02  0.00000000000E+00 0.  1.
         22    1    4    4    0    0 -0.98769040299E+00 -0.69413738165E+00  0.56097392020E+00  0.13311839752E+01  0.00000000000E+00 0. -1.
         22    1    4    4    0    0 -0.42243063620E+02 -0.55757032261E+01  0.13173506475E+02  0.44599396445E+02  0.00000000000E+00 0. -1.
<mgrwt>
<rscale>  0 0.91020038E+02</rscale>
<asrwt>0</asrwt>
<pdfrwt beam="2">  1        2 0.38803682E-02 0.91020038E+02</pdfrwt>
<pdfrwt beam="1">  1       -2 0.12633229E-01 0.91020038E+02</pdfrwt>
<totfact> 0.84824131E+04</totfact>
</mgrwt>
</event>
<event>
 7    1  0.3337990E-009  0.9154258E+02  0.7818608E-02  0.1299159E+00
         -2   -1    0    0    0  501 -0.00000000000E+00  0.00000000000E+00  0.91464295857E+02  0.91464295893E+02  0.25500000000E-02 0.  1.
          2   -1    0    0  501    0  0.00000000000E+00 -0.00000000000E+00 -0.22905231404E+02  0.22905231546E+02  0.25500000000E-02 0. -1.
         23    2    1    2    0    0  0.35527136788E-14  0.00000000000E+00  0.68559064453E+02  0.11436952744E+03  0.91542577459E+02 0.  0.
    9000005    2    3    3    0    0  0.26407341580E+02 -0.18823165915E+02  0.74156929676E+02  0.81460632601E+02  0.92154859053E+01 0.  0.
         22    1    3    3    0    0 -0.26407341580E+02  0.18823165915E+02 -0.55978652227E+01  0.32908894837E+02  0.00000000000E+00 0. -1.
         22    1    4    4    0    0  0.19972048056E+02 -0.10705679171E+02  0.42674692701E+02  0.48317943532E+02  0.00000000000E+00 0. -1.
         22    1    4    4    0    0  0.64352935233E+01 -0.81174867439E+01  0.31482236975E+02  0.33142689069E+02  0.00000000000E+00 0. -1.
<mgrwt>
<rscale>  0 0.91542577E+02</rscale>
<asrwt>0</asrwt>
<pdfrwt beam="2">  1        2 0.35238817E-02 0.91542577E+02</pdfrwt>
<pdfrwt beam="1">  1       -2 0.14071430E-01 0.91542577E+02</pdfrwt>
<totfact> 0.81113968E+04</totfact>
</mgrwt>
</event>
<event>
 7    1  0.3337990E-009  0.9098053E+02  0.7818608E-02  0.1300494E+00
          2   -1    0    0  501    0  0.00000000000E+00  0.00000000000E+00  0.97551431423E+02  0.97551431457E+02  0.25500000000E-02 0. -1.
         -2   -1    0    0    0  501 -0.00000000000E+00 -0.00000000000E+00 -0.21213058049E+02  0.21213058203E+02  0.25500000000E-02 0.  1.
         23    2    1    2    0    0  0.00000000000E+00  0.00000000000E+00  0.76338373374E+02  0.11876448966E+03  0.90980529536E+02 0.  0.
    9000005    2    3    3    0    0  0.26064988821E+02  0.21389880379E+02  0.77081228375E+02  0.85038202310E+02  0.12372124294E+02 0.  0.
         22    1    3    3    0    0 -0.26064988821E+02 -0.21389880379E+02 -0.74285500064E+00  0.33726287349E+02  0.00000000000E+00 0.  1.
         22    1    4    4    0    0  0.11785591534E+02  0.17047159584E+02  0.39614267280E+02  0.44707896281E+02  0.00000000000E+00 0.  1.
         22    1    4    4    0    0  0.14279397287E+02  0.43427207942E+01  0.37466961094E+02  0.40330306029E+02  0.00000000000E+00 0.  1.
<mgrwt>
<rscale>  0 0.90980530E+02</rscale>
<asrwt>0</asrwt>
<pdfrwt beam="1">  1        2 0.15007912E-01 0.90980530E+02</pdfrwt>
<pdfrwt beam="2">  1       -2 0.32635475E-02 0.90980530E+02</pdfrwt>
<totfact> 0.12248235E+05</totfact>
</mgrwt>
</event>
<event>
 7    1  0.3337990E-009  0.8696760E+02  0.7818608E-02  0.1310366E+00
         -2   -1    0    0    0  501 -0.00000000000E+00  0.00000000000E+00  0.86665237245E+01  0.86665240996E+01  0.25500000000E-02 0.  1.
          2   -1    0    0  501    0  0.00000000000E+00 -0.00000000000E+00 -0.21817755490E+03  0.21817755492E+03  0.25500000000E-02 0. -1.
         23    2    1    2    0    0  0.00000000000E+00  0.00000000000E+00 -0.20951103118E+03  0.22684407902E+03  0.86967603162E+02 0.  0.
    9000005    2    3    3    0    0  0.32072996265E+02 -0.13235803223E+02 -0.17145882342E+03  0.17534811712E+03  0.12040368479E+02 0.  0.
         22    1    3    3    0    0 -0.32072996265E+02  0.13235803223E+02 -0.38052207761E+02  0.51495961899E+02  0.00000000000E+00 0.  1.
         22    1    4    4    0    0  0.59999962891E+01 -0.81960844571E+01 -0.45352749763E+02  0.46476312966E+02  0.00000000000E+00 0. -1.
         22    1    4    4    0    0  0.26072999976E+02 -0.50397187663E+01 -0.12610607365E+03  0.12887180415E+03  0.00000000000E+00 0. -1.
<mgrwt>
<rscale>  0 0.86967603E+02</rscale>
<asrwt>0</asrwt>
<pdfrwt beam="2">  1        2 0.33565774E-01 0.86967603E+02</pdfrwt>
<pdfrwt beam="1">  1       -2 0.13333115E-02 0.86967603E+02</pdfrwt>
<totfact> 0.18119143E+05</totfact>
</mgrwt>
</event>
<event>
 7    1  0.3337990E-009  0.9031552E+02  0.7818608E-02  0.1302089E+00
          2   -1    0    0  501    0  0.00000000000E+00  0.00000000000E+00  0.77506749009E+03  0.77506749009E+03  0.25500000000E-02 0. -1.
         -2   -1    0    0    0  501 -0.00000000000E+00 -0.00000000000E+00 -0.26310262978E+01  0.26310275335E+01  0.25500000000E-02 0.  1.
         23    2    1    2    0    0  0.00000000000E+00  0.00000000000E+00  0.77243646379E+03  0.77769851763E+03  0.90315523165E+02 0.  0.
    9000005    2    3    3    0    0  0.33055809545E+02  0.18873761898E+02  0.59140633869E+03  0.59270983790E+03  0.97256911305E+01 0.  0.
         22    1    3    3    0    0 -0.33055809545E+02 -0.18873761898E+02  0.18103012510E+03  0.18498867973E+03  0.00000000000E+00 0.  1.
         22    1    4    4    0    0  0.22244085953E+01  0.37109856178E+01  0.39796361850E+02  0.40030860900E+02  0.00000000000E+00 0. -1.
         22    1    4    4    0    0  0.30831400950E+02  0.15162776280E+02  0.55160997684E+03  0.55267897700E+03  0.00000000000E+00 0. -1.
<mgrwt>
<rscale>  0 0.90315523E+02</rscale>
<asrwt>0</asrwt>
<pdfrwt beam="1">  1        2 0.11924120E+00 0.90315523E+02</pdfrwt>
<pdfrwt beam="2">  1       -2 0.40477320E-03 0.90315523E+02</pdfrwt>
<totfact> 0.24846567E+05</totfact>
</mgrwt>
</event>
<event>
 7    1  0.3337990E-009  0.9162070E+02  0.7818608E-02  0.1298974E+00
          2   -1    0    0  501    0  0.00000000000E+00  0.00000000000E+00  0.66351563782E+03  0.66351563783E+03  0.25500000000E-02 0. -1.
         -2   -1    0    0    0  501 -0.00000000000E+00 -0.00000000000E+00 -0.31628312399E+01  0.31628322678E+01  0.25500000000E-02 0.  1.
         23    2    1    2    0    0  0.35527136788E-14  0.00000000000E+00  0.66035280658E+03  0.66667847010E+03  0.91620703593E+02 0.  0.
    9000005    2    3    3    0    0 -0.28363343990E+02 -0.25588841194E+02  0.50659610380E+03  0.50824743865E+03  0.14716603804E+02 0.  0.
         22    1    3    3    0    0  0.28363343990E+02  0.25588841194E+02  0.15375670278E+03  0.15843103145E+03  0.00000000000E+00 0.  1.
         22    1    4    4    0    0 -0.18294024272E+02 -0.21797684747E+02  0.29246541968E+03  0.29384661321E+03  0.00000000000E+00 0.  1.
         22    1    4    4    0    0 -0.10069319718E+02 -0.37911564466E+01  0.21413068412E+03  0.21440082544E+03  0.00000000000E+00 0.  1.
<mgrwt>
<rscale>  0 0.91620704E+02</rscale>
<asrwt>0</asrwt>
<pdfrwt beam="1">  1        2 0.10207935E+00 0.91620704E+02</pdfrwt>
<pdfrwt beam="2">  1       -2 0.48658942E-03 0.91620704E+02</pdfrwt>
<totfact> 0.23110052E+05</totfact>
</mgrwt>
</event>
<event>
 7    1  0.3337990E-009  0.9237407E+02  0.7818608E-02  0.1297202E+00
         -2   -1    0    0    0  501 -0.00000000000E+00  0.00000000000E+00  0.14978897260E+03  0.14978897262E+03  0.25500000000E-02 0.  1.
          2   -1    0    0  501    0  0.00000000000E+00 -0.00000000000E+00 -0.14241649987E+02  0.14241650216E+02  0.25500000000E-02 0. -1.
         23    2    1    2    0    0  0.00000000000E+00  0.88817841970E-15  0.13554732262E+03  0.16403062284E+03  0.92374068662E+02 0.  0.
    9000005    2    3    3    0    0 -0.24932208365E+02  0.52014009838E+01  0.37822730756E+00  0.26482980503E+02  0.72481455744E+01 0.  0.
         22    1    3    3    0    0  0.24932208365E+02 -0.52014009838E+01  0.13516909531E+03  0.13754764234E+03  0.00000000000E+00 0.  1.
         22    1    4    4    0    0 -0.73400087897E+01  0.95608833447E-01 -0.28650420451E+01  0.78799324871E+01  0.00000000000E+00 0. -1.
         22    1    4    4    0    0 -0.17592199576E+02  0.51057921504E+01  0.32432693527E+01  0.18603048016E+02  0.00000000000E+00 0. -1.
<mgrwt>
<rscale>  0 0.92374069E+02</rscale>
<asrwt>0</asrwt>
<pdfrwt beam="2">  1        2 0.21910231E-02 0.92374069E+02</pdfrwt>
<pdfrwt beam="1">  1       -2 0.23044457E-01 0.92374069E+02</pdfrwt>
<totfact> 0.67619626E+04</totfact>
</mgrwt>
</event>
<event>
 7    1  0.3337990E-009  0.8977688E+02  0.7818608E-02  0.1303393E+00
         -2   -1    0    0    0  501 -0.00000000000E+00  0.00000000000E+00  0.16524365349E+01  0.16524385024E+01  0.25500000000E-02 0.  1.
          2   -1    0    0  501    0  0.00000000000E+00 -0.00000000000E+00 -0.12193938561E+04  0.12193938561E+04  0.25500000000E-02 0. -1.
         23    2    1    2    0    0  0.00000000000E+00  0.00000000000E+00 -0.12177414196E+04  0.12210462946E+04  0.89776882574E+02 0.  0.
    9000005    2    3    3    0    0 -0.27692744323E+02 -0.75451834641E+01 -0.10751612904E+04  0.10756058906E+04  0.11507113458E+02 0.  0.
         22    1    3    3    0    0  0.27692744323E+02  0.75451834641E+01 -0.14258012923E+03  0.14544040406E+03  0.00000000000E+00 0.  1.
         22    1    4    4    0    0 -0.17667176283E+02 -0.23614794889E+01 -0.46727173015E+03  0.46761156476E+03  0.00000000000E+00 0. -1.
         22    1    4    4    0    0 -0.10025568040E+02 -0.51837039752E+01 -0.60788956023E+03  0.60799432583E+03  0.00000000000E+00 0. -1.
<mgrwt>
<rscale>  0 0.89776883E+02</rscale>
<asrwt>0</asrwt>
<pdfrwt beam="2">  1        2 0.18759834E+00 0.89776883E+02</pdfrwt>
<pdfrwt beam="1">  1       -2 0.25422213E-03 0.89776883E+02</pdfrwt>
<totfact> 0.25852901E+05</totfact>
</mgrwt>
</event>
<event>
 7    1  0.3337990E-009  0.9121268E+02  0.7818608E-02  0.1299941E+00
          2   -1    0    0  501    0  0.00000000000E+00  0.00000000000E+00  0.75835864005E+02  0.75835864048E+02  0.25500000000E-02 0.  1.
         -2   -1    0    0    0  501 -0.00000000000E+00 -0.00000000000E+00 -0.27426839112E+02  0.27426839231E+02  0.25500000000E-02 0. -1.
         23    2    1    2    0    0  0.11102230246E-15  0.00000000000E+00  0.48409024892E+02  0.10326270328E+03  0.91212675640E+02 0.  0.
    9000005    2    3    3    0    0  0.33350291687E+00  0.28325296217E+02  0.64568392489E+02  0.70650454183E+02  0.44694225216E+01 0.  0.
         22    1    3    3    0    0 -0.33350291687E+00 -0.28325296217E+02 -0.16159367597E+02  0.32612249096E+02  0.00000000000E+00 0. -1.
         22    1    4    4    0    0 -0.18686987596E+01  0.19138222778E+02  0.43588559373E+02  0.47641642650E+02  0.00000000000E+00 0. -1.
         22    1    4    4    0    0  0.22022016764E+01  0.91870734384E+01  0.20979833116E+02  0.23008811533E+02  0.00000000000E+00 0. -1.
<mgrwt>
<rscale>  0 0.91212676E+02</rscale>
<asrwt>0</asrwt>
<pdfrwt beam="1">  1        2 0.11667056E-01 0.91212676E+02</pdfrwt>
<pdfrwt beam="2">  1       -2 0.42195138E-02 0.91212676E+02</pdfrwt>
<totfact> 0.11300080E+05</totfact>
</mgrwt>
</event>
<event>
 7    1  0.3337990E-009  0.9048562E+02  0.7818608E-02  0.1301680E+00
          2   -1    0    0  501    0  0.00000000000E+00  0.00000000000E+00  0.56333590581E+01  0.56333596352E+01  0.25500000000E-02 0. -1.
         -2   -1    0    0    0  501 -0.00000000000E+00 -0.00000000000E+00 -0.36335546336E+03  0.36335546337E+03  0.25500000000E-02 0.  1.
         23    2    1    2    0    0  0.17763568394E-14  0.00000000000E+00 -0.35772210430E+03  0.36898882300E+03  0.90485620934E+02 0.  0.
    9000005    2    3    3    0    0 -0.85503502516E+01 -0.19527419989E+02 -0.34061706882E+03  0.34165732360E+03  0.15978440997E+02 0.  0.
         22    1    3    3    0    0  0.85503502516E+01  0.19527419989E+02 -0.17105035480E+02  0.27331499403E+02  0.00000000000E+00 0. -1.
         22    1    4    4    0    0 -0.37507146746E+01  0.12886115142E+01 -0.24465084086E+02  0.24784445112E+02  0.00000000000E+00 0.  1.
         22    1    4    4    0    0 -0.47996355770E+01 -0.20816031503E+02 -0.31615198473E+03  0.31687287849E+03  0.00000000000E+00 0.  1.
<mgrwt>
<rscale>  0 0.90485621E+02</rscale>
<asrwt>0</asrwt>
<pdfrwt beam="1">  1        2 0.86667095E-03 0.90485621E+02</pdfrwt>
<pdfrwt beam="2">  1       -2 0.55900822E-01 0.90485621E+02</pdfrwt>
<totfact> 0.46373172E+04</totfact>
</mgrwt>
</event>
<event>
 7    1  0.3337990E-009  0.9372312E+02  0.7818608E-02  0.1294078E+00
          2   -1    0    0  501    0  0.00000000000E+00  0.00000000000E+00  0.26952856415E+03  0.26952856416E+03  0.25500000000E-02 0. -1.
         -2   -1    0    0    0  501 -0.00000000000E+00 -0.00000000000E+00 -0.81475802635E+01  0.81475806626E+01  0.25500000000E-02 0.  1.
         23    2    1    2    0    0 -0.35527136788E-14  0.00000000000E+00  0.26138098389E+03  0.27767614482E+03  0.93723117037E+02 0.  0.
    9000005    2    3    3    0    0  0.17580339079E+02 -0.41876032369E+02  0.15820857128E+03  0.16494985183E+03  0.10762489645E+02 0.  0.
         22    1    3    3    0    0 -0.17580339079E+02  0.41876032369E+02  0.10317241261E+03  0.11272629300E+03  0.00000000000E+00 0.  1.
         22    1    4    4    0    0  0.11884920920E+00 -0.12127064509E+02  0.37829170799E+02  0.39725633816E+02  0.00000000000E+00 0.  1.
         22    1    4    4    0    0  0.17461489870E+02 -0.29748967860E+02  0.12037940048E+03  0.12522421801E+03  0.00000000000E+00 0.  1.
<mgrwt>
<rscale>  0 0.93723117E+02</rscale>
<asrwt>0</asrwt>
<pdfrwt beam="1">  1        2 0.41465937E-01 0.93723117E+02</pdfrwt>
<pdfrwt beam="2">  1       -2 0.12534738E-02 0.93723117E+02</pdfrwt>
<totfact> 0.16034154E+05</totfact>
</mgrwt>
</event>
<event>
 7    1  0.3337990E-009  0.9045847E+02  0.7818608E-02  0.1301745E+00
          2   -1    0    0  501    0  0.00000000000E+00  0.00000000000E+00  0.18568452476E+01  0.18568469986E+01  0.25500000000E-02 0. -1.
         -2   -1    0    0    0  501 -0.00000000000E+00 -0.00000000000E+00 -0.11016980006E+04  0.11016980006E+04  0.25500000000E-02 0.  1.
         23    2    1    2    0    0  0.00000000000E+00  0.00000000000E+00 -0.10998411553E+04  0.11035548476E+04  0.90458469243E+02 0.  0.
    9000005    2    3    3    0    0  0.24101903251E+02 -0.25483560814E+02 -0.89103928471E+03  0.89182734633E+03  0.13217229209E+02 0.  0.
         22    1    3    3    0    0 -0.24101903251E+02  0.25483560814E+02 -0.20880187062E+03  0.21172750125E+03  0.00000000000E+00 0. -1.
         22    1    4    4    0    0  0.11824187880E+02 -0.12730890747E+02 -0.28469217350E+03  0.28522187968E+03  0.00000000000E+00 0.  1.
         22    1    4    4    0    0  0.12277715371E+02 -0.12752670067E+02 -0.60634711121E+03  0.60660546664E+03  0.00000000000E+00 0.  1.
<mgrwt>
<rscale>  0 0.90458469E+02</rscale>
<asrwt>0</asrwt>
<pdfrwt beam="1">  1        2 0.28566951E-03 0.90458469E+02</pdfrwt>
<pdfrwt beam="2">  1       -2 0.16949148E+00 0.90458469E+02</pdfrwt>
<totfact> 0.16955064E+04</totfact>
</mgrwt>
</event>
<event>
 7    1  0.3337990E-009  0.9156682E+02  0.7818608E-02  0.1299101E+00
          2   -1    0    0  501    0  0.00000000000E+00  0.00000000000E+00  0.71340304202E+03  0.71340304203E+03  0.25500000000E-02 0. -1.
         -2   -1    0    0    0  501 -0.00000000000E+00 -0.00000000000E+00 -0.29381991526E+01  0.29382002592E+01  0.25500000000E-02 0.  1.
         23    2    1    2    0    0  0.00000000000E+00  0.00000000000E+00  0.71046484287E+03  0.71634124229E+03  0.91566819570E+02 0.  0.
    9000005    2    3    3    0    0  0.12930985410E+02 -0.39285640548E+02  0.50720756603E+03  0.50891874465E+03  0.53105255812E+01 0.  0.
         22    1    3    3    0    0 -0.12930985410E+02  0.39285640548E+02  0.20325727684E+03  0.20742249763E+03  0.00000000000E+00 0.  1.
         22    1    4    4    0    0  0.11410547949E+02 -0.32843922695E+02  0.44639701462E+03  0.44774905753E+03  0.00000000000E+00 0. -1.
         22    1    4    4    0    0  0.15204374603E+01 -0.64417178530E+01  0.60810551414E+02  0.61169687120E+02  0.00000000000E+00 0. -1.
<mgrwt>
<rscale>  0 0.91566820E+02</rscale>
<asrwt>0</asrwt>
<pdfrwt beam="1">  1        2 0.10975426E+00 0.91566820E+02</pdfrwt>
<pdfrwt beam="2">  1       -2 0.45203094E-03 0.91566820E+02</pdfrwt>
<totfact> 0.23550956E+05</totfact>
</mgrwt>
</event>
<event>
 7    1  0.3337990E-009  0.8997032E+02  0.7818608E-02  0.1302924E+00
          2   -1    0    0  501    0  0.00000000000E+00  0.00000000000E+00  0.44684895696E+02  0.44684895768E+02  0.25500000000E-02 0. -1.
         -2   -1    0    0    0  501 -0.00000000000E+00 -0.00000000000E+00 -0.45287441273E+02  0.45287441344E+02  0.25500000000E-02 0.  1.
         23    2    1    2    0    0  0.00000000000E+00  0.00000000000E+00 -0.60254557684E+00  0.89972337113E+02  0.89970319464E+02 0.  0.
    9000005    2    3    3    0    0  0.35553671824E+02 -0.19545644599E+02  0.16314088519E+02  0.46014763112E+02  0.14321771438E+02 0.  0.
         22    1    3    3    0    0 -0.35553671824E+02  0.19545644599E+02 -0.16916634096E+02  0.43957574001E+02  0.00000000000E+00 0.  1.
         22    1    4    4    0    0  0.11834787212E+02  0.48272668358E+00  0.28858245818E+01  0.12191111390E+02  0.00000000000E+00 0.  1.
         22    1    4    4    0    0  0.23718884611E+02 -0.20028371282E+02  0.13428263937E+02  0.33823651722E+02  0.00000000000E+00 0.  1.
<mgrwt>
<rscale>  0 0.89970319E+02</rscale>
<asrwt>0</asrwt>
<pdfrwt beam="1">  1        2 0.68745994E-02 0.89970319E+02</pdfrwt>
<pdfrwt beam="2">  1       -2 0.69672986E-02 0.89970319E+02</pdfrwt>
<totfact> 0.10198588E+05</totfact>
</mgrwt>
</event>
<event>
 7    1  0.3337990E-009  0.9155453E+02  0.7818608E-02  0.1299130E+00
          2   -1    0    0  501    0  0.00000000000E+00  0.00000000000E+00  0.52199784909E+01  0.52199791138E+01  0.25500000000E-02 0. -1.
         -2   -1    0    0    0  501 -0.00000000000E+00 -0.00000000000E+00 -0.40144953065E+03  0.40144953066E+03  0.25500000000E-02 0.  1.
         23    2    1    2    0    0  0.00000000000E+00  0.00000000000E+00 -0.39622955216E+03  0.40666950977E+03  0.91554531149E+02 0.  0.
    9000005    2    3    3    0    0  0.11413386876E+02 -0.36459923300E+02 -0.30953025741E+03  0.31192586029E+03  0.54009868277E+01 0.  0.
         22    1    3    3    0    0 -0.11413386876E+02  0.36459923300E+02 -0.86699294749E+02  0.94743649481E+02  0.00000000000E+00 0. -1.
         22    1    4    4    0    0 -0.24649975347E+00 -0.44887548281E+01 -0.30975188804E+02  0.31299712514E+02  0.00000000000E+00 0. -1.
         22    1    4    4    0    0  0.11659886630E+02 -0.31971168472E+02 -0.27855506861E+03  0.28062614778E+03  0.00000000000E+00 0. -1.
<mgrwt>
<rscale>  0 0.91554531E+02</rscale>
<asrwt>0</asrwt>
<pdfrwt beam="1">  1        2 0.80307398E-03 0.91554531E+02</pdfrwt>
<pdfrwt beam="2">  1       -2 0.61761442E-01 0.91554531E+02</pdfrwt>
<totfact> 0.42134961E+04</totfact>
</mgrwt>
</event>
<event>
 7    1  0.3337990E-009  0.9204451E+02  0.7818608E-02  0.1297975E+00
         -2   -1    0    0    0  501 -0.00000000000E+00  0.00000000000E+00  0.25460263881E+01  0.25460276651E+01  0.25500000000E-02 0.  1.
          2   -1    0    0  501    0  0.00000000000E+00 -0.00000000000E+00 -0.83190315584E+03  0.83190315585E+03  0.25500000000E-02 0. -1.
         23    2    1    2    0    0  0.00000000000E+00  0.00000000000E+00 -0.82935712945E+03  0.83444918351E+03  0.92044509266E+02 0.  0.
    9000005    2    3    3    0    0  0.26445379086E+02  0.31094346843E+02 -0.59220039588E+03  0.59380518762E+03  0.15397255577E+02 0.  0.
         22    1    3    3    0    0 -0.26445379086E+02 -0.31094346843E+02 -0.23715673358E+03  0.24064399590E+03  0.00000000000E+00 0.  1.
         22    1    4    4    0    0  0.26800730126E+02  0.31448616920E+02 -0.53182722731E+03  0.53342993387E+03  0.00000000000E+00 0. -1.
         22    1    4    4    0    0 -0.35535103954E+00 -0.35427007743E+00 -0.60373168566E+02  0.60375253741E+02  0.00000000000E+00 0. -1.
<mgrwt>
<rscale>  0 0.92044509E+02</rscale>
<asrwt>0</asrwt>
<pdfrwt beam="2">  1        2 0.12798488E+00 0.92044509E+02</pdfrwt>
<pdfrwt beam="1">  1       -2 0.39169713E-03 0.92044509E+02</pdfrwt>
<totfact> 0.23927666E+05</totfact>
</mgrwt>
</event>
<event>
 7    1  0.3337990E-009  0.8776927E+02  0.7818608E-02  0.1308345E+00
          2   -1    0    0  501    0  0.00000000000E+00  0.00000000000E+00  0.13930762293E+03  0.13930762295E+03  0.25500000000E-02 0. -1.
         -2   -1    0    0    0  501 -0.00000000000E+00 -0.00000000000E+00 -0.13824521821E+02  0.13824522056E+02  0.25500000000E-02 0.  1.
         23    2    1    2    0    0  0.00000000000E+00 -0.17763568394E-14  0.12548310111E+03  0.15313214501E+03  0.87769272362E+02 0.  0.
    9000005    2    3    3    0    0  0.38288090204E+02 -0.13181662328E+02  0.90072020019E+02  0.99339220407E+02  0.10750713812E+02 0.  0.
         22    1    3    3    0    0 -0.38288090204E+02  0.13181662328E+02  0.35411081088E+02  0.53792924600E+02  0.00000000000E+00 0.  1.
         22    1    4    4    0    0  0.29471789485E+02 -0.10652782023E+02  0.57320613952E+02  0.65327795953E+02  0.00000000000E+00 0.  1.
         22    1    4    4    0    0  0.88163007185E+01 -0.25288803057E+01  0.32751406068E+02  0.34011424454E+02  0.00000000000E+00 0.  1.
<mgrwt>
<rscale>  0 0.87769272E+02</rscale>
<asrwt>0</asrwt>
<pdfrwt beam="1">  1        2 0.21431942E-01 0.87769272E+02</pdfrwt>
<pdfrwt beam="2">  1       -2 0.21268495E-02 0.87769272E+02</pdfrwt>
<totfact> 0.15120488E+05</totfact>
</mgrwt>
</event>
<event>
 7    1  0.3337990E-009  0.9117363E+02  0.7818608E-02  0.1300034E+00
         -2   -1    0    0    0  501 -0.00000000000E+00  0.00000000000E+00  0.13368884079E+03  0.13368884082E+03  0.25500000000E-02 0.  1.
          2   -1    0    0  501    0  0.00000000000E+00 -0.00000000000E+00 -0.15544735945E+02  0.15544736154E+02  0.25500000000E-02 0. -1.
         23    2    1    2    0    0  0.00000000000E+00  0.00000000000E+00  0.11814410485E+03  0.14923357697E+03  0.91173630976E+02 0.  0.
    9000005    2    3    3    0    0 -0.37411175738E+02 -0.22817893125E+02  0.74856247137E+02  0.87637384378E+02  0.12514035656E+02 0.  0.
         22    1    3    3    0    0  0.37411175738E+02  0.22817893125E+02  0.43287857712E+02  0.61596192594E+02  0.00000000000E+00 0. -1.
         22    1    4    4    0    0 -0.12099971492E+02 -0.51597606279E+01  0.12920254579E+02  0.18438151161E+02  0.00000000000E+00 0. -1.
         22    1    4    4    0    0 -0.25311204246E+02 -0.17658132497E+02  0.61935992559E+02  0.69199233218E+02  0.00000000000E+00 0. -1.
<mgrwt>
<rscale>  0 0.91173631E+02</rscale>
<asrwt>0</asrwt>
<pdfrwt beam="2">  1        2 0.23914979E-02 0.91173631E+02</pdfrwt>
<pdfrwt beam="1">  1       -2 0.20567513E-01 0.91173631E+02</pdfrwt>
<totfact> 0.72759432E+04</totfact>
</mgrwt>
</event>
<event>
 7    1  0.3337990E-009  0.8845979E+02  0.7818608E-02  0.1306625E+00
          2   -1    0    0  501    0  0.00000000000E+00  0.00000000000E+00  0.78344032741E+02  0.78344032782E+02  0.25500000000E-02 0. -1.
         -2   -1    0    0    0  501 -0.00000000000E+00 -0.00000000000E+00 -0.24970423215E+02  0.24970423345E+02  0.25500000000E-02 0.  1.
         23    2    1    2    0    0  0.00000000000E+00  0.00000000000E+00  0.53373609526E+02  0.10331445613E+03  0.88459791155E+02 0.  0.
    9000005    2    3    3    0    0  0.14801050261E+02  0.18006089526E+02 -0.17085485443E+02  0.29100074686E+02  0.34073721603E+01 0.  0.
         22    1    3    3    0    0 -0.14801050261E+02 -0.18006089526E+02  0.70459094969E+02  0.74214381441E+02  0.00000000000E+00 0. -1.
         22    1    4    4    0    0  0.62771493176E+01  0.10261684784E+02 -0.82970076934E+01  0.14613182912E+02  0.00000000000E+00 0. -1.
         22    1    4    4    0    0  0.85239009433E+01  0.77444047426E+01 -0.87884777500E+01  0.14486891774E+02  0.00000000000E+00 0. -1.
<mgrwt>
<rscale>  0 0.88459791E+02</rscale>
<asrwt>0</asrwt>
<pdfrwt beam="1">  1        2 0.12052928E-01 0.88459791E+02</pdfrwt>
<pdfrwt beam="2">  1       -2 0.38416036E-02 0.88459791E+02</pdfrwt>
<totfact> 0.12416342E+05</totfact>
</mgrwt>
</event>
<event>
 7    1  0.3337990E-009  0.9079499E+02  0.7818608E-02  0.1300938E+00
         -2   -1    0    0    0  501 -0.00000000000E+00  0.00000000000E+00  0.17165395788E+02  0.17165395978E+02  0.25500000000E-02 0.  1.
          2   -1    0    0  501    0  0.00000000000E+00 -0.00000000000E+00 -0.12006322331E+03  0.12006322334E+03  0.25500000000E-02 0. -1.
         23    2    1    2    0    0  0.00000000000E+00  0.17763568394E-14 -0.10289782752E+03  0.13722861931E+03  0.90794994632E+02 0.  0.
    9000005    2    3    3    0    0 -0.37869738128E+02 -0.10545892664E+02 -0.18246515601E+02  0.43894930178E+02  0.69639533155E+01 0.  0.
         22    1    3    3    0    0  0.37869738128E+02  0.10545892664E+02 -0.84651311919E+02  0.93333689135E+02  0.00000000000E+00 0. -1.
         22    1    4    4    0    0 -0.36230455929E+00 -0.46966566828E+00 -0.14772700972E+01  0.15919099766E+01  0.00000000000E+00 0.  1.
         22    1    4    4    0    0 -0.37507433569E+02 -0.10076226996E+02 -0.16769245504E+02  0.42303020201E+02  0.00000000000E+00 0.  1.
<mgrwt>
<rscale>  0 0.90794995E+02</rscale>
<asrwt>0</asrwt>
<pdfrwt beam="2">  1        2 0.18471265E-01 0.90794995E+02</pdfrwt>
<pdfrwt beam="1">  1       -2 0.26408302E-02 0.90794995E+02</pdfrwt>
<totfact> 0.13138410E+05</totfact>
</mgrwt>
</event>
<event>
 7    1  0.3337990E-009  0.9221919E+02  0.7818608E-02  0.1297565E+00
         -2   -1    0    0    0  501 -0.00000000000E+00  0.00000000000E+00  0.34320094256E+02  0.34320094351E+02  0.25500000000E-02 0.  1.
          2   -1    0    0  501    0  0.00000000000E+00 -0.00000000000E+00 -0.61948979738E+02  0.61948979791E+02  0.25500000000E-02 0. -1.
         23    2    1    2    0    0  0.00000000000E+00  0.00000000000E+00 -0.27628885482E+02  0.96269074142E+02  0.92219191729E+02 0.  0.
    9000005    2    3    3    0    0  0.31615301016E+02 -0.24636974429E+02  0.78488499854E+01  0.42741721496E+02  0.12599307244E+02 0.  0.
         22    1    3    3    0    0 -0.31615301016E+02  0.24636974429E+02 -0.35477735467E+02  0.53527352645E+02  0.00000000000E+00 0. -1.
         22    1    4    4    0    0  0.27925543487E+02 -0.16308716609E+02  0.89802646924E+01  0.33562708031E+02  0.00000000000E+00 0.  1.
         22    1    4    4    0    0  0.36897575292E+01 -0.83282578206E+01 -0.11314147070E+01  0.91790134649E+01  0.00000000000E+00 0.  1.
<mgrwt>
<rscale>  0 0.92219192E+02</rscale>
<asrwt>0</asrwt>
<pdfrwt beam="2">  1        2 0.95306123E-02 0.92219192E+02</pdfrwt>
<pdfrwt beam="1">  1       -2 0.52800145E-02 0.92219192E+02</pdfrwt>
<totfact> 0.10360915E+05</totfact>
</mgrwt>
</event>
<event>
 7    1  0.3337990E-009  0.8847155E+02  0.7818608E-02  0.1306596E+00
          2   -1    0    0  501    0  0.00000000000E+00  0.00000000000E+00  0.16438188818E+02  0.16438189015E+02  0.25500000000E-02 0. -1.
         -2   -1    0    0    0  501 -0.00000000000E+00 -0.00000000000E+00 -0.11904011465E+03  0.11904011468E+03  0.25500000000E-02 0.  1.
         23    2    1    2    0    0  0.00000000000E+00  0.17763568394E-14 -0.10260192583E+03  0.13547830369E+03  0.88471552415E+02 0.  0.
    9000005    2    3    3    0    0 -0.69510894984E+01  0.13890283546E+02 -0.11471546837E+03  0.11578070143E+03  0.20674907925E+01 0.  0.
         22    1    3    3    0    0  0.69510894984E+01 -0.13890283546E+02  0.12113542535E+02  0.19697602264E+02  0.00000000000E+00 0. -1.
         22    1    4    4    0    0 -0.47657123063E+01  0.11381389068E+02 -0.91317976928E+02  0.92147821141E+02  0.00000000000E+00 0.  1.
         22    1    4    4    0    0 -0.21853771921E+01  0.25088944781E+01 -0.23397491438E+02  0.23632880285E+02  0.00000000000E+00 0.  1.
<mgrwt>
<rscale>  0 0.88471552E+02</rscale>
<asrwt>0</asrwt>
<pdfrwt beam="1">  1        2 0.25289522E-02 0.88471552E+02</pdfrwt>
<pdfrwt beam="2">  1       -2 0.18313863E-01 0.88471552E+02</pdfrwt>
<totfact> 0.81542223E+04</totfact>
</mgrwt>
</event>
<event>
 7    1  0.3337990E-009  0.9528052E+02  0.7818608E-02  0.1290546E+00
          2   -1    0    0  501    0  0.00000000000E+00  0.00000000000E+00  0.26888934338E+03  0.26888934340E+03  0.25500000000E-02 0. -1.
         -2   -1    0    0    0  501 -0.00000000000E+00 -0.00000000000E+00 -0.84406266310E+01  0.84406270162E+01  0.25500000000E-02 0.  1.
         23    2    1    2    0    0  0.00000000000E+00  0.71054273576E-14  0.26044871675E+03  0.27732997041E+03  0.95280524928E+02 0.  0.
    9000005    2    3    3    0    0  0.14189737577E+02  0.45442677222E+02  0.13367135047E+03  0.14190882669E+03  0.19234319164E+01 0.  0.
         22    1    3    3    0    0 -0.14189737577E+02 -0.45442677222E+02  0.12677736629E+03  0.13542114373E+03  0.00000000000E+00 0.  1.
         22    1    4    4    0    0  0.63406826820E+01  0.23179185535E+02  0.68733857993E+02  0.72813612282E+02  0.00000000000E+00 0.  1.
         22    1    4    4    0    0  0.78490548948E+01  0.22263491687E+02  0.64937492475E+02  0.69095214405E+02  0.00000000000E+00 0.  1.
<mgrwt>
<rscale>  0 0.95280525E+02</rscale>
<asrwt>0</asrwt>
<pdfrwt beam="1">  1        2 0.41367594E-01 0.95280525E+02</pdfrwt>
<pdfrwt beam="2">  1       -2 0.12985579E-02 0.95280525E+02</pdfrwt>
<totfact> 0.15326162E+05</totfact>
</mgrwt>
</event>
<event>
 7    1  0.3337990E-009  0.9049391E+02  0.7818608E-02  0.1301660E+00
          2   -1    0    0  501    0  0.00000000000E+00  0.00000000000E+00  0.38473193640E+02  0.38473193725E+02  0.25500000000E-02 0. -1.
         -2   -1    0    0    0  501 -0.00000000000E+00 -0.00000000000E+00 -0.53213340439E+02  0.53213340500E+02  0.25500000000E-02 0.  1.
         23    2    1    2    0    0  0.00000000000E+00  0.44408920985E-15 -0.14740146799E+02  0.91686534225E+02  0.90493914881E+02 0.  0.
    9000005    2    3    3    0    0 -0.12040504427E+02  0.21816186702E+01 -0.50957540232E+02  0.53457843507E+02  0.10551631105E+02 0.  0.
         22    1    3    3    0    0  0.12040504427E+02 -0.21816186702E+01  0.36217393434E+02  0.38228690718E+02  0.00000000000E+00 0. -1.
         22    1    4    4    0    0 -0.54341625173E+01  0.63117849958E+01 -0.28148981800E+02  0.29355304946E+02  0.00000000000E+00 0. -1.
         22    1    4    4    0    0 -0.66063419096E+01 -0.41301663256E+01 -0.22808558433E+02  0.24102538561E+02  0.00000000000E+00 0. -1.
<mgrwt>
<rscale>  0 0.90493915E+02</rscale>
<asrwt>0</asrwt>
<pdfrwt beam="1">  1        2 0.59189529E-02 0.90493915E+02</pdfrwt>
<pdfrwt beam="2">  1       -2 0.81866678E-02 0.90493915E+02</pdfrwt>
<totfact> 0.96514269E+04</totfact>
</mgrwt>
</event>
<event>
 7    1  0.3337990E-009  0.1025806E+03  0.7818608E-02  0.1274961E+00
          2   -1    0    0  501    0  0.00000000000E+00  0.00000000000E+00  0.36476524776E+03  0.36476524777E+03  0.25500000000E-02 0.  1.
         -2   -1    0    0    0  501 -0.00000000000E+00 -0.00000000000E+00 -0.72120282744E+01  0.72120287252E+01  0.25500000000E-02 0. -1.
         23    2    1    2    0    0  0.00000000000E+00  0.00000000000E+00  0.35755321949E+03  0.37197727649E+03  0.10258064858E+03 0.  0.
    9000005    2    3    3    0    0  0.42758423880E+02  0.19298685436E+02  0.24765752835E+03  0.25248759074E+03  0.14663221173E+02 0.  0.
         22    1    3    3    0    0 -0.42758423880E+02 -0.19298685436E+02  0.10989569114E+03  0.11948968576E+03  0.00000000000E+00 0. -1.
         22    1    4    4    0    0  0.13291694792E+02 -0.40676483047E+00  0.82896058717E+02  0.83955888173E+02  0.00000000000E+00 0. -1.
         22    1    4    4    0    0  0.29466729088E+02  0.19705450267E+02  0.16476146963E+03  0.16853170256E+03  0.00000000000E+00 0. -1.
<mgrwt>
<rscale>  0 0.10258065E+03</rscale>
<asrwt>0</asrwt>
<pdfrwt beam="1">  1        2 0.56117712E-01 0.10258065E+03</pdfrwt>
<pdfrwt beam="2">  1       -2 0.11095432E-02 0.10258065E+03</pdfrwt>
<totfact> 0.14084885E+05</totfact>
</mgrwt>
</event>
<event>
 7    1  0.3337990E-009  0.9200703E+02  0.7818608E-02  0.1298063E+00
         -2   -1    0    0    0  501 -0.00000000000E+00  0.00000000000E+00  0.88178461697E+01  0.88178465384E+01  0.25500000000E-02 0.  1.
          2   -1    0    0  501    0  0.00000000000E+00 -0.00000000000E+00 -0.24000455214E+03  0.24000455215E+03  0.25500000000E-02 0. -1.
         23    2    1    2    0    0  0.00000000000E+00  0.44408920985E-15 -0.23118670597E+03  0.24882239869E+03  0.92007027304E+02 0.  0.
    9000005    2    3    3    0    0  0.32149855655E+02 -0.31188442916E+01 -0.20416265007E+03  0.20670779308E+03  0.15439002548E+01 0.  0.
         22    1    3    3    0    0 -0.32149855655E+02  0.31188442916E+01 -0.27024055894E+02  0.42114605606E+02  0.00000000000E+00 0.  1.
         22    1    4    4    0    0  0.13879573907E+00 -0.97840026089E-01 -0.16209586938E+01  0.16298294435E+01  0.00000000000E+00 0.  1.
         22    1    4    4    0    0  0.32011059916E+02 -0.30210042655E+01 -0.20254169138E+03  0.20507796364E+03  0.00000000000E+00 0.  1.
<mgrwt>
<rscale>  0 0.92007027E+02</rscale>
<asrwt>0</asrwt>
<pdfrwt beam="2">  1        2 0.36923772E-01 0.92007027E+02</pdfrwt>
<pdfrwt beam="1">  1       -2 0.13565919E-02 0.92007027E+02</pdfrwt>
<totfact> 0.16137433E+05</totfact>
</mgrwt>
</event>
<event>
 7    1  0.3337990E-009  0.9119535E+02  0.7818608E-02  0.1299983E+00
          2   -1    0    0  501    0  0.00000000000E+00  0.00000000000E+00  0.13903527457E+03  0.13903527460E+03  0.25500000000E-02 0. -1.
         -2   -1    0    0    0  501 -0.00000000000E+00 -0.00000000000E+00 -0.14954104381E+02  0.14954104599E+02  0.25500000000E-02 0.  1.
         23    2    1    2    0    0  0.00000000000E+00 -0.17763568394E-14  0.12408117019E+03  0.15398937920E+03  0.91195351355E+02 0.  0.
    9000005    2    3    3    0    0 -0.76209617055E+01 -0.15012144236E+02  0.13309282639E+03  0.13489347704E+03  0.14110498910E+02 0.  0.
         22    1    3    3    0    0  0.76209617055E+01  0.15012144236E+02 -0.90116561951E+01  0.19095902159E+02  0.00000000000E+00 0.  1.
         22    1    4    4    0    0  0.32190582245E+01  0.20338422625E+00  0.23374649592E+02  0.23596142578E+02  0.00000000000E+00 0. -1.
         22    1    4    4    0    0 -0.10840019930E+02 -0.15215528462E+02  0.10971817679E+03  0.11129733446E+03  0.00000000000E+00 0. -1.
<mgrwt>
<rscale>  0 0.91195351E+02</rscale>
<asrwt>0</asrwt>
<pdfrwt beam="1">  1        2 0.21390043E-01 0.91195351E+02</pdfrwt>
<pdfrwt beam="2">  1       -2 0.23006314E-02 0.91195351E+02</pdfrwt>
<totfact> 0.13620284E+05</totfact>
</mgrwt>
</event>
<event>
 7    1  0.3337990E-009  0.9682456E+02  0.7818608E-02  0.1287119E+00
         -2   -1    0    0    0  501 -0.00000000000E+00  0.00000000000E+00  0.22911301506E+02  0.22911301648E+02  0.25500000000E-02 0.  1.
          2   -1    0    0  501    0  0.00000000000E+00 -0.00000000000E+00 -0.10229662730E+03  0.10229662733E+03  0.25500000000E-02 0. -1.
         23    2    1    2    0    0 -0.35527136788E-14  0.00000000000E+00 -0.79385325789E+02  0.12520792897E+03  0.96824560559E+02 0.  0.
    9000005    2    3    3    0    0 -0.28007779598E+02  0.32180545576E+02 -0.68749515109E+02  0.81240398905E+02  0.73132314975E+01 0.  0.
         22    1    3    3    0    0  0.28007779598E+02 -0.32180545576E+02 -0.10635810680E+02  0.43967530070E+02  0.00000000000E+00 0.  1.
         22    1    4    4    0    0 -0.25210711342E+01  0.70669818783E+01 -0.11965507411E+02  0.14123434431E+02  0.00000000000E+00 0. -1.
         22    1    4    4    0    0 -0.25486708464E+02  0.25113563698E+02 -0.56784007698E+02  0.67116964474E+02  0.00000000000E+00 0. -1.
<mgrwt>
<rscale>  0 0.96824561E+02</rscale>
<asrwt>0</asrwt>
<pdfrwt beam="2">  1        2 0.15737942E-01 0.96824561E+02</pdfrwt>
<pdfrwt beam="1">  1       -2 0.35248157E-02 0.96824561E+02</pdfrwt>
<totfact> 0.10461819E+05</totfact>
</mgrwt>
</event>
<event>
 7    1  0.3337990E-009  0.8880724E+02  0.7818608E-02  0.1305766E+00
         -2   -1    0    0    0  501 -0.00000000000E+00  0.00000000000E+00  0.28641983963E+01  0.28641995314E+01  0.25500000000E-02 0.  1.
          2   -1    0    0  501    0  0.00000000000E+00 -0.00000000000E+00 -0.68838840150E+03  0.68838840150E+03  0.25500000000E-02 0. -1.
         23    2    1    2    0    0  0.00000000000E+00  0.00000000000E+00 -0.68552420310E+03  0.69125260103E+03  0.88807237308E+02 0.  0.
    9000005    2    3    3    0    0  0.98118919585E+01  0.21684741086E+02 -0.63437190307E+03  0.63483399579E+03  0.44709706875E+01 0.  0.
         22    1    3    3    0    0 -0.98118919585E+01 -0.21684741086E+02 -0.51152300027E+02  0.56418605246E+02  0.00000000000E+00 0.  1.
         22    1    4    4    0    0  0.71612060060E+00  0.61352361767E+01 -0.17520067941E+03  0.17530953203E+03  0.00000000000E+00 0.  1.
         22    1    4    4    0    0  0.90957713579E+01  0.15549504909E+02 -0.45917122366E+03  0.45952446376E+03  0.00000000000E+00 0.  1.
<mgrwt>
<rscale>  0 0.88807237E+02</rscale>
<asrwt>0</asrwt>
<pdfrwt beam="2">  1        2 0.10590578E+00 0.88807237E+02</pdfrwt>
<pdfrwt beam="1">  1       -2 0.44064654E-03 0.88807237E+02</pdfrwt>
<totfact> 0.25317342E+05</totfact>
</mgrwt>
</event>
<event>
 7    1  0.3337990E-009  0.9008245E+02  0.7818608E-02  0.1302652E+00
          2   -1    0    0  501    0  0.00000000000E+00  0.00000000000E+00  0.50795708457E+02  0.50795708521E+02  0.25500000000E-02 0.  1.
         -2   -1    0    0    0  501 -0.00000000000E+00 -0.00000000000E+00 -0.39938644621E+02  0.39938644702E+02  0.25500000000E-02 0. -1.
         23    2    1    2    0    0  0.00000000000E+00  0.00000000000E+00  0.10857063836E+02  0.90734353223E+02  0.90082445680E+02 0.  0.
    9000005    2    3    3    0    0 -0.17952700337E+02  0.40495987690E+02  0.77386578782E+01  0.46327721691E+02  0.11142104960E+02 0.  0.
         22    1    3    3    0    0  0.17952700337E+02 -0.40495987690E+02  0.31184059582E+01  0.44406631532E+02  0.00000000000E+00 0.  1.
         22    1    4    4    0    0 -0.82781269370E+01  0.28667479940E+02  0.85057939007E+01  0.31027412422E+02  0.00000000000E+00 0. -1.
         22    1    4    4    0    0 -0.96745733998E+01  0.11828507750E+02 -0.76713602250E+00  0.15300309269E+02  0.00000000000E+00 0. -1.
<mgrwt>
<rscale>  0 0.90082446E+02</rscale>
<asrwt>0</asrwt>
<pdfrwt beam="1">  1        2 0.78147244E-02 0.90082446E+02</pdfrwt>
<pdfrwt beam="2">  1       -2 0.61444069E-02 0.90082446E+02</pdfrwt>
<totfact> 0.10504187E+05</totfact>
</mgrwt>
</event>
<event>
 7    1  0.3337990E-009  0.9149974E+02  0.7818608E-02  0.1299260E+00
         -2   -1    0    0    0  501 -0.00000000000E+00  0.00000000000E+00  0.23873727389E+01  0.23873741007E+01  0.25500000000E-02 0.  1.
          2   -1    0    0  501    0  0.00000000000E+00 -0.00000000000E+00 -0.87671691255E+03  0.87671691256E+03  0.25500000000E-02 0. -1.
         23    2    1    2    0    0  0.00000000000E+00  0.00000000000E+00 -0.87432953981E+03  0.87910428666E+03  0.91499741135E+02 0.  0.
    9000005    2    3    3    0    0  0.47523460697E+01  0.27604958490E+02 -0.78296729760E+03  0.78354447382E+03  0.10933198177E+02 0.  0.
         22    1    3    3    0    0 -0.47523460697E+01 -0.27604958490E+02 -0.91362242217E+02  0.95559812837E+02  0.00000000000E+00 0.  1.
         22    1    4    4    0    0 -0.17487442434E+01  0.11845174408E+02 -0.22668011585E+03  0.22699612593E+03  0.00000000000E+00 0.  1.
         22    1    4    4    0    0  0.65010903131E+01  0.15759784083E+02 -0.55628718174E+03  0.55654834789E+03  0.00000000000E+00 0.  1.
<mgrwt>
<rscale>  0 0.91499741E+02</rscale>
<asrwt>0</asrwt>
<pdfrwt beam="2">  1        2 0.13487927E+00 0.91499741E+02</pdfrwt>
<pdfrwt beam="1">  1       -2 0.36728892E-03 0.91499741E+02</pdfrwt>
<totfact> 0.24487084E+05</totfact>
</mgrwt>
</event>
<event>
 7    1  0.3337990E-009  0.8895312E+02  0.7818608E-02  0.1305407E+00
          2   -1    0    0  501    0  0.00000000000E+00  0.00000000000E+00  0.21506425494E+04  0.21506425494E+04  0.25500000000E-02 0. -1.
         -2   -1    0    0    0  501 -0.00000000000E+00 -0.00000000000E+00 -0.91979979064E+00  0.91980332537E+00  0.25500000000E-02 0.  1.
         23    2    1    2    0    0  0.17763568394E-14  0.17763568394E-14  0.21497227496E+04  0.21515623528E+04  0.88953119584E+02 0.  0.
    9000005    2    3    3    0    0  0.11395018863E+02  0.14742208627E+02  0.20501628961E+04  0.20502739349E+04  0.10398466753E+02 0.  0.
         22    1    3    3    0    0 -0.11395018863E+02 -0.14742208627E+02  0.99559853502E+02  0.10128841789E+03  0.00000000000E+00 0.  1.
         22    1    4    4    0    0  0.70594467262E+01  0.13387505041E+01  0.61861307081E+03  0.61865479826E+03  0.00000000000E+00 0.  1.
         22    1    4    4    0    0  0.43355721367E+01  0.13403458122E+02  0.14315498253E+04  0.14316191366E+04  0.00000000000E+00 0.  1.
<mgrwt>
<rscale>  0 0.88953120E+02</rscale>
<asrwt>0</asrwt>
<pdfrwt beam="1">  1        2 0.33086690E+00 0.88953120E+02</pdfrwt>
<pdfrwt beam="2">  1       -2 0.14150844E-03 0.88953120E+02</pdfrwt>
<totfact> 0.19496841E+05</totfact>
</mgrwt>
</event>
<event>
 7    1  0.3337990E-009  0.9055714E+02  0.7818608E-02  0.1301508E+00
         -2   -1    0    0    0  501 -0.00000000000E+00  0.00000000000E+00  0.82747180334E+01  0.82747184263E+01  0.25500000000E-02 0.  1.
          2   -1    0    0  501    0  0.00000000000E+00 -0.00000000000E+00 -0.24776055749E+03  0.24776055750E+03  0.25500000000E-02 0. -1.
         23    2    1    2    0    0  0.00000000000E+00 -0.35527136788E-14 -0.23948583945E+03  0.25603527593E+03  0.90557137874E+02 0.  0.
    9000005    2    3    3    0    0 -0.27283584633E+02  0.30796098959E+02 -0.70394868743E+02  0.82010708473E+02  0.88048314747E+01 0.  0.
         22    1    3    3    0    0  0.27283584633E+02 -0.30796098959E+02 -0.16909097071E+03  0.17402456745E+03  0.00000000000E+00 0. -1.
         22    1    4    4    0    0 -0.30473241700E+01  0.31399132051E+00 -0.40082543290E+01  0.50448863131E+01  0.00000000000E+00 0.  1.
         22    1    4    4    0    0 -0.24236260463E+02  0.30482107639E+02 -0.66386614414E+02  0.76965822159E+02  0.00000000000E+00 0.  1.
<mgrwt>
<rscale>  0 0.90557138E+02</rscale>
<asrwt>0</asrwt>
<pdfrwt beam="2">  1        2 0.38117003E-01 0.90557138E+02</pdfrwt>
<pdfrwt beam="1">  1       -2 0.12730338E-02 0.90557138E+02</pdfrwt>
<totfact> 0.17038438E+05</totfact>
</mgrwt>
</event>
<event>
 7    1  0.3337990E-009  0.9269493E+02  0.7818608E-02  0.1296454E+00
          2   -1    0    0  501    0  0.00000000000E+00  0.00000000000E+00  0.21037337356E+03  0.21037337358E+03  0.25500000000E-02 0. -1.
         -2   -1    0    0    0  501 -0.00000000000E+00 -0.00000000000E+00 -0.10210833918E+02  0.10210834237E+02  0.25500000000E-02 0.  1.
         23    2    1    2    0    0  0.71054273576E-14 -0.35527136788E-14  0.20016253965E+03  0.22058420782E+03  0.92694932226E+02 0.  0.
    9000005    2    3    3    0    0  0.39972324359E+02 -0.19172952492E+02  0.70448964152E+02  0.83503937576E+02  0.66679995902E+01 0.  0.
         22    1    3    3    0    0 -0.39972324359E+02  0.19172952492E+02  0.12971357549E+03  0.13708027024E+03  0.00000000000E+00 0. -1.
         22    1    4    4    0    0  0.34922784540E+02 -0.16343801347E+02  0.56512659430E+02  0.68413459190E+02  0.00000000000E+00 0.  1.
         22    1    4    4    0    0  0.50495398191E+01 -0.28291511454E+01  0.13936304723E+02  0.15090478386E+02  0.00000000000E+00 0.  1.
<mgrwt>
<rscale>  0 0.92694932E+02</rscale>
<asrwt>0</asrwt>
<pdfrwt beam="1">  1        2 0.32365136E-01 0.92694932E+02</pdfrwt>
<pdfrwt beam="2">  1       -2 0.15708975E-02 0.92694932E+02</pdfrwt>
<totfact> 0.15069062E+05</totfact>
</mgrwt>
</event>
<event>
 7    1  0.3337990E-009  0.9107239E+02  0.7818608E-02  0.1300275E+00
          2   -1    0    0  501    0  0.00000000000E+00  0.00000000000E+00  0.16209279882E+04  0.16209279882E+04  0.25500000000E-02 0. -1.
         -2   -1    0    0    0  501 -0.00000000000E+00 -0.00000000000E+00 -0.12792319995E+01  0.12792345411E+01  0.25500000000E-02 0.  1.
         23    2    1    2    0    0  0.00000000000E+00  0.17763568394E-14  0.16196487562E+04  0.16222072227E+04  0.91072389108E+02 0.  0.
    9000005    2    3    3    0    0  0.16112272026E+02  0.80706057306E+01  0.15541596338E+04  0.15542839930E+04  0.78627957090E+01 0.  0.
         22    1    3    3    0    0 -0.16112272026E+02 -0.80706057306E+01  0.65489122377E+02  0.67923229726E+02  0.00000000000E+00 0.  1.
         22    1    4    4    0    0  0.15210809064E+02  0.86131991165E+01  0.12464941595E+04  0.12466167196E+04  0.00000000000E+00 0.  1.
         22    1    4    4    0    0  0.90146296178E+00 -0.54259338595E+00  0.30766547427E+03  0.30766727336E+03  0.00000000000E+00 0.  1.
<mgrwt>
<rscale>  0 0.91072389E+02</rscale>
<asrwt>0</asrwt>
<pdfrwt beam="1">  1        2 0.24937278E+00 0.91072389E+02</pdfrwt>
<pdfrwt beam="2">  1       -2 0.19680571E-03 0.91072389E+02</pdfrwt>
<totfact> 0.22878178E+05</totfact>
</mgrwt>
</event>
<event>
 7    1  0.3337990E-009  0.8619595E+02  0.7818608E-02  0.1312334E+00
          2   -1    0    0  501    0  0.00000000000E+00  0.00000000000E+00  0.69804501301E+02  0.69804501347E+02  0.25500000000E-02 0.  1.
         -2   -1    0    0    0  501 -0.00000000000E+00 -0.00000000000E+00 -0.26609105375E+02  0.26609105497E+02  0.25500000000E-02 0. -1.
         23    2    1    2    0    0  0.00000000000E+00 -0.35527136788E-14  0.43195395926E+02  0.96413606844E+02  0.86195947442E+02 0.  0.
    9000005    2    3    3    0    0 -0.21408443745E+02 -0.31080064015E+02 -0.15348527219E+01  0.37889364116E+02  0.29927073927E+01 0.  0.
         22    1    3    3    0    0  0.21408443745E+02  0.31080064015E+02  0.44730248648E+02  0.58524242727E+02  0.00000000000E+00 0. -1.
         22    1    4    4    0    0 -0.12538230004E+02 -0.16349461869E+02 -0.18936068895E+01  0.20690525901E+02  0.00000000000E+00 0. -1.
         22    1    4    4    0    0 -0.88702137410E+01 -0.14730602146E+02  0.35875416765E+00  0.17198838215E+02  0.00000000000E+00 0. -1.
<mgrwt>
<rscale>  0 0.86195947E+02</rscale>
<asrwt>0</asrwt>
<pdfrwt beam="1">  1        2 0.10739154E-01 0.86195947E+02</pdfrwt>
<pdfrwt beam="2">  1       -2 0.40937086E-02 0.86195947E+02</pdfrwt>
<totfact> 0.12923630E+05</totfact>
</mgrwt>
</event>
<event>
 7    1  0.3337990E-009  0.7139021E+02  0.7818608E-02  0.1355428E+00
         -2   -1    0    0    0  501 -0.00000000000E+00  0.00000000000E+00  0.50607944743E+03  0.50607944743E+03  0.25500000000E-02 0.  1.
          2   -1    0    0  501    0  0.00000000000E+00 -0.00000000000E+00 -0.25176681882E+01  0.25176694796E+01  0.25500000000E-02 0. -1.
         23    2    1    2    0    0  0.35527136788E-14  0.00000000000E+00  0.50356177924E+03  0.50859711691E+03  0.71390208167E+02 0.  0.
    9000005    2    3    3    0    0 -0.19437393862E+02  0.94609983991E+01  0.45156863913E+03  0.45228895241E+03  0.13554993896E+02 0.  0.
         22    1    3    3    0    0  0.19437393862E+02 -0.94609983991E+01  0.51993140114E+02  0.56308164504E+02  0.00000000000E+00 0. -1.
         22    1    4    4    0    0 -0.30811850093E+01  0.57839516793E+01  0.59063596164E+02  0.59426056490E+02  0.00000000000E+00 0. -1.
         22    1    4    4    0    0 -0.16356208853E+02  0.36770467198E+01  0.39250504296E+03  0.39286289592E+03  0.00000000000E+00 0. -1.
<mgrwt>
<rscale>  0 0.71390208E+02</rscale>
<asrwt>0</asrwt>
<pdfrwt beam="2">  1        2 0.38733342E-03 0.71390208E+02</pdfrwt>
<pdfrwt beam="1">  1       -2 0.77858426E-01 0.71390208E+02</pdfrwt>
<totfact> 0.67396843E+04</totfact>
</mgrwt>
</event>
<event>
 7    1  0.3337990E-009  0.9089419E+02  0.7818608E-02  0.1300701E+00
          2   -1    0    0  501    0  0.00000000000E+00  0.00000000000E+00  0.18193819064E+04  0.18193819064E+04  0.25500000000E-02 0. -1.
         -2   -1    0    0    0  501 -0.00000000000E+00 -0.00000000000E+00 -0.11352404073E+01  0.11352432712E+01  0.25500000000E-02 0.  1.
         23    2    1    2    0    0  0.00000000000E+00  0.17763568394E-14  0.18182466660E+04  0.18205171497E+04  0.90894190463E+02 0.  0.
    9000005    2    3    3    0    0 -0.51065345189E+01  0.14315357516E+02  0.17668208913E+04  0.17668923750E+04  0.46472307145E+01 0.  0.
         22    1    3    3    0    0  0.51065345189E+01 -0.14315357516E+02  0.51425774674E+02  0.53624774652E+02  0.00000000000E+00 0.  1.
         22    1    4    4    0    0  0.79037635237E+00  0.31851177643E+01  0.39823538806E+03  0.39824890957E+03  0.00000000000E+00 0.  1.
         22    1    4    4    0    0 -0.58969108712E+01  0.11130239752E+02  0.13685855033E+04  0.13686434655E+04  0.00000000000E+00 0.  1.
<mgrwt>
<rscale>  0 0.90894190E+02</rscale>
<asrwt>0</asrwt>
<pdfrwt beam="1">  1        2 0.27990380E+00 0.90894190E+02</pdfrwt>
<pdfrwt beam="2">  1       -2 0.17465328E-03 0.90894190E+02</pdfrwt>
<totfact> 0.21446771E+05</totfact>
</mgrwt>
</event>
<event>
 7    1  0.3337990E-009  0.9154162E+02  0.7818608E-02  0.1299161E+00
         -2   -1    0    0    0  501 -0.00000000000E+00  0.00000000000E+00  0.63426430729E+01  0.63426435855E+01  0.25500000000E-02 0.  1.
          2   -1    0    0  501    0  0.00000000000E+00 -0.00000000000E+00 -0.33029873054E+03  0.33029873055E+03  0.25500000000E-02 0. -1.
         23    2    1    2    0    0  0.00000000000E+00  0.17763568394E-14 -0.32395608746E+03  0.33664137413E+03  0.91541619893E+02 0.  0.
    9000005    2    3    3    0    0 -0.97473672682E+01  0.14916138387E+02 -0.31661808460E+03  0.31737096575E+03  0.12641837532E+02 0.  0.
         22    1    3    3    0    0  0.97473672682E+01 -0.14916138387E+02 -0.73380028681E+01  0.19270408380E+02  0.00000000000E+00 0.  1.
         22    1    4    4    0    0 -0.11872848733E+02  0.15001700035E+02 -0.25522537356E+03  0.25594141293E+03  0.00000000000E+00 0. -1.
         22    1    4    4    0    0  0.21254814648E+01 -0.85561648120E-01 -0.61392711031E+02  0.61429552823E+02  0.00000000000E+00 0. -1.
<mgrwt>
<rscale>  0 0.91541620E+02</rscale>
<asrwt>0</asrwt>
<pdfrwt beam="2">  1        2 0.50815176E-01 0.91541620E+02</pdfrwt>
<pdfrwt beam="1">  1       -2 0.97579154E-03 0.91541620E+02</pdfrwt>
<totfact> 0.18421747E+05</totfact>
</mgrwt>
</event>
<event>
 7    1  0.3337990E-009  0.9754982E+02  0.7818608E-02  0.1285534E+00
          2   -1    0    0  501    0  0.00000000000E+00  0.00000000000E+00  0.90904192693E+03  0.90904192693E+03  0.25500000000E-02 0. -1.
         -2   -1    0    0    0  501 -0.00000000000E+00 -0.00000000000E+00 -0.26170313486E+01  0.26170325910E+01  0.25500000000E-02 0.  1.
         23    2    1    2    0    0  0.35527136788E-14  0.71054273576E-14  0.90642489558E+03  0.91165895952E+03  0.97549818820E+02 0.  0.
    9000005    2    3    3    0    0 -0.26150584392E+02 -0.35149163994E+02  0.65115341029E+03  0.65265539199E+03  0.62434097906E+01 0.  0.
         22    1    3    3    0    0  0.26150584392E+02  0.35149163994E+02  0.25527148529E+03  0.25900356753E+03  0.00000000000E+00 0.  1.
         22    1    4    4    0    0 -0.42457178122E+01 -0.10217339961E+02  0.16434653641E+03  0.16471856054E+03  0.00000000000E+00 0.  1.
         22    1    4    4    0    0 -0.21904866580E+02 -0.24931824033E+02  0.48680687388E+03  0.48793683145E+03  0.00000000000E+00 0.  1.
<mgrwt>
<rscale>  0 0.97549819E+02</rscale>
<asrwt>0</asrwt>
<pdfrwt beam="1">  1        2 0.13985267E+00 0.97549819E+02</pdfrwt>
<pdfrwt beam="2">  1       -2 0.40262011E-03 0.97549819E+02</pdfrwt>
<totfact> 0.20762526E+05</totfact>
</mgrwt>
</event>
<event>
 7    1  0.3337990E-009  0.9070380E+02  0.7818608E-02  0.1301156E+00
          2   -1    0    0  501    0  0.00000000000E+00  0.00000000000E+00  0.41275828589E+02  0.41275828668E+02  0.25500000000E-02 0. -1.
         -2   -1    0    0    0  501 -0.00000000000E+00 -0.00000000000E+00 -0.49830487296E+02  0.49830487361E+02  0.25500000000E-02 0.  1.
         23    2    1    2    0    0  0.35527136788E-14  0.00000000000E+00 -0.85546587063E+01  0.91106316029E+02  0.90703796143E+02 0.  0.
    9000005    2    3    3    0    0 -0.31322661670E+02  0.85739851413E+01  0.26344849724E+02  0.43434541949E+02  0.11742485768E+02 0.  0.
         22    1    3    3    0    0  0.31322661670E+02 -0.85739851413E+01 -0.34899508430E+02  0.47671774080E+02  0.00000000000E+00 0.  1.
         22    1    4    4    0    0 -0.17612087184E+02  0.10449257363E+02  0.13310131266E+02  0.24424008449E+02  0.00000000000E+00 0.  1.
         22    1    4    4    0    0 -0.13710574486E+02 -0.18752722221E+01  0.13034718458E+02  0.19010533499E+02  0.00000000000E+00 0.  1.
<mgrwt>
<rscale>  0 0.90703796E+02</rscale>
<asrwt>0</asrwt>
<pdfrwt beam="1">  1        2 0.63501275E-02 0.90703796E+02</pdfrwt>
<pdfrwt beam="2">  1       -2 0.76662288E-02 0.90703796E+02</pdfrwt>
<totfact> 0.97621868E+04</totfact>
</mgrwt>
</event>
<event>
 7    1  0.3337990E-009  0.9161553E+02  0.7818608E-02  0.1298986E+00
          2   -1    0    0  501    0  0.00000000000E+00  0.00000000000E+00  0.68898583734E+02  0.68898583782E+02  0.25500000000E-02 0. -1.
         -2   -1    0    0    0  501 -0.00000000000E+00 -0.00000000000E+00 -0.30455653614E+02  0.30455653720E+02  0.25500000000E-02 0.  1.
         23    2    1    2    0    0  0.00000000000E+00  0.22204460493E-15  0.38442930121E+02  0.99354237502E+02  0.91615531616E+02 0.  0.
    9000005    2    3    3    0    0 -0.31455666319E+02 -0.10329850358E+01  0.54179061196E+02  0.64166855916E+02  0.13837945094E+02 0.  0.
         22    1    3    3    0    0  0.31455666319E+02  0.10329850358E+01 -0.15736131075E+02  0.35187381586E+02  0.00000000000E+00 0.  1.
         22    1    4    4    0    0 -0.98242120391E+01  0.28495556308E+01  0.78658900809E+01  0.12903772171E+02  0.00000000000E+00 0.  1.
         22    1    4    4    0    0 -0.21631454280E+02 -0.38825406666E+01  0.46313171115E+02  0.51263083745E+02  0.00000000000E+00 0.  1.
<mgrwt>
<rscale>  0 0.91615532E+02</rscale>
<asrwt>0</asrwt>
<pdfrwt beam="1">  1        2 0.10599782E-01 0.91615532E+02</pdfrwt>
<pdfrwt beam="2">  1       -2 0.46854853E-02 0.91615532E+02</pdfrwt>
<totfact> 0.10866316E+05</totfact>
</mgrwt>
</event>
<event>
 7    1  0.3337990E-009  0.8946338E+02  0.7818608E-02  0.1304156E+00
         -2   -1    0    0    0  501 -0.00000000000E+00  0.00000000000E+00  0.20879834620E+02  0.20879834776E+02  0.25500000000E-02 0.  1.
          2   -1    0    0  501    0  0.00000000000E+00 -0.00000000000E+00 -0.95830459573E+02  0.95830459607E+02  0.25500000000E-02 0. -1.
         23    2    1    2    0    0  0.17763568394E-14 -0.35527136788E-14 -0.74950624954E+02  0.11671029438E+03  0.89463381526E+02 0.  0.
    9000005    2    3    3    0    0  0.15038699806E+02 -0.29151350723E+02  0.99143902301E+00  0.33986894901E+02  0.88409463778E+01 0.  0.
         22    1    3    3    0    0 -0.15038699806E+02  0.29151350723E+02 -0.75942063977E+02  0.82723399482E+02  0.00000000000E+00 0. -1.
         22    1    4    4    0    0  0.10255530735E+02 -0.10679902493E+02 -0.75902256612E+00  0.14826069714E+02  0.00000000000E+00 0. -1.
         22    1    4    4    0    0  0.47831690713E+01 -0.18471448230E+02  0.17504615891E+01  0.19160825187E+02  0.00000000000E+00 0. -1.
<mgrwt>
<rscale>  0 0.89463382E+02</rscale>
<asrwt>0</asrwt>
<pdfrwt beam="2">  1        2 0.14743147E-01 0.89463382E+02</pdfrwt>
<pdfrwt beam="1">  1       -2 0.32122823E-02 0.89463382E+02</pdfrwt>
<totfact> 0.12759483E+05</totfact>
</mgrwt>
</event>
<event>
 7    1  0.3337990E-009  0.8933817E+02  0.7818608E-02  0.1304462E+00
         -2   -1    0    0    0  501 -0.00000000000E+00  0.00000000000E+00  0.12614429556E+03  0.12614429558E+03  0.25500000000E-02 0.  1.
          2   -1    0    0  501    0  0.00000000000E+00 -0.00000000000E+00 -0.15817813710E+02  0.15817813916E+02  0.25500000000E-02 0. -1.
         23    2    1    2    0    0  0.00000000000E+00  0.00000000000E+00  0.11032648185E+03  0.14196210950E+03  0.89338166180E+02 0.  0.
    9000005    2    3    3    0    0 -0.37038122949E+02 -0.53385044892E+01  0.91861678324E+02  0.10023356829E+03  0.14417977898E+02 0.  0.
         22    1    3    3    0    0  0.37038122949E+02  0.53385044892E+01  0.18464803521E+02  0.41728541202E+02  0.00000000000E+00 0. -1.
         22    1    4    4    0    0 -0.53319380398E+01 -0.30875688573E+01  0.56917144690E+01  0.83879829700E+01  0.00000000000E+00 0. -1.
         22    1    4    4    0    0 -0.31706184910E+02 -0.22509356319E+01  0.86169963855E+02  0.91845585324E+02  0.00000000000E+00 0. -1.
<mgrwt>
<rscale>  0 0.89338166E+02</rscale>
<asrwt>0</asrwt>
<pdfrwt beam="2">  1        2 0.24335098E-02 0.89338166E+02</pdfrwt>
<pdfrwt beam="1">  1       -2 0.19406815E-01 0.89338166E+02</pdfrwt>
<totfact> 0.78088743E+04</totfact>
</mgrwt>
</event>
<event>
 7    1  0.3337990E-009  0.9052112E+02  0.7818608E-02  0.1301595E+00
          2   -1    0    0  501    0  0.00000000000E+00  0.00000000000E+00  0.84096394994E+02  0.84096395033E+02  0.25500000000E-02 0.  1.
         -2   -1    0    0    0  501 -0.00000000000E+00 -0.00000000000E+00 -0.24359171086E+02  0.24359171219E+02  0.25500000000E-02 0. -1.
         23    2    1    2    0    0  0.00000000000E+00  0.00000000000E+00  0.59737223909E+02  0.10845556625E+03  0.90521124224E+02 0.  0.
    9000005    2    3    3    0    0 -0.43985268864E+02  0.70664661900E+01  0.26260219654E+02  0.52729911161E+02  0.10305608831E+02 0.  0.
         22    1    3    3    0    0  0.43985268864E+02 -0.70664661900E+01  0.33477004255E+02  0.55725655091E+02  0.00000000000E+00 0.  1.
         22    1    4    4    0    0 -0.29207280914E+02  0.37842242643E+01  0.22685429231E+02  0.37175453071E+02  0.00000000000E+00 0. -1.
         22    1    4    4    0    0 -0.14777987950E+02  0.32822419257E+01  0.35747904229E+01  0.15554458090E+02  0.00000000000E+00 0. -1.
<mgrwt>
<rscale>  0 0.90521124E+02</rscale>
<asrwt>0</asrwt>
<pdfrwt beam="1">  1        2 0.12937907E-01 0.90521124E+02</pdfrwt>
<pdfrwt beam="2">  1       -2 0.37475648E-02 0.90521124E+02</pdfrwt>
<totfact> 0.11887211E+05</totfact>
</mgrwt>
</event>
<event>
 7    1  0.3337990E-009  0.9071994E+02  0.7818608E-02  0.1301118E+00
          2   -1    0    0  501    0  0.00000000000E+00  0.00000000000E+00  0.67500612057E+03  0.67500612058E+03  0.25500000000E-02 0. -1.
         -2   -1    0    0    0  501 -0.00000000000E+00 -0.00000000000E+00 -0.30481597773E+01  0.30481608439E+01  0.25500000000E-02 0.  1.
         23    2    1    2    0    0 -0.17763568394E-14  0.00000000000E+00  0.67195796079E+03  0.67805428142E+03  0.90719939802E+02 0.  0.
    9000005    2    3    3    0    0  0.12943561083E+02 -0.13426228693E+01  0.66070481586E+03  0.66085045392E+03  0.48094010783E+01 0.  0.
         22    1    3    3    0    0 -0.12943561083E+02  0.13426228693E+01  0.11253144934E+02  0.17203827498E+02  0.00000000000E+00 0.  1.
         22    1    4    4    0    0  0.59087088951E+01 -0.86942078516E+00  0.41979816059E+03  0.41984064164E+03  0.00000000000E+00 0.  1.
         22    1    4    4    0    0  0.70348521879E+01 -0.47320208413E+00  0.24090665527E+03  0.24100981228E+03  0.00000000000E+00 0.  1.
<mgrwt>
<rscale>  0 0.90719940E+02</rscale>
<asrwt>0</asrwt>
<pdfrwt beam="1">  1        2 0.10384710E+00 0.90719940E+02</pdfrwt>
<pdfrwt beam="2">  1       -2 0.46894770E-03 0.90719940E+02</pdfrwt>
<totfact> 0.23822198E+05</totfact>
</mgrwt>
</event>
<event>
 7    1  0.3337990E-009  0.9121503E+02  0.7818608E-02  0.1299936E+00
         -2   -1    0    0    0  501 -0.00000000000E+00  0.00000000000E+00  0.60247289840E+03  0.60247289841E+03  0.25500000000E-02 0.  1.
          2   -1    0    0  501    0  0.00000000000E+00 -0.00000000000E+00 -0.34525125274E+01  0.34525134691E+01  0.25500000000E-02 0. -1.
         23    2    1    2    0    0  0.35527136788E-14  0.00000000000E+00  0.59902038588E+03  0.60592541188E+03  0.91215032008E+02 0.  0.
    9000005    2    3    3    0    0 -0.28669877304E+02  0.18145083543E+02  0.49890273019E+03  0.50021471752E+03  0.12634219873E+02 0.  0.
         22    1    3    3    0    0  0.28669877304E+02 -0.18145083543E+02  0.10011765568E+03  0.10571069435E+03  0.00000000000E+00 0. -1.
         22    1    4    4    0    0 -0.16323254595E+02  0.45831035798E+01  0.29584379040E+03  0.29632921185E+03  0.00000000000E+00 0.  1.
         22    1    4    4    0    0 -0.12346622709E+02  0.13561979963E+02  0.20305893980E+03  0.20388550567E+03  0.00000000000E+00 0.  1.
<mgrwt>
<rscale>  0 0.91215032E+02</rscale>
<asrwt>0</asrwt>
<pdfrwt beam="2">  1        2 0.53115618E-03 0.91215032E+02</pdfrwt>
<pdfrwt beam="1">  1       -2 0.92688081E-01 0.91215032E+02</pdfrwt>
<totfact> 0.31117769E+04</totfact>
</mgrwt>
</event>
<event>
 7    1  0.3337990E-009  0.9225404E+02  0.7818608E-02  0.1297483E+00
         -2   -1    0    0    0  501 -0.00000000000E+00  0.00000000000E+00  0.10084992655E+02  0.10084992977E+02  0.25500000000E-02 0.  1.
          2   -1    0    0  501    0  0.00000000000E+00 -0.00000000000E+00 -0.21097705386E+03  0.21097705388E+03  0.25500000000E-02 0. -1.
         23    2    1    2    0    0  0.00000000000E+00  0.00000000000E+00 -0.20089206121E+03  0.22106204686E+03  0.92254042207E+02 0.  0.
    9000005    2    3    3    0    0  0.42059548985E+01  0.42705978619E+02 -0.63458722910E+02  0.77084919706E+02  0.85781505162E+01 0.  0.
         22    1    3    3    0    0 -0.42059548985E+01 -0.42705978619E+02 -0.13743333830E+03  0.14397712715E+03  0.00000000000E+00 0. -1.
         22    1    4    4    0    0  0.15503291760E+01  0.33840331778E+02 -0.54714566719E+02  0.64352586480E+02  0.00000000000E+00 0. -1.
         22    1    4    4    0    0  0.26556257225E+01  0.88656468413E+01 -0.87441561917E+01  0.12732333227E+02  0.00000000000E+00 0. -1.
<mgrwt>
<rscale>  0 0.92254042E+02</rscale>
<asrwt>0</asrwt>
<pdfrwt beam="2">  1        2 0.32458005E-01 0.92254042E+02</pdfrwt>
<pdfrwt beam="1">  1       -2 0.15515375E-02 0.92254042E+02</pdfrwt>
<totfact> 0.15279939E+05</totfact>
</mgrwt>
</event>
<event>
 7    1  0.3337990E-009  0.9074412E+02  0.7818608E-02  0.1301060E+00
          2   -1    0    0  501    0  0.00000000000E+00  0.00000000000E+00  0.50734089411E+02  0.50734089475E+02  0.25500000000E-02 0. -1.
         -2   -1    0    0    0  501 -0.00000000000E+00 -0.00000000000E+00 -0.40576737371E+02  0.40576737451E+02  0.25500000000E-02 0.  1.
         23    2    1    2    0    0 -0.17763568394E-14  0.00000000000E+00  0.10157352039E+02  0.91310826926E+02  0.90744119994E+02 0.  0.
    9000005    2    3    3    0    0  0.12022428322E+02 -0.16861098353E+02  0.44588930476E+02  0.51131615708E+02  0.14051120365E+02 0.  0.
         22    1    3    3    0    0 -0.12022428322E+02  0.16861098353E+02 -0.34431578437E+02  0.40179211218E+02  0.00000000000E+00 0.  1.
         22    1    4    4    0    0  0.35615630791E+01 -0.83262538134E+01  0.63812130536E+01  0.11078407565E+02  0.00000000000E+00 0.  1.
         22    1    4    4    0    0  0.84608652431E+01 -0.85348445392E+01  0.38207717423E+02  0.40053208144E+02  0.00000000000E+00 0.  1.
<mgrwt>
<rscale>  0 0.90744120E+02</rscale>
<asrwt>0</asrwt>
<pdfrwt beam="1">  1        2 0.78052446E-02 0.90744120E+02</pdfrwt>
<pdfrwt beam="2">  1       -2 0.62425750E-02 0.90744120E+02</pdfrwt>
<totfact> 0.10284712E+05</totfact>
</mgrwt>
</event>
<event>
 7    1  0.3337990E-009  0.9131436E+02  0.7818608E-02  0.1299700E+00
          2   -1    0    0  501    0  0.00000000000E+00  0.00000000000E+00  0.30035769501E+02  0.30035769610E+02  0.25500000000E-02 0. -1.
         -2   -1    0    0    0  501 -0.00000000000E+00 -0.00000000000E+00 -0.69403192890E+02  0.69403192937E+02  0.25500000000E-02 0.  1.
         23    2    1    2    0    0  0.00000000000E+00  0.00000000000E+00 -0.39367423389E+02  0.99438962546E+02  0.91314364960E+02 0.  0.
    9000005    2    3    3    0    0 -0.35881438508E+02 -0.87003761704E+01  0.72741938053E+01  0.39952706744E+02  0.13421278097E+02 0.  0.
         22    1    3    3    0    0  0.35881438508E+02  0.87003761704E+01 -0.46641617194E+02  0.59486255802E+02  0.00000000000E+00 0.  1.
         22    1    4    4    0    0 -0.86746543471E+01 -0.78386135947E-01 -0.36252063846E+01  0.94020154094E+01  0.00000000000E+00 0.  1.
         22    1    4    4    0    0 -0.27206784161E+02 -0.86219900344E+01  0.10899400190E+02  0.30550691335E+02  0.00000000000E+00 0.  1.
<mgrwt>
<rscale>  0 0.91314365E+02</rscale>
<asrwt>0</asrwt>
<pdfrwt beam="1">  1        2 0.46208876E-02 0.91314365E+02</pdfrwt>
<pdfrwt beam="2">  1       -2 0.10677414E-01 0.91314365E+02</pdfrwt>
<totfact> 0.88098821E+04</totfact>
</mgrwt>
</event>
<event>
 7    1  0.3337990E-009  0.9019530E+02  0.7818608E-02  0.1302379E+00
          2   -1    0    0  501    0  0.00000000000E+00  0.00000000000E+00  0.71404600223E+02  0.71404600268E+02  0.25500000000E-02 0. -1.
         -2   -1    0    0    0  501 -0.00000000000E+00 -0.00000000000E+00 -0.28482733803E+02  0.28482733917E+02  0.25500000000E-02 0.  1.
         23    2    1    2    0    0  0.00000000000E+00 -0.44408920985E-15  0.42921866420E+02  0.99887334185E+02  0.90195304277E+02 0.  0.
    9000005    2    3    3    0    0  0.17023018577E+02 -0.26614210755E+01  0.67180915652E+02  0.70132203649E+02  0.10410775052E+02 0.  0.
         22    1    3    3    0    0 -0.17023018577E+02  0.26614210755E+01 -0.24259049232E+02  0.29755130536E+02  0.00000000000E+00 0.  1.
         22    1    4    4    0    0  0.13473075395E+02 -0.31481740660E+01  0.63520575173E+02  0.65009985624E+02  0.00000000000E+00 0.  1.
         22    1    4    4    0    0  0.35499431821E+01  0.48675299048E+00  0.36603404789E+01  0.51222180246E+01  0.00000000000E+00 0.  1.
<mgrwt>
<rscale>  0 0.90195304E+02</rscale>
<asrwt>0</asrwt>
<pdfrwt beam="1">  1        2 0.10985323E-01 0.90195304E+02</pdfrwt>
<pdfrwt beam="2">  1       -2 0.43819591E-02 0.90195304E+02</pdfrwt>
<totfact> 0.11464212E+05</totfact>
</mgrwt>
</event>
<event>
 7    1  0.3337990E-009  0.9306950E+02  0.7818608E-02  0.1295584E+00
          2   -1    0    0  501    0  0.00000000000E+00  0.00000000000E+00  0.27365537115E+03  0.27365537116E+03  0.25500000000E-02 0. -1.
         -2   -1    0    0    0  501 -0.00000000000E+00 -0.00000000000E+00 -0.79131760326E+01  0.79131764435E+01  0.25500000000E-02 0.  1.
         23    2    1    2    0    0  0.00000000000E+00  0.00000000000E+00  0.26574219511E+03  0.28156854760E+03  0.93069504859E+02 0.  0.
    9000005    2    3    3    0    0  0.15769039335E+02  0.88642035070E+01  0.26240068798E+03  0.26317283138E+03  0.88646161655E+01 0.  0.
         22    1    3    3    0    0 -0.15769039335E+02 -0.88642035070E+01  0.33415071357E+01  0.18395716222E+02  0.00000000000E+00 0.  1.
         22    1    4    4    0    0  0.10678029350E+02  0.10271634579E+02  0.20102606986E+03  0.20157134605E+03  0.00000000000E+00 0. -1.
         22    1    4    4    0    0  0.50910099853E+01 -0.14074310718E+01  0.61374618123E+02  0.61601485328E+02  0.00000000000E+00 0. -1.
<mgrwt>
<rscale>  0 0.93069505E+02</rscale>
<asrwt>0</asrwt>
<pdfrwt beam="1">  1        2 0.42100824E-01 0.93069505E+02</pdfrwt>
<pdfrwt beam="2">  1       -2 0.12174118E-02 0.93069505E+02</pdfrwt>
<totfact> 0.16431220E+05</totfact>
</mgrwt>
</event>
<event>
 7    1  0.3337990E-009  0.9125095E+02  0.7818608E-02  0.1299850E+00
         -2   -1    0    0    0  501 -0.00000000000E+00  0.00000000000E+00  0.92568582653E+01  0.92568586165E+01  0.25500000000E-02 0.  1.
          2   -1    0    0  501    0  0.00000000000E+00 -0.00000000000E+00 -0.22488019646E+03  0.22488019647E+03  0.25500000000E-02 0. -1.
         23    2    1    2    0    0  0.00000000000E+00  0.00000000000E+00 -0.21562333819E+03  0.23413705509E+03  0.91250953925E+02 0.  0.
    9000005    2    3    3    0    0 -0.38297373108E+02  0.22007780570E+02 -0.12893595563E+03  0.13684505393E+03  0.12290522376E+02 0.  0.
         22    1    3    3    0    0  0.38297373108E+02 -0.22007780570E+02 -0.86687382565E+02  0.97292001153E+02  0.00000000000E+00 0.  1.
         22    1    4    4    0    0 -0.26627615604E+02  0.21397592416E+02 -0.96761298222E+02  0.10261401321E+03  0.00000000000E+00 0. -1.
         22    1    4    4    0    0 -0.11669757503E+02  0.61018815398E+00 -0.32174657404E+02  0.34231040721E+02  0.00000000000E+00 0. -1.
<mgrwt>
<rscale>  0 0.91250954E+02</rscale>
<asrwt>0</asrwt>
<pdfrwt beam="2">  1        2 0.34596949E-01 0.91250954E+02</pdfrwt>
<pdfrwt beam="1">  1       -2 0.14241322E-02 0.91250954E+02</pdfrwt>
<totfact> 0.16108152E+05</totfact>
</mgrwt>
</event>
<event>
 7    1  0.3337990E-009  0.8966297E+02  0.7818608E-02  0.1303670E+00
          2   -1    0    0  501    0  0.00000000000E+00  0.00000000000E+00  0.33375557381E+03  0.33375557382E+03  0.25500000000E-02 0. -1.
         -2   -1    0    0    0  501 -0.00000000000E+00 -0.00000000000E+00 -0.60219578967E+01  0.60219584366E+01  0.25500000000E-02 0.  1.
         23    2    1    2    0    0 -0.44408920985E-15  0.35527136788E-14  0.32773361591E+03  0.33977753226E+03  0.89662971324E+02 0.  0.
    9000005    2    3    3    0    0 -0.37285935171E+01  0.29478177846E+02  0.28952285156E+03  0.29137373188E+03  0.13867396069E+02 0.  0.
         22    1    3    3    0    0  0.37285935171E+01 -0.29478177846E+02  0.38210764356E+02  0.48403800382E+02  0.00000000000E+00 0.  1.
         22    1    4    4    0    0 -0.74525665322E+00 -0.47989412983E+00  0.12463179002E+01  0.15293835893E+01  0.00000000000E+00 0.  1.
         22    1    4    4    0    0 -0.29833368639E+01  0.29958071976E+02  0.28827653366E+03  0.28984434829E+03  0.00000000000E+00 0.  1.
<mgrwt>
<rscale>  0 0.89662971E+02</rscale>
<asrwt>0</asrwt>
<pdfrwt beam="1">  1        2 0.51347016E-01 0.89662971E+02</pdfrwt>
<pdfrwt beam="2">  1       -2 0.92645502E-03 0.89662971E+02</pdfrwt>
<totfact> 0.19541427E+05</totfact>
</mgrwt>
</event>
<event>
 7    1  0.3337990E-009  0.9381587E+02  0.7818608E-02  0.1293866E+00
         -2   -1    0    0    0  501 -0.00000000000E+00  0.00000000000E+00  0.36877096989E+02  0.36877097077E+02  0.25500000000E-02 0.  1.
          2   -1    0    0  501    0  0.00000000000E+00 -0.00000000000E+00 -0.59667239550E+02  0.59667239604E+02  0.25500000000E-02 0. -1.
         23    2    1    2    0    0  0.00000000000E+00  0.00000000000E+00 -0.22790142561E+02  0.96544336681E+02  0.93815874708E+02 0.  0.
    9000005    2    3    3    0    0 -0.35670344980E+02 -0.29624055185E+02 -0.13562475620E+02  0.49267407913E+02  0.96632593332E+01 0.  0.
         22    1    3    3    0    0  0.35670344980E+02  0.29624055185E+02 -0.92276669411E+01  0.47276928768E+02  0.00000000000E+00 0.  1.
         22    1    4    4    0    0 -0.66253581363E+01 -0.49800425813E+01 -0.64860119339E+01  0.10524473638E+02  0.00000000000E+00 0. -1.
         22    1    4    4    0    0 -0.29044986844E+02 -0.24644012603E+02 -0.70764636858E+01  0.38742934275E+02  0.00000000000E+00 0. -1.
<mgrwt>
<rscale>  0 0.93815875E+02</rscale>
<asrwt>0</asrwt>
<pdfrwt beam="2">  1        2 0.91795753E-02 0.93815875E+02</pdfrwt>
<pdfrwt beam="1">  1       -2 0.56733995E-02 0.93815875E+02</pdfrwt>
<totfact> 0.97691310E+04</totfact>
</mgrwt>
</event>
<event>
 7    1  0.3337990E-009  0.9156092E+02  0.7818608E-02  0.1299115E+00
         -2   -1    0    0    0  501 -0.00000000000E+00  0.00000000000E+00  0.99507242074E+02  0.99507242107E+02  0.25500000000E-02 0.  1.
          2   -1    0    0  501    0  0.00000000000E+00 -0.00000000000E+00 -0.21062290686E+02  0.21062290840E+02  0.25500000000E-02 0. -1.
         23    2    1    2    0    0  0.00000000000E+00  0.00000000000E+00  0.78444951389E+02  0.12056953295E+03  0.91560918937E+02 0.  0.
    9000005    2    3    3    0    0  0.20825244492E+01 -0.43831560304E+02  0.52211229342E+02  0.69444678334E+02  0.13077013907E+02 0.  0.
         22    1    3    3    0    0 -0.20825244492E+01  0.43831560304E+02  0.26233722047E+02  0.51124854613E+02  0.00000000000E+00 0. -1.
         22    1    4    4    0    0  0.79640408913E+00 -0.30766192539E+02  0.26659720545E+02  0.40717730319E+02  0.00000000000E+00 0. -1.
         22    1    4    4    0    0  0.12861203601E+01 -0.13065367764E+02  0.25551508797E+02  0.28726948014E+02  0.00000000000E+00 0. -1.
<mgrwt>
<rscale>  0 0.91560919E+02</rscale>
<asrwt>0</asrwt>
<pdfrwt beam="2">  1        2 0.32403525E-02 0.91560919E+02</pdfrwt>
<pdfrwt beam="1">  1       -2 0.15308806E-01 0.91560919E+02</pdfrwt>
<totfact> 0.79091575E+04</totfact>
</mgrwt>
</event>
<event>
 7    1  0.3337990E-009  0.9181909E+02  0.7818608E-02  0.1298505E+00
         -2   -1    0    0    0  501 -0.00000000000E+00  0.00000000000E+00  0.82816796159E+01  0.82816800085E+01  0.25500000000E-02 0.  1.
          2   -1    0    0  501    0  0.00000000000E+00 -0.00000000000E+00 -0.25449984776E+03  0.25449984777E+03  0.25500000000E-02 0. -1.
         23    2    1    2    0    0  0.17763568394E-14  0.00000000000E+00 -0.24621816814E+03  0.26278152778E+03  0.91819088532E+02 0.  0.
    9000005    2    3    3    0    0 -0.10565834765E+02 -0.12372325053E+02 -0.24575442464E+03  0.24650496950E+03  0.10234816360E+02 0.  0.
         22    1    3    3    0    0  0.10565834765E+02  0.12372325053E+02 -0.46374350415E+00  0.16276558283E+02  0.00000000000E+00 0.  1.
         22    1    4    4    0    0 -0.46221006968E+01 -0.35336746236E+01 -0.15791176556E+03  0.15801891144E+03  0.00000000000E+00 0.  1.
         22    1    4    4    0    0 -0.59437340680E+01 -0.88386504294E+01 -0.87842659085E+02  0.88486058061E+02  0.00000000000E+00 0.  1.
<mgrwt>
<rscale>  0 0.91819089E+02</rscale>
<asrwt>0</asrwt>
<pdfrwt beam="2">  1        2 0.39153817E-01 0.91819089E+02</pdfrwt>
<pdfrwt beam="1">  1       -2 0.12741048E-02 0.91819089E+02</pdfrwt>
<totfact> 0.16582387E+05</totfact>
</mgrwt>
</event>
<event>
 7    1  0.3337990E-009  0.1078561E+03  0.7818608E-02  0.1264592E+00
          2   -1    0    0  501    0  0.00000000000E+00  0.00000000000E+00  0.47348039488E+03  0.47348039488E+03  0.25500000000E-02 0. -1.
         -2   -1    0    0    0  501 -0.00000000000E+00 -0.00000000000E+00 -0.61422488585E+01  0.61422493878E+01  0.25500000000E-02 0.  1.
         23    2    1    2    0    0  0.00000000000E+00  0.00000000000E+00  0.46733814602E+03  0.47962264427E+03  0.10785609938E+03 0.  0.
    9000005    2    3    3    0    0 -0.51153290408E+02 -0.14192661095E+02  0.25488409632E+03  0.26063676806E+03  0.12146256927E+02 0.  0.
         22    1    3    3    0    0  0.51153290408E+02  0.14192661095E+02  0.21245404970E+03  0.21898587621E+03  0.00000000000E+00 0.  1.
         22    1    4    4    0    0 -0.18269137825E+02 -0.11190338405E+02  0.10305508124E+03  0.10525841933E+03  0.00000000000E+00 0.  1.
         22    1    4    4    0    0 -0.32884152584E+02 -0.30023226898E+01  0.15182901508E+03  0.15537834873E+03  0.00000000000E+00 0.  1.
<mgrwt>
<rscale>  0 0.10785610E+03</rscale>
<asrwt>0</asrwt>
<pdfrwt beam="1">  1        2 0.72843129E-01 0.10785610E+03</pdfrwt>
<pdfrwt beam="2">  1       -2 0.94496152E-03 0.10785610E+03</pdfrwt>
<totfact> 0.13510367E+05</totfact>
</mgrwt>
</event>
<event>
 7    1  0.3337990E-009  0.8930707E+02  0.7818608E-02  0.1304538E+00
         -2   -1    0    0    0  501 -0.00000000000E+00  0.00000000000E+00  0.18127878965E+03  0.18127878967E+03  0.25500000000E-02 0.  1.
          2   -1    0    0  501    0  0.00000000000E+00 -0.00000000000E+00 -0.10999292165E+02  0.10999292461E+02  0.25500000000E-02 0. -1.
         23    2    1    2    0    0  0.00000000000E+00 -0.17763568394E-14  0.17027949749E+03  0.19227808213E+03  0.89307074769E+02 0.  0.
    9000005    2    3    3    0    0 -0.23265683556E+02 -0.14044682835E+02  0.10516837502E+02  0.30220522379E+02  0.80081804767E+01 0.  0.
         22    1    3    3    0    0  0.23265683556E+02  0.14044682835E+02  0.15976265999E+03  0.16205755975E+03  0.00000000000E+00 0.  1.
         22    1    4    4    0    0  0.49562612069E+00 -0.35977457634E+00  0.10432660033E+01  0.12097466474E+01  0.00000000000E+00 0.  1.
         22    1    4    4    0    0 -0.23761309677E+02 -0.13684908259E+02  0.94735714983E+01  0.29010775732E+02  0.00000000000E+00 0.  1.
<mgrwt>
<rscale>  0 0.89307075E+02</rscale>
<asrwt>0</asrwt>
<pdfrwt beam="2">  1        2 0.16921986E-02 0.89307075E+02</pdfrwt>
<pdfrwt beam="1">  1       -2 0.27889048E-01 0.89307075E+02</pdfrwt>
<totfact> 0.68461760E+04</totfact>
</mgrwt>
</event>
<event>
 7    1  0.3337990E-009  0.1042954E+03  0.7818608E-02  0.1271514E+00
          2   -1    0    0  501    0  0.00000000000E+00  0.00000000000E+00  0.18484365652E+03  0.18484365654E+03  0.25500000000E-02 0. -1.
         -2   -1    0    0    0  501 -0.00000000000E+00 -0.00000000000E+00 -0.14711788656E+02  0.14711788877E+02  0.25500000000E-02 0.  1.
         23    2    1    2    0    0  0.00000000000E+00  0.00000000000E+00  0.17013186787E+03  0.19955544542E+03  0.10429536582E+03 0.  0.
    9000005    2    3    3    0    0  0.20391245950E+02  0.85490625872E+01  0.17541989659E+03  0.17682105230E+03  0.21575531566E+01 0.  0.
         22    1    3    3    0    0 -0.20391245950E+02 -0.85490625872E+01 -0.52880287217E+01  0.22734393114E+02  0.00000000000E+00 0.  1.
         22    1    4    4    0    0  0.19610079874E+02  0.77740330540E+01  0.16491491069E+03  0.16625858953E+03  0.00000000000E+00 0. -1.
         22    1    4    4    0    0  0.78116607646E+00  0.77502953318E+00  0.10504985896E+02  0.10562462776E+02  0.00000000000E+00 0. -1.
<mgrwt>
<rscale>  0 0.10429537E+03</rscale>
<asrwt>0</asrwt>
<pdfrwt beam="1">  1        2 0.28437485E-01 0.10429537E+03</pdfrwt>
<pdfrwt beam="2">  1       -2 0.22633521E-02 0.10429537E+03</pdfrwt>
<totfact> 0.10428843E+05</totfact>
</mgrwt>
</event>
<event>
 7    1  0.3337990E-009  0.9547052E+02  0.7818608E-02  0.1290120E+00
          2   -1    0    0  501    0  0.00000000000E+00  0.00000000000E+00  0.19264582041E+03  0.19264582042E+03  0.25500000000E-02 0. -1.
         -2   -1    0    0    0  501 -0.00000000000E+00 -0.00000000000E+00 -0.11828209481E+02  0.11828209756E+02  0.25500000000E-02 0.  1.
         23    2    1    2    0    0  0.00000000000E+00  0.00000000000E+00  0.18081761093E+03  0.20447403018E+03  0.95470522136E+02 0.  0.
    9000005    2    3    3    0    0  0.22279100046E+02 -0.46869010294E+01  0.18011120566E+03  0.18169631413E+03  0.74282450042E+01 0.  0.
         22    1    3    3    0    0 -0.22279100046E+02  0.46869010294E+01  0.70640526807E+00  0.22777716052E+02  0.00000000000E+00 0.  1.
         22    1    4    4    0    0  0.15694087725E+02 -0.43247880401E+01  0.10023659994E+03  0.10154990964E+03  0.00000000000E+00 0.  1.
         22    1    4    4    0    0  0.65850123214E+01 -0.36211298929E+00  0.79874605719E+02  0.80146404485E+02  0.00000000000E+00 0.  1.
<mgrwt>
<rscale>  0 0.95470522E+02</rscale>
<asrwt>0</asrwt>
<pdfrwt beam="1">  1        2 0.29637815E-01 0.95470522E+02</pdfrwt>
<pdfrwt beam="2">  1       -2 0.18197248E-02 0.95470522E+02</pdfrwt>
<totfact> 0.13474780E+05</totfact>
</mgrwt>
</event>
<event>
 7    1  0.3337990E-009  0.9229368E+02  0.7818608E-02  0.1297390E+00
         -2   -1    0    0    0  501 -0.00000000000E+00  0.00000000000E+00  0.35298353792E+01  0.35298363003E+01  0.25500000000E-02 0.  1.
          2   -1    0    0  501    0  0.00000000000E+00 -0.00000000000E+00 -0.60329456092E+03  0.60329456093E+03  0.25500000000E-02 0. -1.
         23    2    1    2    0    0  0.00000000000E+00  0.17763568394E-14 -0.59976472554E+03  0.60682439723E+03  0.92293678361E+02 0.  0.
    9000005    2    3    3    0    0 -0.38818153207E+02  0.15605626234E+02 -0.42226393908E+03  0.42445961503E+03  0.10428133167E+02 0.  0.
         22    1    3    3    0    0  0.38818153207E+02 -0.15605626234E+02 -0.17750078647E+03  0.18236478219E+03  0.00000000000E+00 0.  1.
         22    1    4    4    0    0 -0.51624844536E+01 -0.11104673493E+01 -0.69309768224E+02  0.69510634832E+02  0.00000000000E+00 0. -1.
         22    1    4    4    0    0 -0.33655668754E+02  0.16716093584E+02 -0.35295417085E+03  0.35494898020E+03  0.00000000000E+00 0. -1.
<mgrwt>
<rscale>  0 0.92293678E+02</rscale>
<asrwt>0</asrwt>
<pdfrwt beam="2">  1        2 0.92814466E-01 0.92293678E+02</pdfrwt>
<pdfrwt beam="1">  1       -2 0.54305215E-03 0.92293678E+02</pdfrwt>
<totfact> 0.22097461E+05</totfact>
</mgrwt>
</event>
<event>
 7    1  0.3337990E-009  0.9242789E+02  0.7818608E-02  0.1297076E+00
          2   -1    0    0  501    0  0.00000000000E+00  0.00000000000E+00  0.23288906147E+04  0.23288906147E+04  0.25500000000E-02 0. -1.
         -2   -1    0    0    0  501 -0.00000000000E+00 -0.00000000000E+00 -0.91705660060E+00  0.91706014590E+00  0.25500000000E-02 0.  1.
         23    2    1    2    0    0  0.00000000000E+00  0.00000000000E+00  0.23279735581E+04  0.23298076748E+04  0.92427888472E+02 0.  0.
    9000005    2    3    3    0    0 -0.16968725619E+02 -0.58799416640E+01  0.22369377559E+04  0.22370174348E+04  0.58282530485E+01 0.  0.
         22    1    3    3    0    0  0.16968725619E+02  0.58799416640E+01  0.91035802201E+02  0.92790240034E+02  0.00000000000E+00 0.  1.
         22    1    4    4    0    0 -0.72939657709E+01 -0.55699101210E+01  0.11445041381E+04  0.11445409333E+04  0.00000000000E+00 0. -1.
         22    1    4    4    0    0 -0.96747598483E+01 -0.31003154296E+00  0.10924336177E+04  0.10924765015E+04  0.00000000000E+00 0. -1.
<mgrwt>
<rscale>  0 0.92427888E+02</rscale>
<asrwt>0</asrwt>
<pdfrwt beam="1">  1        2 0.35829045E+00 0.92427888E+02</pdfrwt>
<pdfrwt beam="2">  1       -2 0.14108607E-03 0.92427888E+02</pdfrwt>
<totfact> 0.15945576E+05</totfact>
</mgrwt>
</event>
<event>
 7    1  0.3337990E-009  0.9032289E+02  0.7818608E-02  0.1302072E+00
          2   -1    0    0  501    0  0.00000000000E+00  0.00000000000E+00  0.40302192027E+02  0.40302192108E+02  0.25500000000E-02 0. -1.
         -2   -1    0    0    0  501 -0.00000000000E+00 -0.00000000000E+00 -0.50606576667E+02  0.50606576731E+02  0.25500000000E-02 0.  1.
         23    2    1    2    0    0  0.00000000000E+00  0.00000000000E+00 -0.10304384639E+02  0.90908768839E+02  0.90322886961E+02 0.  0.
    9000005    2    3    3    0    0  0.38044699576E+02 -0.12393766276E+02 -0.24450265760E+02  0.48469275899E+02  0.12265830676E+02 0.  0.
         22    1    3    3    0    0 -0.38044699576E+02  0.12393766276E+02  0.14145881120E+02  0.42439492940E+02  0.00000000000E+00 0. -1.
         22    1    4    4    0    0  0.10497493032E+02 -0.54014158942E+01 -0.14238442392E+01  0.11891172610E+02  0.00000000000E+00 0.  1.
         22    1    4    4    0    0  0.27547206544E+02 -0.69923503819E+01 -0.23026421520E+02  0.36578103290E+02  0.00000000000E+00 0.  1.
<mgrwt>
<rscale>  0 0.90322887E+02</rscale>
<asrwt>0</asrwt>
<pdfrwt beam="1">  1        2 0.62003372E-02 0.90322887E+02</pdfrwt>
<pdfrwt beam="2">  1       -2 0.77856272E-02 0.90322887E+02</pdfrwt>
<totfact> 0.98209443E+04</totfact>
</mgrwt>
</event>
<event>
 7    1  0.3337990E-009  0.9130795E+02  0.7818608E-02  0.1299715E+00
          2   -1    0    0  501    0  0.00000000000E+00  0.00000000000E+00  0.38187646651E+02  0.38187646736E+02  0.25500000000E-02 0. -1.
         -2   -1    0    0    0  501 -0.00000000000E+00 -0.00000000000E+00 -0.54580092310E+02  0.54580092369E+02  0.25500000000E-02 0.  1.
         23    2    1    2    0    0  0.00000000000E+00  0.00000000000E+00 -0.16392445659E+02  0.92767739105E+02  0.91307946774E+02 0.  0.
    9000005    2    3    3    0    0 -0.25652208437E+02 -0.19588664906E+02 -0.40328263428E+02  0.52584720767E+02  0.98505043803E+01 0.  0.
         22    1    3    3    0    0  0.25652208437E+02  0.19588664906E+02  0.23935817769E+02  0.40183018338E+02  0.00000000000E+00 0. -1.
         22    1    4    4    0    0 -0.25101005160E+02 -0.19834965933E+02 -0.40779486137E+02  0.51831002530E+02  0.00000000000E+00 0. -1.
         22    1    4    4    0    0 -0.55120327680E+00  0.24630102721E+00  0.45122270907E+00  0.75371823750E+00  0.00000000000E+00 0. -1.
<mgrwt>
<rscale>  0 0.91307947E+02</rscale>
<asrwt>0</asrwt>
<pdfrwt beam="1">  1        2 0.58750226E-02 0.91307947E+02</pdfrwt>
<pdfrwt beam="2">  1       -2 0.83969373E-02 0.91307947E+02</pdfrwt>
<totfact> 0.93856460E+04</totfact>
</mgrwt>
</event>
<event>
 7    1  0.3337990E-009  0.9118881E+02  0.7818608E-02  0.1299998E+00
         -2   -1    0    0    0  501 -0.00000000000E+00  0.00000000000E+00  0.61035616696E+01  0.61035622023E+01  0.25500000000E-02 0.  1.
          2   -1    0    0  501    0  0.00000000000E+00 -0.00000000000E+00 -0.34059614940E+03  0.34059614941E+03  0.25500000000E-02 0. -1.
         23    2    1    2    0    0  0.71054273576E-14  0.17763568394E-14 -0.33449258773E+03  0.34669971161E+03  0.91188808443E+02 0.  0.
    9000005    2    3    3    0    0 -0.42190937422E+02 -0.13125815479E+02 -0.13827310578E+03  0.14556680200E+03  0.10857247789E+02 0.  0.
         22    1    3    3    0    0  0.42190937422E+02  0.13125815479E+02 -0.19621948195E+03  0.20113290961E+03  0.00000000000E+00 0. -1.
         22    1    4    4    0    0 -0.13502155210E+02 -0.26386890898E+01 -0.59712437336E+02  0.61276798611E+02  0.00000000000E+00 0.  1.
         22    1    4    4    0    0 -0.28688782212E+02 -0.10487126390E+02 -0.78560668448E+02  0.84290003391E+02  0.00000000000E+00 0.  1.
<mgrwt>
<rscale>  0 0.91188808E+02</rscale>
<asrwt>0</asrwt>
<pdfrwt beam="2">  1        2 0.52399393E-01 0.91188808E+02</pdfrwt>
<pdfrwt beam="1">  1       -2 0.93900979E-03 0.91188808E+02</pdfrwt>
<totfact> 0.18824048E+05</totfact>
</mgrwt>
</event>
<event>
 7    1  0.3337990E-009  0.9522500E+02  0.7818608E-02  0.1290670E+00
         -2   -1    0    0    0  501 -0.00000000000E+00  0.00000000000E+00  0.22862853188E+02  0.22862853330E+02  0.25500000000E-02 0.  1.
          2   -1    0    0  501    0  0.00000000000E+00 -0.00000000000E+00 -0.99154287865E+02  0.99154287898E+02  0.25500000000E-02 0. -1.
         23    2    1    2    0    0  0.71054273576E-14  0.22204460493E-15 -0.76291434677E+02  0.12201714123E+03  0.95224995398E+02 0.  0.
    9000005    2    3    3    0    0 -0.44417529896E+02 -0.19781114931E+01 -0.16978268851E+02  0.47889673124E+02  0.53225268066E+01 0.  0.
         22    1    3    3    0    0  0.44417529896E+02  0.19781114931E+01 -0.59313165826E+02  0.74127468104E+02  0.00000000000E+00 0. -1.
         22    1    4    4    0    0 -0.11038411208E+02  0.12241373003E+01 -0.58917461877E+01  0.12572100352E+02  0.00000000000E+00 0.  1.
         22    1    4    4    0    0 -0.33379118689E+02 -0.32022487934E+01 -0.11086522663E+02  0.35317572772E+02  0.00000000000E+00 0.  1.
<mgrwt>
<rscale>  0 0.95224995E+02</rscale>
<asrwt>0</asrwt>
<pdfrwt beam="2">  1        2 0.15254506E-01 0.95224995E+02</pdfrwt>
<pdfrwt beam="1">  1       -2 0.35173621E-02 0.95224995E+02</pdfrwt>
<totfact> 0.10851041E+05</totfact>
</mgrwt>
</event>
<event>
 7    1  0.3337990E-009  0.9098747E+02  0.7818608E-02  0.1300478E+00
          2   -1    0    0  501    0  0.00000000000E+00  0.00000000000E+00  0.14582042901E+03  0.14582042904E+03  0.25500000000E-02 0. -1.
         -2   -1    0    0    0  501 -0.00000000000E+00 -0.00000000000E+00 -0.14193345646E+02  0.14193345875E+02  0.25500000000E-02 0.  1.
         23    2    1    2    0    0  0.00000000000E+00  0.00000000000E+00  0.13162708337E+03  0.16001377491E+03  0.90987466640E+02 0.  0.
    9000005    2    3    3    0    0  0.28390598480E+02 -0.33635438537E+02  0.46313502556E+02  0.64014942217E+02  0.39501266430E+01 0.  0.
         22    1    3    3    0    0 -0.28390598480E+02  0.33635438537E+02  0.85313580811E+02  0.95998832694E+02  0.00000000000E+00 0. -1.
         22    1    4    4    0    0  0.25055734114E+02 -0.29433952448E+02  0.42398784959E+02  0.57374248010E+02  0.00000000000E+00 0. -1.
         22    1    4    4    0    0  0.33348643655E+01 -0.42014860893E+01  0.39147175965E+01  0.66406942073E+01  0.00000000000E+00 0. -1.
<mgrwt>
<rscale>  0 0.90987467E+02</rscale>
<asrwt>0</asrwt>
<pdfrwt beam="1">  1        2 0.22433912E-01 0.90987467E+02</pdfrwt>
<pdfrwt beam="2">  1       -2 0.21835917E-02 0.90987467E+02</pdfrwt>
<totfact> 0.13926128E+05</totfact>
</mgrwt>
</event>
<event>
 7    1  0.3337990E-009  0.9323468E+02  0.7818608E-02  0.1295202E+00
          2   -1    0    0  501    0  0.00000000000E+00  0.00000000000E+00  0.12647778827E+04  0.12647778827E+04  0.25500000000E-02 0. -1.
         -2   -1    0    0    0  501 -0.00000000000E+00 -0.00000000000E+00 -0.17182267659E+01  0.17182286581E+01  0.25500000000E-02 0.  1.
         23    2    1    2    0    0  0.00000000000E+00  0.00000000000E+00  0.12630596560E+04  0.12664961114E+04  0.93234680478E+02 0.  0.
    9000005    2    3    3    0    0  0.32571583654E+01 -0.21764184842E+02  0.11885745724E+04  0.11888281225E+04  0.10885857931E+02 0.  0.
         22    1    3    3    0    0 -0.32571583654E+01  0.21764184842E+02  0.74485083552E+02  0.77667988865E+02  0.00000000000E+00 0.  1.
         22    1    4    4    0    0  0.17973630560E+01 -0.21798741627E+02  0.96107448659E+03  0.96132335060E+03  0.00000000000E+00 0.  1.
         22    1    4    4    0    0  0.14597953094E+01  0.34556785088E-01  0.22750008583E+03  0.22750477193E+03  0.00000000000E+00 0.  1.
<mgrwt>
<rscale>  0 0.93234680E+02</rscale>
<asrwt>0</asrwt>
<pdfrwt beam="1">  1        2 0.19458156E+00 0.93234680E+02</pdfrwt>
<pdfrwt beam="2">  1       -2 0.26434226E-03 0.93234680E+02</pdfrwt>
<totfact> 0.23280033E+05</totfact>
</mgrwt>
</event>
<event>
 6    1  0.3337990E-009  0.1542250E+03  0.7818608E-02  0.1195375E+00
          2   -1    0    0  501    0  0.00000000000E+00  0.00000000000E+00  0.13354882833E+03  0.13354882835E+03  0.25500000000E-02 0. -1.
         -2   -1    0    0    0  501 -0.00000000000E+00 -0.00000000000E+00 -0.44525565134E+02  0.44525565207E+02  0.25500000000E-02 0.  1.
    9000005    2    1    2    0    0  0.70796989493E+02  0.16401107044E+02  0.17296641612E+02  0.75967007553E+02  0.13805882516E+02 0.  0.
         22    1    1    2    0    0 -0.70796989493E+02 -0.16401107044E+02  0.71726621581E+02  0.10210738601E+03  0.00000000000E+00 0. -1.
         22    1    3    3    0    0  0.11095880744E+02  0.78520432893E+01  0.19247332078E+01  0.13728719941E+02  0.00000000000E+00 0.  1.
         22    1    3    3    0    0  0.59701108749E+02  0.85490637547E+01  0.15371908404E+02  0.62238287612E+02  0.00000000000E+00 0.  1.
<mgrwt>
<rscale>  0 0.15422499E+03</rscale>
<asrwt>0</asrwt>
<pdfrwt beam="1">  1        2 0.20545973E-01 0.15422499E+03</pdfrwt>
<pdfrwt beam="2">  1       -2 0.68500871E-02 0.15422499E+03</pdfrwt>
<totfact> 0.30293272E+04</totfact>
</mgrwt>
</event>
<event>
 7    1  0.3337990E-009  0.9054014E+02  0.7818608E-02  0.1301549E+00
         -2   -1    0    0    0  501 -0.00000000000E+00  0.00000000000E+00  0.16419689316E+02  0.16419689514E+02  0.25500000000E-02 0.  1.
          2   -1    0    0  501    0  0.00000000000E+00 -0.00000000000E+00 -0.12481230387E+03  0.12481230390E+03  0.25500000000E-02 0. -1.
         23    2    1    2    0    0  0.00000000000E+00  0.00000000000E+00 -0.10839261455E+03  0.14123199341E+03  0.90540140670E+02 0.  0.
    9000005    2    3    3    0    0 -0.33371879731E+02 -0.17055403169E+02 -0.91765091892E+02  0.10023146117E+03  0.14864204795E+02 0.  0.
         22    1    3    3    0    0  0.33371879731E+02  0.17055403169E+02 -0.16627522662E+02  0.41000532239E+02  0.00000000000E+00 0. -1.
         22    1    4    4    0    0 -0.13879526310E+02 -0.52515496069E+01 -0.55087138352E+02  0.57050967000E+02  0.00000000000E+00 0.  1.
         22    1    4    4    0    0 -0.19492353421E+02 -0.11803853562E+02 -0.36677953540E+02  0.43180494170E+02  0.00000000000E+00 0.  1.
<mgrwt>
<rscale>  0 0.90540141E+02</rscale>
<asrwt>0</asrwt>
<pdfrwt beam="2">  1        2 0.19201892E-01 0.90540141E+02</pdfrwt>
<pdfrwt beam="1">  1       -2 0.25261061E-02 0.90540141E+02</pdfrwt>
<totfact> 0.13405925E+05</totfact>
</mgrwt>
</event>
<event>
 7    1  0.3337990E-009  0.9059605E+02  0.7818608E-02  0.1301415E+00
         -2   -1    0    0    0  501 -0.00000000000E+00  0.00000000000E+00  0.40170717740E+02  0.40170717821E+02  0.25500000000E-02 0.  1.
          2   -1    0    0  501    0  0.00000000000E+00 -0.00000000000E+00 -0.51079776267E+02  0.51079776330E+02  0.25500000000E-02 0. -1.
         23    2    1    2    0    0  0.00000000000E+00 -0.17763568394E-14 -0.10909058527E+02  0.91250494151E+02  0.90596054687E+02 0.  0.
    9000005    2    3    3    0    0  0.14486965555E+02  0.78756077014E+01 -0.47249092301E+02  0.51344411628E+02  0.11483662936E+02 0.  0.
         22    1    3    3    0    0 -0.14486965555E+02 -0.78756077014E+01  0.36340033774E+02  0.39906082524E+02  0.00000000000E+00 0.  1.
         22    1    4    4    0    0  0.17222769357E+01  0.54677419496E+01 -0.69814502438E+01  0.90334427201E+01  0.00000000000E+00 0. -1.
         22    1    4    4    0    0  0.12764688620E+02  0.24078657519E+01 -0.40267642057E+02  0.42310968908E+02  0.00000000000E+00 0. -1.
<mgrwt>
<rscale>  0 0.90596055E+02</rscale>
<asrwt>0</asrwt>
<pdfrwt beam="2">  1        2 0.78584271E-02 0.90596055E+02</pdfrwt>
<pdfrwt beam="1">  1       -2 0.61801105E-02 0.90596055E+02</pdfrwt>
<totfact> 0.10350901E+05</totfact>
</mgrwt>
</event>
<event>
 7    1  0.3337990E-009  0.9118623E+02  0.7818608E-02  0.1300004E+00
          2   -1    0    0  501    0  0.00000000000E+00  0.00000000000E+00  0.61420547241E+03  0.61420547242E+03  0.25500000000E-02 0.  1.
         -2   -1    0    0    0  501 -0.00000000000E+00 -0.00000000000E+00 -0.33844238154E+01  0.33844247761E+01  0.25500000000E-02 0. -1.
         23    2    1    2    0    0 -0.55511151231E-16  0.35527136788E-14  0.61082104859E+03  0.61758989719E+03  0.91186225422E+02 0.  0.
    9000005    2    3    3    0    0  0.10188363786E+00  0.25888512959E+02  0.55772623377E+03  0.55851972837E+03  0.14680247212E+02 0.  0.
         22    1    3    3    0    0 -0.10188363786E+00 -0.25888512959E+02  0.53094814828E+02  0.59070168826E+02  0.00000000000E+00 0. -1.
         22    1    4    4    0    0  0.13041147174E+01  0.26432303467E+02  0.44527318258E+03  0.44605893614E+03  0.00000000000E+00 0.  1.
         22    1    4    4    0    0 -0.12022310795E+01 -0.54379050757E+00  0.11245305118E+03  0.11246079223E+03  0.00000000000E+00 0.  1.
<mgrwt>
<rscale>  0 0.91186225E+02</rscale>
<asrwt>0</asrwt>
<pdfrwt beam="1">  1        2 0.94493052E-01 0.91186225E+02</pdfrwt>
<pdfrwt beam="2">  1       -2 0.52068120E-03 0.91186225E+02</pdfrwt>
<totfact> 0.22928534E+05</totfact>
</mgrwt>
</event>
<event>
 7    1  0.3337990E-009  0.1022577E+03  0.7818608E-02  0.1275619E+00
         -2   -1    0    0    0  501 -0.00000000000E+00  0.00000000000E+00  0.92965050922E+02  0.92965050957E+02  0.25500000000E-02 0. -1.
          2   -1    0    0  501    0  0.00000000000E+00 -0.00000000000E+00 -0.28119799123E+02  0.28119799239E+02  0.25500000000E-02 0.  1.
         23    2    1    2    0    0  0.00000000000E+00  0.35527136788E-14  0.64845251798E+02  0.12108485020E+03  0.10225768561E+03 0.  0.
    9000005    2    3    3    0    0 -0.34423315125E+02 -0.20540756197E+02  0.68381360334E+02  0.80843188290E+02  0.15897275319E+02 0.  0.
         22    1    3    3    0    0  0.34423315125E+02  0.20540756197E+02 -0.35361085355E+01  0.40241661905E+02  0.00000000000E+00 0.  1.
         22    1    4    4    0    0 -0.38662910297E+01  0.15381341217E+01  0.22736366573E+01  0.47416755005E+01  0.00000000000E+00 0.  1.
         22    1    4    4    0    0 -0.30557024095E+02 -0.22078890318E+02  0.66107723676E+02  0.76101512790E+02  0.00000000000E+00 0.  1.
<mgrwt>
<rscale>  0 0.10225769E+03</rscale>
<asrwt>0</asrwt>
<pdfrwt beam="2">  1        2 0.43261230E-02 0.10225769E+03</pdfrwt>
<pdfrwt beam="1">  1       -2 0.14302315E-01 0.10225769E+03</pdfrwt>
<totfact> 0.61387044E+04</totfact>
</mgrwt>
</event>
<event>
 7    1  0.3337990E-009  0.9053734E+02  0.7818608E-02  0.1301556E+00
         -2   -1    0    0    0  501 -0.00000000000E+00  0.00000000000E+00  0.73702273901E+01  0.73702278313E+01  0.25500000000E-02 0.  1.
          2   -1    0    0  501    0  0.00000000000E+00 -0.00000000000E+00 -0.27804463731E+03  0.27804463732E+03  0.25500000000E-02 0. -1.
         23    2    1    2    0    0 -0.35527136788E-14  0.00000000000E+00 -0.27067440992E+03  0.28541486515E+03  0.90537335198E+02 0.  0.
    9000005    2    3    3    0    0 -0.20605821533E+02 -0.27260134941E+02 -0.22778427810E+03  0.23057620866E+03  0.10582807490E+02 0.  0.
         22    1    3    3    0    0  0.20605821533E+02  0.27260134941E+02 -0.42890131822E+02  0.54838656491E+02  0.00000000000E+00 0.  1.
         22    1    4    4    0    0 -0.30694573635E+01 -0.37892033148E+01 -0.64508346454E+02  0.64692398259E+02  0.00000000000E+00 0.  1.
         22    1    4    4    0    0 -0.17536364169E+02 -0.23470931626E+02 -0.16327593164E+03  0.16588381040E+03  0.00000000000E+00 0.  1.
<mgrwt>
<rscale>  0 0.90537335E+02</rscale>
<asrwt>0</asrwt>
<pdfrwt beam="2">  1        2 0.42776090E-01 0.90537335E+02</pdfrwt>
<pdfrwt beam="1">  1       -2 0.11338814E-02 0.90537335E+02</pdfrwt>
<totfact> 0.17795279E+05</totfact>
</mgrwt>
</event>
<event>
 7    1  0.3337990E-009  0.9287054E+02  0.7818608E-02  0.1296045E+00
         -2   -1    0    0    0  501 -0.00000000000E+00  0.00000000000E+00  0.98871736841E+02  0.98871736874E+02  0.25500000000E-02 0.  1.
          2   -1    0    0  501    0  0.00000000000E+00 -0.00000000000E+00 -0.21808399023E+02  0.21808399172E+02  0.25500000000E-02 0. -1.
         23    2    1    2    0    0  0.00000000000E+00  0.00000000000E+00  0.77063337819E+02  0.12068013605E+03  0.92870540002E+02 0.  0.
    9000005    2    3    3    0    0 -0.21071920882E+02 -0.22416799522E+02 -0.62240425691E+01  0.31892037281E+02  0.56413283519E+01 0.  0.
         22    1    3    3    0    0  0.21071920882E+02  0.22416799522E+02  0.83287380388E+02  0.88788098765E+02  0.00000000000E+00 0.  1.
         22    1    4    4    0    0 -0.15408951234E+02 -0.16781724087E+02 -0.20408878989E+01  0.22874161512E+02  0.00000000000E+00 0.  1.
         22    1    4    4    0    0 -0.56629696482E+01 -0.56350754350E+01 -0.41831546702E+01  0.90178757693E+01  0.00000000000E+00 0.  1.
<mgrwt>
<rscale>  0 0.92870540E+02</rscale>
<asrwt>0</asrwt>
<pdfrwt beam="2">  1        2 0.33551383E-02 0.92870540E+02</pdfrwt>
<pdfrwt beam="1">  1       -2 0.15211037E-01 0.92870540E+02</pdfrwt>
<totfact> 0.76490867E+04</totfact>
</mgrwt>
</event>
<event>
 7    1  0.3337990E-009  0.9470872E+02  0.7818608E-02  0.1291833E+00
          2   -1    0    0  501    0  0.00000000000E+00  0.00000000000E+00  0.66757292474E+03  0.66757292474E+03  0.25500000000E-02 0. -1.
         -2   -1    0    0    0  501 -0.00000000000E+00 -0.00000000000E+00 -0.33590866755E+01  0.33590876434E+01  0.25500000000E-02 0.  1.
         23    2    1    2    0    0  0.00000000000E+00  0.00000000000E+00  0.66421383806E+03  0.67093201239E+03  0.94708724893E+02 0.  0.
    9000005    2    3    3    0    0 -0.21245909182E+02  0.34680001027E+02  0.49999688680E+03  0.50175370937E+03  0.10286249680E+02 0.  0.
         22    1    3    3    0    0  0.21245909182E+02 -0.34680001027E+02  0.16421695126E+03  0.16917830301E+03  0.00000000000E+00 0.  1.
         22    1    4    4    0    0 -0.20014303770E+01 -0.88505306191E-01  0.15321896745E+02  0.15452316222E+02  0.00000000000E+00 0.  1.
         22    1    4    4    0    0 -0.19244478805E+02  0.34768506333E+02  0.48467499005E+03  0.48630139315E+03  0.00000000000E+00 0.  1.
<mgrwt>
<rscale>  0 0.94708725E+02</rscale>
<asrwt>0</asrwt>
<pdfrwt beam="1">  1        2 0.10270364E+00 0.94708725E+02</pdfrwt>
<pdfrwt beam="2">  1       -2 0.51678207E-03 0.94708725E+02</pdfrwt>
<totfact> 0.21202432E+05</totfact>
</mgrwt>
</event>
<event>
 7    1  0.3337990E-009  0.8974413E+02  0.7818608E-02  0.1303472E+00
         -2   -1    0    0    0  501 -0.00000000000E+00  0.00000000000E+00  0.11584833584E+01  0.11584861648E+01  0.25500000000E-02 0.  1.
          2   -1    0    0  501    0  0.00000000000E+00 -0.00000000000E+00 -0.17380482193E+04  0.17380482193E+04  0.25500000000E-02 0. -1.
         23    2    1    2    0    0  0.00000000000E+00  0.00000000000E+00 -0.17368897359E+04  0.17392067054E+04  0.89744133628E+02 0.  0.
    9000005    2    3    3    0    0  0.12794216718E+02  0.19861707642E+02 -0.16064797257E+04  0.16066738787E+04  0.81033232118E+01 0.  0.
         22    1    3    3    0    0 -0.12794216718E+02 -0.19861707642E+02 -0.13041001018E+03  0.13253282675E+03  0.00000000000E+00 0.  1.
         22    1    4    4    0    0  0.18588477292E+01  0.46469162610E+01 -0.59185945536E+03  0.59188061638E+03  0.00000000000E+00 0.  1.
         22    1    4    4    0    0  0.10935368989E+02  0.15214791381E+02 -0.10146202704E+04  0.10147932623E+04  0.00000000000E+00 0.  1.
<mgrwt>
<rscale>  0 0.89744134E+02</rscale>
<asrwt>0</asrwt>
<pdfrwt beam="2">  1        2 0.26738995E+00 0.89744134E+02</pdfrwt>
<pdfrwt beam="1">  1       -2 0.17822982E-03 0.89744134E+02</pdfrwt>
<totfact> 0.22869378E+05</totfact>
</mgrwt>
</event>
<event>
 7    1  0.3337990E-009  0.8927884E+02  0.7818608E-02  0.1304608E+00
         -2   -1    0    0    0  501 -0.00000000000E+00  0.00000000000E+00  0.22810821432E+02  0.22810821575E+02  0.25500000000E-02 0.  1.
          2   -1    0    0  501    0  0.00000000000E+00 -0.00000000000E+00 -0.87356685789E+02  0.87356685827E+02  0.25500000000E-02 0. -1.
         23    2    1    2    0    0  0.00000000000E+00  0.00000000000E+00 -0.64545864357E+02  0.11016750740E+03  0.89278838934E+02 0.  0.
    9000005    2    3    3    0    0  0.11503396954E+02  0.15421879872E+02 -0.81576040691E+02  0.84473355805E+02  0.10532564072E+02 0.  0.
         22    1    3    3    0    0 -0.11503396954E+02 -0.15421879872E+02  0.17030176334E+02  0.25694151596E+02  0.00000000000E+00 0.  1.
         22    1    4    4    0    0  0.77928429983E+01  0.15893316254E+02 -0.73030884325E+02  0.75145432122E+02  0.00000000000E+00 0.  1.
         22    1    4    4    0    0  0.37105539556E+01 -0.47143638170E+00 -0.85451563660E+01  0.93279236832E+01  0.00000000000E+00 0.  1.
<mgrwt>
<rscale>  0 0.89278839E+02</rscale>
<asrwt>0</asrwt>
<pdfrwt beam="2">  1        2 0.13439490E-01 0.89278839E+02</pdfrwt>
<pdfrwt beam="1">  1       -2 0.35093572E-02 0.89278839E+02</pdfrwt>
<totfact> 0.12486717E+05</totfact>
</mgrwt>
</event>
<event>
 7    1  0.3337990E-009  0.8520561E+02  0.7818608E-02  0.1314896E+00
         -2   -1    0    0    0  501 -0.00000000000E+00  0.00000000000E+00  0.62377952077E+01  0.62377957289E+01  0.25500000000E-02 0.  1.
          2   -1    0    0  501    0  0.00000000000E+00 -0.00000000000E+00 -0.29096799269E+03  0.29096799270E+03  0.25500000000E-02 0. -1.
         23    2    1    2    0    0 -0.35527136788E-14 -0.17763568394E-14 -0.28473019749E+03  0.29720578843E+03  0.85205606142E+02 0.  0.
    9000005    2    3    3    0    0 -0.18183451100E+02 -0.13480643220E+02 -0.26783080913E+03  0.26895769182E+03  0.96193572872E+01 0.  0.
         22    1    3    3    0    0  0.18183451100E+02  0.13480643220E+02 -0.16899388359E+02  0.28248096616E+02  0.00000000000E+00 0.  1.
         22    1    4    4    0    0 -0.18878250129E+02 -0.10647397746E+02 -0.23752299634E+03  0.23850980944E+03  0.00000000000E+00 0. -1.
         22    1    4    4    0    0  0.69479902859E+00 -0.28332454742E+01 -0.30307812786E+02  0.30447882381E+02  0.00000000000E+00 0. -1.
<mgrwt>
<rscale>  0 0.85205606E+02</rscale>
<asrwt>0</asrwt>
<pdfrwt beam="2">  1        2 0.44764296E-01 0.85205606E+02</pdfrwt>
<pdfrwt beam="1">  1       -2 0.95966107E-03 0.85205606E+02</pdfrwt>
<totfact> 0.21266944E+05</totfact>
</mgrwt>
</event>
<event>
 7    1  0.3337990E-009  0.9300151E+02  0.7818608E-02  0.1295742E+00
         -2   -1    0    0    0  501 -0.00000000000E+00  0.00000000000E+00  0.89604058148E+03  0.89604058148E+03  0.25500000000E-02 0.  1.
          2   -1    0    0  501    0  0.00000000000E+00 -0.00000000000E+00 -0.24131938695E+01  0.24131952167E+01  0.25500000000E-02 0. -1.
         23    2    1    2    0    0  0.71054273576E-14  0.00000000000E+00  0.89362738761E+03  0.89845377670E+03  0.93001510630E+02 0.  0.
    9000005    2    3    3    0    0  0.34583317434E+02  0.36955617434E+01  0.74213152323E+03  0.74301677999E+03  0.10250588089E+02 0.  0.
         22    1    3    3    0    0 -0.34583317434E+02 -0.36955617434E+01  0.15149586437E+03  0.15543699670E+03  0.00000000000E+00 0.  1.
         22    1    4    4    0    0  0.70641675634E+01 -0.15265601673E+01  0.23613488686E+03  0.23624546057E+03  0.00000000000E+00 0. -1.
         22    1    4    4    0    0  0.27519149871E+02  0.52221219107E+01  0.50599663637E+03  0.50677131942E+03  0.00000000000E+00 0. -1.
<mgrwt>
<rscale>  0 0.93001511E+02</rscale>
<asrwt>0</asrwt>
<pdfrwt beam="2">  1        2 0.37126040E-03 0.93001511E+02</pdfrwt>
<pdfrwt beam="1">  1       -2 0.13785251E+00 0.93001511E+02</pdfrwt>
<totfact> 0.20094694E+04</totfact>
</mgrwt>
</event>
<event>
 7    1  0.3337990E-009  0.9133270E+02  0.7818608E-02  0.1299656E+00
         -2   -1    0    0    0  501 -0.00000000000E+00  0.00000000000E+00  0.11348275506E+02  0.11348275792E+02  0.25500000000E-02 0.  1.
          2   -1    0    0  501    0  0.00000000000E+00 -0.00000000000E+00 -0.18376495006E+03  0.18376495008E+03  0.25500000000E-02 0. -1.
         23    2    1    2    0    0  0.00000000000E+00  0.00000000000E+00 -0.17241667456E+03  0.19511322587E+03  0.91332695379E+02 0.  0.
    9000005    2    3    3    0    0  0.38636770165E+02 -0.22918670445E+02 -0.91551055223E+02  0.10260747549E+03  0.11341642298E+02 0.  0.
         22    1    3    3    0    0 -0.38636770165E+02  0.22918670445E+02 -0.80865619332E+02  0.92505750382E+02  0.00000000000E+00 0.  1.
         22    1    4    4    0    0  0.35257565361E+02 -0.16722217023E+02 -0.73312554002E+02  0.83050942388E+02  0.00000000000E+00 0. -1.
         22    1    4    4    0    0  0.33792048048E+01 -0.61964534224E+01 -0.18238501221E+02  0.19556533101E+02  0.00000000000E+00 0. -1.
<mgrwt>
<rscale>  0 0.91332695E+02</rscale>
<asrwt>0</asrwt>
<pdfrwt beam="2">  1        2 0.28271529E-01 0.91332695E+02</pdfrwt>
<pdfrwt beam="1">  1       -2 0.17458887E-02 0.91332695E+02</pdfrwt>
<totfact> 0.14935704E+05</totfact>
</mgrwt>
</event>
<event>
 7    1  0.3337990E-009  0.8365615E+02  0.7818608E-02  0.1318985E+00
          2   -1    0    0  501    0  0.00000000000E+00  0.00000000000E+00  0.47352242818E+03  0.47352242819E+03  0.25500000000E-02 0. -1.
         -2   -1    0    0    0  501 -0.00000000000E+00 -0.00000000000E+00 -0.36948361766E+01  0.36948370565E+01  0.25500000000E-02 0.  1.
         23    2    1    2    0    0  0.00000000000E+00  0.00000000000E+00  0.46982759200E+03  0.47721726524E+03  0.83656153620E+02 0.  0.
    9000005    2    3    3    0    0 -0.26169212455E+02  0.17119396683E+02  0.39301173276E+03  0.39428007422E+03  0.45446031373E+01 0.  0.
         22    1    3    3    0    0  0.26169212455E+02 -0.17119396683E+02  0.76815859243E+02  0.82937191022E+02  0.00000000000E+00 0.  1.
         22    1    4    4    0    0 -0.19397220763E+02  0.13071525753E+02  0.31630377710E+03  0.31716745792E+03  0.00000000000E+00 0.  1.
         22    1    4    4    0    0 -0.67719916921E+01  0.40478709303E+01  0.76707955663E+02  0.77112616299E+02  0.00000000000E+00 0.  1.
<mgrwt>
<rscale>  0 0.83656154E+02</rscale>
<asrwt>0</asrwt>
<pdfrwt beam="1">  1        2 0.72849609E-01 0.83656154E+02</pdfrwt>
<pdfrwt beam="2">  1       -2 0.56843637E-03 0.83656154E+02</pdfrwt>
<totfact> 0.26557509E+05</totfact>
</mgrwt>
</event>
<event>
 7    1  0.3337990E-009  0.9188151E+02  0.7818608E-02  0.1298358E+00
          2   -1    0    0  501    0  0.00000000000E+00  0.00000000000E+00  0.52842991368E+01  0.52842997521E+01  0.25500000000E-02 0.  1.
         -2   -1    0    0    0  501 -0.00000000000E+00 -0.00000000000E+00 -0.39940069066E+03  0.39940069067E+03  0.25500000000E-02 0. -1.
         23    2    1    2    0    0  0.00000000000E+00  0.00000000000E+00 -0.39411639153E+03  0.40468499042E+03  0.91881507412E+02 0.  0.
    9000005    2    3    3    0    0 -0.24971684931E+02  0.78188743625E+01 -0.36302346227E+03  0.36404646074E+03  0.76858037217E+01 0.  0.
         22    1    3    3    0    0  0.24971684931E+02 -0.78188743625E+01 -0.31092929259E+02  0.40638529679E+02  0.00000000000E+00 0.  1.
         22    1    4    4    0    0 -0.21080451083E+02  0.90668043556E+01 -0.28859456634E+03  0.28950546814E+03  0.00000000000E+00 0.  1.
         22    1    4    4    0    0 -0.38912338480E+01 -0.12479299931E+01 -0.74428895927E+02  0.74540992608E+02  0.00000000000E+00 0.  1.
<mgrwt>
<rscale>  0 0.91881507E+02</rscale>
<asrwt>0</asrwt>
<pdfrwt beam="1">  1        2 0.81296946E-03 0.91881507E+02</pdfrwt>
<pdfrwt beam="2">  1       -2 0.61446236E-01 0.91881507E+02</pdfrwt>
<totfact> 0.41892953E+04</totfact>
</mgrwt>
</event>
<event>
 7    1  0.3337990E-009  0.9161215E+02  0.7818608E-02  0.1298994E+00
          2   -1    0    0  501    0  0.00000000000E+00  0.00000000000E+00  0.29650588166E+03  0.29650588167E+03  0.25500000000E-02 0. -1.
         -2   -1    0    0    0  501 -0.00000000000E+00 -0.00000000000E+00 -0.70764068348E+01  0.70764072942E+01  0.25500000000E-02 0.  1.
         23    2    1    2    0    0  0.00000000000E+00 -0.66613381478E-15  0.28942947482E+03  0.30358228896E+03  0.91612145896E+02 0.  0.
    9000005    2    3    3    0    0  0.39470164664E+02  0.14114435550E+01  0.21799996534E+03  0.22196084021E+03  0.13518270127E+02 0.  0.
         22    1    3    3    0    0 -0.39470164664E+02 -0.14114435550E+01  0.71429509487E+02  0.81621448756E+02  0.00000000000E+00 0.  1.
         22    1    4    4    0    0  0.31429990696E+02 -0.35539234853E+01  0.18270434875E+03  0.18542209615E+03  0.00000000000E+00 0. -1.
         22    1    4    4    0    0  0.80401739684E+01  0.49653670403E+01  0.35295616582E+02  0.36538744056E+02  0.00000000000E+00 0. -1.
<mgrwt>
<rscale>  0 0.91612146E+02</rscale>
<asrwt>0</asrwt>
<pdfrwt beam="1">  1        2 0.45616278E-01 0.91612146E+02</pdfrwt>
<pdfrwt beam="2">  1       -2 0.10886783E-02 0.91612146E+02</pdfrwt>
<totfact> 0.17661639E+05</totfact>
</mgrwt>
</event>
<event>
 7    1  0.3337990E-009  0.9133459E+02  0.7818608E-02  0.1299652E+00
          2   -1    0    0  501    0  0.00000000000E+00  0.00000000000E+00  0.89807463476E+03  0.89807463476E+03  0.25500000000E-02 0. -1.
         -2   -1    0    0    0  501 -0.00000000000E+00 -0.00000000000E+00 -0.23221912362E+01  0.23221926362E+01  0.25500000000E-02 0.  1.
         23    2    1    2    0    0  0.16653345369E-15  0.00000000000E+00  0.89575244352E+03  0.90039682740E+03  0.91334586619E+02 0.  0.
    9000005    2    3    3    0    0 -0.41895628392E-01 -0.30545429535E+02  0.78005192107E+03  0.78073214624E+03  0.11342821026E+02 0.  0.
         22    1    3    3    0    0  0.41895628392E-01  0.30545429535E+02  0.11570052245E+03  0.11966468116E+03  0.00000000000E+00 0.  1.
         22    1    4    4    0    0 -0.41016796884E+01 -0.25161766902E+02  0.56563447412E+03  0.56620870410E+03  0.00000000000E+00 0. -1.
         22    1    4    4    0    0  0.40597840600E+01 -0.53836626325E+01  0.21441744695E+03  0.21452344214E+03  0.00000000000E+00 0. -1.
<mgrwt>
<rscale>  0 0.91334587E+02</rscale>
<asrwt>0</asrwt>
<pdfrwt beam="1">  1        2 0.13816514E+00 0.91334587E+02</pdfrwt>
<pdfrwt beam="2">  1       -2 0.35726079E-03 0.91334587E+02</pdfrwt>
<totfact> 0.24675533E+05</totfact>
</mgrwt>
</event>
<event>
 7    1  0.3337990E-009  0.9127015E+02  0.7818608E-02  0.1299805E+00
          2   -1    0    0  501    0  0.00000000000E+00  0.00000000000E+00  0.27866731970E+03  0.27866731971E+03  0.25500000000E-02 0. -1.
         -2   -1    0    0    0  501 -0.00000000000E+00 -0.00000000000E+00 -0.74732840165E+01  0.74732844516E+01  0.25500000000E-02 0.  1.
         23    2    1    2    0    0  0.00000000000E+00  0.00000000000E+00  0.27119403568E+03  0.28614060416E+03  0.91270150436E+02 0.  0.
    9000005    2    3    3    0    0 -0.38608752654E+02  0.42364038868E+01  0.69692170144E+02  0.80929530594E+02  0.13564934332E+02 0.  0.
         22    1    3    3    0    0  0.38608752654E+02 -0.42364038868E+01  0.20150186554E+03  0.20521107357E+03  0.00000000000E+00 0. -1.
         22    1    4    4    0    0 -0.24138597175E+02 -0.49483312631E+00  0.53548272279E+02  0.58739545432E+02  0.00000000000E+00 0.  1.
         22    1    4    4    0    0 -0.14470155479E+02  0.47312370131E+01  0.16143897864E+02  0.22189985162E+02  0.00000000000E+00 0.  1.
<mgrwt>
<rscale>  0 0.91270150E+02</rscale>
<asrwt>0</asrwt>
<pdfrwt beam="1">  1        2 0.42871892E-01 0.91270150E+02</pdfrwt>
<pdfrwt beam="2">  1       -2 0.11497361E-02 0.91270150E+02</pdfrwt>
<totfact> 0.17430813E+05</totfact>
</mgrwt>
</event>
<event>
 7    1  0.3337990E-009  0.9150675E+02  0.7818608E-02  0.1299243E+00
         -2   -1    0    0    0  501 -0.00000000000E+00  0.00000000000E+00  0.72636935470E+03  0.72636935470E+03  0.25500000000E-02 0. -1.
          2   -1    0    0  501    0  0.00000000000E+00 -0.00000000000E+00 -0.28819646820E+01  0.28819658102E+01  0.25500000000E-02 0.  1.
         23    2    1    2    0    0 -0.35527136788E-14  0.00000000000E+00  0.72348739002E+03  0.72925132051E+03  0.91506748152E+02 0.  0.
    9000005    2    3    3    0    0  0.28973949156E+02 -0.26908157778E+02  0.54177117637E+03  0.54328271836E+03  0.87501907931E+01 0.  0.
         22    1    3    3    0    0 -0.28973949156E+02  0.26908157778E+02  0.18171621364E+03  0.18596860215E+03  0.00000000000E+00 0.  1.
         22    1    4    4    0    0  0.29200208253E+02 -0.24818523199E+02  0.50538026664E+03  0.50683116041E+03  0.00000000000E+00 0.  1.
         22    1    4    4    0    0 -0.22625909776E+00 -0.20896345784E+01  0.36390909735E+02  0.36451557953E+02  0.00000000000E+00 0.  1.
<mgrwt>
<rscale>  0 0.91506748E+02</rscale>
<asrwt>0</asrwt>
<pdfrwt beam="2">  1        2 0.44337904E-03 0.91506748E+02</pdfrwt>
<pdfrwt beam="1">  1       -2 0.11174919E+00 0.91506748E+02</pdfrwt>
<totfact> 0.25994391E+04</totfact>
</mgrwt>
</event>
<event>
 7    1  0.3337990E-009  0.9126711E+02  0.7818608E-02  0.1299812E+00
          2   -1    0    0  501    0  0.00000000000E+00  0.00000000000E+00  0.10596625222E+04  0.10596625222E+04  0.25500000000E-02 0. -1.
         -2   -1    0    0    0  501 -0.00000000000E+00 -0.00000000000E+00 -0.19651734632E+01  0.19651751177E+01  0.25500000000E-02 0.  1.
         23    2    1    2    0    0  0.00000000000E+00  0.00000000000E+00  0.10576973487E+04  0.10616276973E+04  0.91267114524E+02 0.  0.
    9000005    2    3    3    0    0 -0.16829137883E+02  0.28687514980E+02  0.89206537516E+03  0.89268941253E+03  0.27495968005E+01 0.  0.
         22    1    3    3    0    0  0.16829137883E+02 -0.28687514980E+02  0.16563197355E+03  0.16893828476E+03  0.00000000000E+00 0.  1.
         22    1    4    4    0    0 -0.66563413629E+01  0.13197844427E+02  0.36940541743E+03  0.36970103111E+03  0.00000000000E+00 0. -1.
         22    1    4    4    0    0 -0.10172796520E+02  0.15489670553E+02  0.52265995774E+03  0.52298838143E+03  0.00000000000E+00 0. -1.
<mgrwt>
<rscale>  0 0.91267115E+02</rscale>
<asrwt>0</asrwt>
<pdfrwt beam="1">  1        2 0.16302461E+00 0.91267115E+02</pdfrwt>
<pdfrwt beam="2">  1       -2 0.30233523E-03 0.91267115E+02</pdfrwt>
<totfact> 0.24968175E+05</totfact>
</mgrwt>
</event>
<event>
 7    1  0.3337990E-009  0.8932801E+02  0.7818608E-02  0.1304487E+00
          2   -1    0    0  501    0  0.00000000000E+00  0.00000000000E+00  0.85170009278E+03  0.85170009279E+03  0.25500000000E-02 0.  1.
         -2   -1    0    0    0  501 -0.00000000000E+00 -0.00000000000E+00 -0.23422241621E+01  0.23422255502E+01  0.25500000000E-02 0. -1.
         23    2    1    2    0    0  0.00000000000E+00  0.00000000000E+00  0.84935786862E+03  0.85404231834E+03  0.89328005251E+02 0.  0.
    9000005    2    3    3    0    0 -0.35817080645E+02 -0.11515133856E+02  0.65463547285E+03  0.65571866118E+03  0.19745205645E+01 0.  0.
         22    1    3    3    0    0  0.35817080645E+02  0.11515133856E+02  0.19472239577E+03  0.19832365715E+03  0.00000000000E+00 0. -1.
         22    1    4    4    0    0 -0.16185377245E+02 -0.52841068869E+01  0.27928371706E+03  0.27980222093E+03  0.00000000000E+00 0. -1.
         22    1    4    4    0    0 -0.19631703399E+02 -0.62310269690E+01  0.37535175580E+03  0.37591644026E+03  0.00000000000E+00 0. -1.
<mgrwt>
<rscale>  0 0.89328005E+02</rscale>
<asrwt>0</asrwt>
<pdfrwt beam="1">  1        2 0.13103095E+00 0.89328005E+02</pdfrwt>
<pdfrwt beam="2">  1       -2 0.36034183E-03 0.89328005E+02</pdfrwt>
<totfact> 0.25982937E+05</totfact>
</mgrwt>
</event>
<event>
 7    1  0.3337990E-009  0.9010496E+02  0.7818608E-02  0.1302598E+00
         -2   -1    0    0    0  501 -0.00000000000E+00  0.00000000000E+00  0.34236798735E+01  0.34236808231E+01  0.25500000000E-02 0.  1.
          2   -1    0    0  501    0  0.00000000000E+00 -0.00000000000E+00 -0.59284909423E+03  0.59284909423E+03  0.25500000000E-02 0. -1.
         23    2    1    2    0    0 -0.71054273576E-14  0.00000000000E+00 -0.58942541436E+03  0.59627277506E+03  0.90104956505E+02 0.  0.
    9000005    2    3    3    0    0 -0.35482962499E+02 -0.25581413038E+02 -0.36261468117E+03  0.36528238996E+03  0.53261704882E+01 0.  0.
         22    1    3    3    0    0  0.35482962499E+02  0.25581413038E+02 -0.22681073318E+03  0.23099038510E+03  0.00000000000E+00 0.  1.
         22    1    4    4    0    0 -0.19152700643E+02 -0.10698490940E+02 -0.17358474729E+03  0.17496556274E+03  0.00000000000E+00 0. -1.
         22    1    4    4    0    0 -0.16330261855E+02 -0.14882922098E+02 -0.18902993388E+03  0.19031682722E+03  0.00000000000E+00 0. -1.
<mgrwt>
<rscale>  0 0.90104957E+02</rscale>
<asrwt>0</asrwt>
<pdfrwt beam="2">  1        2 0.91207471E-01 0.90104957E+02</pdfrwt>
<pdfrwt beam="1">  1       -2 0.52672053E-03 0.90104957E+02</pdfrwt>
<totfact> 0.23427136E+05</totfact>
</mgrwt>
</event>
<event>
 7    1  0.3337990E-009  0.9220844E+02  0.7818608E-02  0.1297590E+00
         -2   -1    0    0    0  501 -0.00000000000E+00  0.00000000000E+00  0.55031092988E+01  0.55031098896E+01  0.25500000000E-02 0.  1.
          2   -1    0    0  501    0  0.00000000000E+00 -0.00000000000E+00 -0.38625420459E+03  0.38625420459E+03  0.25500000000E-02 0. -1.
         23    2    1    2    0    0  0.00000000000E+00  0.00000000000E+00 -0.38075109529E+03  0.39175731448E+03  0.92208442614E+02 0.  0.
    9000005    2    3    3    0    0  0.60024775663E+01 -0.85722047452E+01 -0.38113132666E+03  0.38128559032E+03  0.28461888873E+01 0.  0.
         22    1    3    3    0    0 -0.60024775663E+01  0.85722047452E+01  0.38023137228E+00  0.10471724167E+02  0.00000000000E+00 0.  1.
         22    1    4    4    0    0  0.36942753794E+01 -0.28985891383E+01 -0.17809566717E+03  0.17815755992E+03  0.00000000000E+00 0. -1.
         22    1    4    4    0    0  0.23082021869E+01 -0.56736156069E+01 -0.20303565949E+03  0.20312803040E+03  0.00000000000E+00 0. -1.
<mgrwt>
<rscale>  0 0.92208443E+02</rscale>
<asrwt>0</asrwt>
<pdfrwt beam="2">  1        2 0.59423703E-01 0.92208443E+02</pdfrwt>
<pdfrwt beam="1">  1       -2 0.84663255E-03 0.92208443E+02</pdfrwt>
<totfact> 0.19132223E+05</totfact>
</mgrwt>
</event>
<event>
 7    1  0.3337990E-009  0.7142943E+02  0.7818608E-02  0.1355299E+00
          2   -1    0    0  501    0  0.00000000000E+00  0.00000000000E+00  0.36701705142E+01  0.36701714000E+01  0.25500000000E-02 0. -1.
         -2   -1    0    0    0  501 -0.00000000000E+00 -0.00000000000E+00 -0.34754262507E+03  0.34754262508E+03  0.25500000000E-02 0.  1.
         23    2    1    2    0    0  0.00000000000E+00  0.00000000000E+00 -0.34387245456E+03  0.35121279648E+03  0.71429429569E+02 0.  0.
    9000005    2    3    3    0    0 -0.15927310081E+01 -0.33234541190E+02 -0.22670048053E+03  0.22940826858E+03  0.11312572618E+02 0.  0.
         22    1    3    3    0    0  0.15927310081E+01  0.33234541190E+02 -0.11717197403E+03  0.12180452790E+03  0.00000000000E+00 0. -1.
         22    1    4    4    0    0 -0.20037930207E+01 -0.82714587079E+01 -0.31954145572E+02  0.33068106007E+02  0.00000000000E+00 0. -1.
         22    1    4    4    0    0  0.41106201260E+00 -0.24963082482E+02 -0.19474633496E+03  0.19634016257E+03  0.00000000000E+00 0. -1.
<mgrwt>
<rscale>  0 0.71429430E+02</rscale>
<asrwt>0</asrwt>
<pdfrwt beam="1">  1        2 0.56464196E-03 0.71429430E+02</pdfrwt>
<pdfrwt beam="2">  1       -2 0.53468070E-01 0.71429430E+02</pdfrwt>
<totfact> 0.87366548E+04</totfact>
</mgrwt>
</event>
<event>
 7    1  0.3337990E-009  0.9175564E+02  0.7818608E-02  0.1298655E+00
          2   -1    0    0  501    0  0.00000000000E+00  0.00000000000E+00  0.46538597103E+01  0.46538604090E+01  0.25500000000E-02 0. -1.
         -2   -1    0    0    0  501 -0.00000000000E+00 -0.00000000000E+00 -0.45226421954E+03  0.45226421954E+03  0.25500000000E-02 0.  1.
         23    2    1    2    0    0 -0.35527136788E-14 -0.17763568394E-14 -0.44761035983E+03  0.45691807995E+03  0.91755640502E+02 0.  0.
    9000005    2    3    3    0    0 -0.19807911432E+02 -0.15914178140E+02 -0.41314627448E+03  0.41410000433E+03  0.11973096893E+02 0.  0.
         22    1    3    3    0    0  0.19807911432E+02  0.15914178140E+02 -0.34464085346E+02  0.42818075621E+02  0.00000000000E+00 0. -1.
         22    1    4    4    0    0 -0.16780885171E+02 -0.17636756456E+02 -0.33970261477E+03  0.34057380957E+03  0.00000000000E+00 0. -1.
         22    1    4    4    0    0 -0.30270262613E+01  0.17225783158E+01 -0.73443659712E+02  0.73526194760E+02  0.00000000000E+00 0. -1.
<mgrwt>
<rscale>  0 0.91755641E+02</rscale>
<asrwt>0</asrwt>
<pdfrwt beam="1">  1        2 0.71597883E-03 0.91755641E+02</pdfrwt>
<pdfrwt beam="2">  1       -2 0.69579076E-01 0.91755641E+02</pdfrwt>
<totfact> 0.38522504E+04</totfact>
</mgrwt>
</event>
<event>
 6    1  0.3337990E-009  0.1347159E+03  0.7818608E-02  0.1220621E+00
          2   -1    0    0  501    0  0.00000000000E+00  0.00000000000E+00  0.52746492872E+02  0.52746492934E+02  0.25500000000E-02 0. -1.
         -2   -1    0    0    0  501 -0.00000000000E+00 -0.00000000000E+00 -0.86016918841E+02  0.86016918879E+02  0.25500000000E-02 0.  1.
    9000005    2    1    2    0    0 -0.63689048388E+02 -0.61957036281E+00 -0.38318436930E+02  0.74871619173E+02  0.89876580317E+01 0.  0.
         22    1    1    2    0    0  0.63689048388E+02  0.61957036281E+00  0.50480109615E+01  0.63891792639E+02  0.00000000000E+00 0. -1.
         22    1    3    3    0    0 -0.26081879480E+02  0.35609310555E+01 -0.18337441701E+02  0.32081247409E+02  0.00000000000E+00 0. -1.
         22    1    3    3    0    0 -0.37607168908E+02 -0.41805014183E+01 -0.19980995229E+02  0.42790371764E+02  0.00000000000E+00 0. -1.
<mgrwt>
<rscale>  0 0.13471586E+03</rscale>
<asrwt>0</asrwt>
<pdfrwt beam="1">  1        2 0.81148451E-02 0.13471586E+03</pdfrwt>
<pdfrwt beam="2">  1       -2 0.13233372E-01 0.13471586E+03</pdfrwt>
<totfact> 0.32192342E+04</totfact>
</mgrwt>
</event>
<event>
 7    1  0.3337990E-009  0.9073497E+02  0.7818608E-02  0.1301082E+00
          2   -1    0    0  501    0  0.00000000000E+00  0.00000000000E+00  0.80841071573E+02  0.80841071613E+02  0.25500000000E-02 0. -1.
         -2   -1    0    0    0  501 -0.00000000000E+00 -0.00000000000E+00 -0.25459937058E+02  0.25459937186E+02  0.25500000000E-02 0.  1.
         23    2    1    2    0    0  0.00000000000E+00  0.00000000000E+00  0.55381134515E+02  0.10630100880E+03  0.90734967964E+02 0.  0.
    9000005    2    3    3    0    0  0.41079755163E+02  0.52396523074E+01  0.46055055754E+02  0.63851321102E+02  0.15521688227E+02 0.  0.
         22    1    3    3    0    0 -0.41079755163E+02 -0.52396523074E+01  0.93260787610E+01  0.42449687697E+02  0.00000000000E+00 0.  1.
         22    1    4    4    0    0  0.44026260504E+01  0.10061786725E+01  0.14812692326E+02  0.15485844039E+02  0.00000000000E+00 0.  1.
         22    1    4    4    0    0  0.36677129112E+02  0.42334736348E+01  0.31242363428E+02  0.48365477063E+02  0.00000000000E+00 0.  1.
<mgrwt>
<rscale>  0 0.90734968E+02</rscale>
<asrwt>0</asrwt>
<pdfrwt beam="1">  1        2 0.12437088E-01 0.90734968E+02</pdfrwt>
<pdfrwt beam="2">  1       -2 0.39169134E-02 0.90734968E+02</pdfrwt>
<totfact> 0.11676435E+05</totfact>
</mgrwt>
</event>
<event>
 7    1  0.3337990E-009  0.9325795E+02  0.7818608E-02  0.1295149E+00
          2   -1    0    0  501    0  0.00000000000E+00  0.00000000000E+00  0.12021186582E+04  0.12021186582E+04  0.25500000000E-02 0. -1.
         -2   -1    0    0    0  501 -0.00000000000E+00 -0.00000000000E+00 -0.18086902202E+01  0.18086920177E+01  0.25500000000E-02 0.  1.
         23    2    1    2    0    0  0.35527136788E-14  0.88817841970E-15  0.12003099679E+04  0.12039273502E+04  0.93257950743E+02 0.  0.
    9000005    2    3    3    0    0 -0.26349939231E+02 -0.53816840727E+01  0.10909977623E+04  0.10913554171E+04  0.75661888850E+01 0.  0.
         22    1    3    3    0    0  0.26349939231E+02  0.53816840727E+01  0.10931220559E+03  0.11257193305E+03  0.00000000000E+00 0.  1.
         22    1    4    4    0    0 -0.22644709103E+02 -0.62856099894E+01  0.84000113888E+03  0.84032981922E+03  0.00000000000E+00 0. -1.
         22    1    4    4    0    0 -0.37052301280E+01  0.90392591672E+00  0.25099662347E+03  0.25102559791E+03  0.00000000000E+00 0. -1.
<mgrwt>
<rscale>  0 0.93257951E+02</rscale>
<asrwt>0</asrwt>
<pdfrwt beam="1">  1        2 0.18494092E+00 0.93257951E+02</pdfrwt>
<pdfrwt beam="2">  1       -2 0.27826079E-03 0.93257951E+02</pdfrwt>
<totfact> 0.23427906E+05</totfact>
</mgrwt>
</event>
<event>
 7    1  0.3337990E-009  0.9151286E+02  0.7818608E-02  0.1299229E+00
         -2   -1    0    0    0  501 -0.00000000000E+00  0.00000000000E+00  0.48499509492E+02  0.48499509560E+02  0.25500000000E-02 0.  1.
          2   -1    0    0  501    0  0.00000000000E+00 -0.00000000000E+00 -0.43168494244E+02  0.43168494319E+02  0.25500000000E-02 0. -1.
         23    2    1    2    0    0  0.35527136788E-14 -0.17763568394E-14  0.53310152485E+01  0.91668003879E+02  0.91512858176E+02 0.  0.
    9000005    2    3    3    0    0 -0.29281667382E+02 -0.12579458256E+02 -0.29560688873E+02  0.44412423984E+02  0.91088013948E+01 0.  0.
         22    1    3    3    0    0  0.29281667382E+02  0.12579458256E+02  0.34891704122E+02  0.47255579895E+02  0.00000000000E+00 0.  1.
         22    1    4    4    0    0 -0.15047330777E+02 -0.11134647487E+02 -0.18604228282E+02  0.26391662474E+02  0.00000000000E+00 0. -1.
         22    1    4    4    0    0 -0.14234336605E+02 -0.14448107694E+01 -0.10956460591E+02  0.18020761511E+02  0.00000000000E+00 0. -1.
<mgrwt>
<rscale>  0 0.91512858E+02</rscale>
<asrwt>0</asrwt>
<pdfrwt beam="2">  1        2 0.66413069E-02 0.91512858E+02</pdfrwt>
<pdfrwt beam="1">  1       -2 0.74614630E-02 0.91512858E+02</pdfrwt>
<totfact> 0.96262347E+04</totfact>
</mgrwt>
</event>
<event>
 7    1  0.3337990E-009  0.8858948E+02  0.7818608E-02  0.1306304E+00
         -2   -1    0    0    0  501 -0.00000000000E+00  0.00000000000E+00  0.69791730847E+01  0.69791735505E+01  0.25500000000E-02 0. -1.
          2   -1    0    0  501    0  0.00000000000E+00 -0.00000000000E+00 -0.28112557796E+03  0.28112557797E+03  0.25500000000E-02 0.  1.
         23    2    1    2    0    0  0.00000000000E+00  0.00000000000E+00 -0.27414640487E+03  0.28810475152E+03  0.88589483255E+02 0.  0.
    9000005    2    3    3    0    0  0.42033388180E+02 -0.24462069110E+01 -0.93625009848E+02  0.10273818573E+03  0.40868922578E+01 0.  0.
         22    1    3    3    0    0 -0.42033388180E+02  0.24462069110E+01 -0.18052139502E+03  0.18536656579E+03  0.00000000000E+00 0.  1.
         22    1    4    4    0    0  0.12869914872E+02  0.29543732859E+00 -0.32509506370E+02  0.34965554428E+02  0.00000000000E+00 0.  1.
         22    1    4    4    0    0  0.29163473308E+02 -0.27416442396E+01 -0.61115503478E+02  0.67772631304E+02  0.00000000000E+00 0.  1.
<mgrwt>
<rscale>  0 0.88589483E+02</rscale>
<asrwt>0</asrwt>
<pdfrwt beam="2">  1        2 0.43250080E-01 0.88589483E+02</pdfrwt>
<pdfrwt beam="1">  1       -2 0.10737192E-02 0.88589483E+02</pdfrwt>
<totfact> 0.18934641E+05</totfact>
</mgrwt>
</event>
<event>
 7    1  0.3337990E-009  0.9069880E+02  0.7818608E-02  0.1301168E+00
          2   -1    0    0  501    0  0.00000000000E+00  0.00000000000E+00  0.12597253223E+04  0.12597253223E+04  0.25500000000E-02 0.  1.
         -2   -1    0    0    0  501 -0.00000000000E+00 -0.00000000000E+00 -0.16325517405E+01  0.16325537320E+01  0.25500000000E-02 0. -1.
         23    2    1    2    0    0  0.00000000000E+00  0.88817841970E-15  0.12580927705E+04  0.12613578760E+04  0.90698798782E+02 0.  0.
    9000005    2    3    3    0    0  0.25142229204E+02 -0.60206827867E+01  0.11468764338E+04  0.11471762055E+04  0.43945289542E+01 0.  0.
         22    1    3    3    0    0 -0.25142229204E+02  0.60206827867E+01  0.11121633680E+03  0.11418167051E+03  0.00000000000E+00 0. -1.
         22    1    4    4    0    0  0.48358978417E+00  0.43722913309E+00  0.46500525573E+02  0.46505095495E+02  0.00000000000E+00 0.  1.
         22    1    4    4    0    0  0.24658639420E+02 -0.64579119198E+01  0.11003759082E+04  0.11006711100E+04  0.00000000000E+00 0.  1.
<mgrwt>
<rscale>  0 0.90698799E+02</rscale>
<asrwt>0</asrwt>
<pdfrwt beam="1">  1        2 0.19380403E+00 0.90698799E+02</pdfrwt>
<pdfrwt beam="2">  1       -2 0.25116179E-03 0.90698799E+02</pdfrwt>
<totfact> 0.25050766E+05</totfact>
</mgrwt>
</event>
<event>
 6    1  0.4931820E-009  0.5362096E+03  0.7818608E-02  0.1004737E+00
          2   -1    0    0  501    0  0.00000000000E+00  0.00000000000E+00  0.41661031980E+03  0.41661031981E+03  0.25500000000E-02 0.  1.
         -2   -1    0    0    0  501 -0.00000000000E+00 -0.00000000000E+00 -0.17253579920E+03  0.17253579922E+03  0.25500000000E-02 0. -1.
    9000005    2    1    2    0    0 -0.26362039972E+01  0.21188300103E+03  0.30238707675E+03  0.36936961914E+03  0.97270578186E+01 0.  0.
         22    1    1    2    0    0  0.26362039972E+01 -0.21188300103E+03 -0.58312556154E+02  0.21977649989E+03  0.00000000000E+00 0. -1.
         22    1    3    3    0    0  0.32768977116E+01  0.39027741279E+02  0.56293861372E+02  0.68577703929E+02  0.00000000000E+00 0.  1.
         22    1    3    3    0    0 -0.59131017087E+01  0.17285525975E+03  0.24609321538E+03  0.30079191521E+03  0.00000000000E+00 0.  1.
<mgrwt>
<rscale>  0 0.53620964E+03</rscale>
<asrwt>0</asrwt>
<pdfrwt beam="1">  1        2 0.64093894E-01 0.53620964E+03</pdfrwt>
<pdfrwt beam="2">  1       -2 0.26543970E-01 0.53620964E+03</pdfrwt>
<totfact> 0.97851428E+02</totfact>
</mgrwt>
</event>
<event>
 7    1  0.3337990E-009  0.9112434E+02  0.7818608E-02  0.1300152E+00
         -2   -1    0    0    0  501 -0.00000000000E+00  0.00000000000E+00  0.18809887220E+02  0.18809887393E+02  0.25500000000E-02 0.  1.
          2   -1    0    0  501    0  0.00000000000E+00 -0.00000000000E+00 -0.11036276484E+03  0.11036276487E+03  0.25500000000E-02 0. -1.
         23    2    1    2    0    0  0.00000000000E+00 -0.17763568394E-14 -0.91552877616E+02  0.12917265226E+03  0.91124336440E+02 0.  0.
    9000005    2    3    3    0    0 -0.32086727186E+02  0.14225059852E+02 -0.91930594296E+01  0.39645840403E+02  0.15980298189E+02 0.  0.
         22    1    3    3    0    0  0.32086727186E+02 -0.14225059852E+02 -0.82359818186E+02  0.89526811856E+02  0.00000000000E+00 0. -1.
         22    1    4    4    0    0 -0.26096435545E+02  0.17238738058E+02 -0.48330659880E+01  0.31647378483E+02  0.00000000000E+00 0.  1.
         22    1    4    4    0    0 -0.59902916411E+01 -0.30136782055E+01 -0.43599934416E+01  0.79984619198E+01  0.00000000000E+00 0.  1.
<mgrwt>
<rscale>  0 0.91124336E+02</rscale>
<asrwt>0</asrwt>
<pdfrwt beam="2">  1        2 0.16978887E-01 0.91124336E+02</pdfrwt>
<pdfrwt beam="1">  1       -2 0.28938289E-02 0.91124336E+02</pdfrwt>
<totfact> 0.12666824E+05</totfact>
</mgrwt>
</event>
<event>
 7    1  0.3337990E-009  0.9084435E+02  0.7818608E-02  0.1300820E+00
         -2   -1    0    0    0  501 -0.00000000000E+00  0.00000000000E+00  0.18722155211E+02  0.18722155385E+02  0.25500000000E-02 0.  1.
          2   -1    0    0  501    0  0.00000000000E+00 -0.00000000000E+00 -0.11019959911E+03  0.11019959914E+03  0.25500000000E-02 0. -1.
         23    2    1    2    0    0  0.00000000000E+00  0.00000000000E+00 -0.91477443897E+02  0.12892175452E+03  0.90844350662E+02 0.  0.
    9000005    2    3    3    0    0  0.18101413633E+02 -0.40480753470E+02 -0.58062610803E+02  0.73397852933E+02  0.70445343983E+01 0.  0.
         22    1    3    3    0    0 -0.18101413633E+02  0.40480753470E+02 -0.33414833094E+02  0.55523901589E+02  0.00000000000E+00 0. -1.
         22    1    4    4    0    0  0.13485017468E+01 -0.68005240161E+01 -0.12685090485E+02  0.14456040415E+02  0.00000000000E+00 0. -1.
         22    1    4    4    0    0  0.16752911886E+02 -0.33680229454E+02 -0.45377520318E+02  0.58941812518E+02  0.00000000000E+00 0. -1.
<mgrwt>
<rscale>  0 0.90844351E+02</rscale>
<asrwt>0</asrwt>
<pdfrwt beam="2">  1        2 0.16953784E-01 0.90844351E+02</pdfrwt>
<pdfrwt beam="1">  1       -2 0.28803316E-02 0.90844351E+02</pdfrwt>
<totfact> 0.12768197E+05</totfact>
</mgrwt>
</event>
<event>
 7    1  0.3337990E-009  0.9007857E+02  0.7818608E-02  0.1302662E+00
         -2   -1    0    0    0  501 -0.00000000000E+00  0.00000000000E+00  0.21070346848E+02  0.21070347003E+02  0.25500000000E-02 0.  1.
          2   -1    0    0  501    0  0.00000000000E+00 -0.00000000000E+00 -0.96274511466E+02  0.96274511500E+02  0.25500000000E-02 0. -1.
         23    2    1    2    0    0 -0.17763568394E-14  0.00000000000E+00 -0.75204164618E+02  0.11734485850E+03  0.90078573707E+02 0.  0.
    9000005    2    3    3    0    0  0.13625124983E+02 -0.42343554762E+02 -0.45019290160E+02  0.63588488585E+02  0.61756565069E+01 0.  0.
         22    1    3    3    0    0 -0.13625124983E+02  0.42343554762E+02 -0.30184874458E+02  0.53756369918E+02  0.00000000000E+00 0.  1.
         22    1    4    4    0    0  0.53657336243E+01 -0.14991249948E+02 -0.20358677133E+02  0.25845781221E+02  0.00000000000E+00 0.  1.
         22    1    4    4    0    0  0.82593913591E+01 -0.27352304814E+02 -0.24660613027E+02  0.37742707364E+02  0.00000000000E+00 0.  1.
<mgrwt>
<rscale>  0 0.90078574E+02</rscale>
<asrwt>0</asrwt>
<pdfrwt beam="2">  1        2 0.14811463E-01 0.90078574E+02</pdfrwt>
<pdfrwt beam="1">  1       -2 0.32415919E-02 0.90078574E+02</pdfrwt>
<totfact> 0.12538738E+05</totfact>
</mgrwt>
</event>
<event>
 7    1  0.3337990E-009  0.9054999E+02  0.7818608E-02  0.1301525E+00
         -2   -1    0    0    0  501 -0.00000000000E+00  0.00000000000E+00  0.43032251378E+01  0.43032258933E+01  0.25500000000E-02 0.  1.
          2   -1    0    0  501    0  0.00000000000E+00 -0.00000000000E+00 -0.47634616409E+03  0.47634616409E+03  0.25500000000E-02 0. -1.
         23    2    1    2    0    0  0.00000000000E+00  0.00000000000E+00 -0.47204293895E+03  0.48064938999E+03  0.90549985551E+02 0.  0.
    9000005    2    3    3    0    0  0.15757678577E+02 -0.37832724613E+02 -0.33508662950E+03  0.33769257768E+03  0.85795260900E+01 0.  0.
         22    1    3    3    0    0 -0.15757678577E+02  0.37832724613E+02 -0.13695630945E+03  0.14295681231E+03  0.00000000000E+00 0.  1.
         22    1    4    4    0    0  0.74442617496E+01 -0.12512385715E+02 -0.14855926710E+03  0.14927100412E+03  0.00000000000E+00 0. -1.
         22    1    4    4    0    0  0.83134168271E+01 -0.25320338898E+02 -0.18652736240E+03  0.18842157357E+03  0.00000000000E+00 0. -1.
<mgrwt>
<rscale>  0 0.90549986E+02</rscale>
<asrwt>0</asrwt>
<pdfrwt beam="2">  1        2 0.73283984E-01 0.90549986E+02</pdfrwt>
<pdfrwt beam="1">  1       -2 0.66203507E-03 0.90549986E+02</pdfrwt>
<totfact> 0.21599198E+05</totfact>
</mgrwt>
</event>
<event>
 7    1  0.3337990E-009  0.9064418E+02  0.7818608E-02  0.1301299E+00
          2   -1    0    0  501    0  0.00000000000E+00  0.00000000000E+00  0.41092654120E+03  0.41092654121E+03  0.25500000000E-02 0. -1.
         -2   -1    0    0    0  501 -0.00000000000E+00 -0.00000000000E+00 -0.49986838197E+01  0.49986844701E+01  0.25500000000E-02 0.  1.
         23    2    1    2    0    0  0.88817841970E-15  0.00000000000E+00  0.40592785738E+03  0.41592522568E+03  0.90644183255E+02 0.  0.
    9000005    2    3    3    0    0  0.55751451428E+01 -0.21814840556E+02  0.38268997073E+03  0.38356832706E+03  0.12887137718E+02 0.  0.
         22    1    3    3    0    0 -0.55751451428E+01  0.21814840556E+02  0.23237886650E+02  0.32356898613E+02  0.00000000000E+00 0.  1.
         22    1    4    4    0    0 -0.39686343239E+01 -0.99652526523E+01  0.16042086529E+03  0.16077907307E+03  0.00000000000E+00 0.  1.
         22    1    4    4    0    0  0.95437794668E+01 -0.11849587904E+02  0.22226910544E+03  0.22278925399E+03  0.00000000000E+00 0.  1.
<mgrwt>
<rscale>  0 0.90644183E+02</rscale>
<asrwt>0</asrwt>
<pdfrwt beam="1">  1        2 0.63219489E-01 0.90644183E+02</pdfrwt>
<pdfrwt beam="2">  1       -2 0.76902808E-03 0.90644183E+02</pdfrwt>
<totfact> 0.20470634E+05</totfact>
</mgrwt>
</event>
<event>
 7    1  0.3337990E-009  0.9356183E+02  0.7818608E-02  0.1294448E+00
          2   -1    0    0  501    0  0.00000000000E+00  0.00000000000E+00  0.42347291607E+03  0.42347291608E+03  0.25500000000E-02 0.  1.
         -2   -1    0    0    0  501 -0.00000000000E+00 -0.00000000000E+00 -0.51678718502E+01  0.51678724793E+01  0.25500000000E-02 0. -1.
         23    2    1    2    0    0 -0.35527136788E-14  0.00000000000E+00  0.41830504422E+03  0.42864078856E+03  0.93561827660E+02 0.  0.
    9000005    2    3    3    0    0  0.17343676216E+02  0.34594819840E+02  0.32945811619E+03  0.33173164924E+03  0.23732075624E+01 0.  0.
         22    1    3    3    0    0 -0.17343676216E+02 -0.34594819840E+02  0.88846928030E+02  0.96909139326E+02  0.00000000000E+00 0. -1.
         22    1    4    4    0    0  0.14801555001E+02  0.28953390402E+02  0.26928181157E+03  0.27123804838E+03  0.00000000000E+00 0.  1.
         22    1    4    4    0    0  0.25421212151E+01  0.56414294381E+01  0.60176304621E+02  0.60493600854E+02  0.00000000000E+00 0.  1.
<mgrwt>
<rscale>  0 0.93561828E+02</rscale>
<asrwt>0</asrwt>
<pdfrwt beam="1">  1        2 0.65149695E-01 0.93561828E+02</pdfrwt>
<pdfrwt beam="2">  1       -2 0.79505706E-03 0.93561828E+02</pdfrwt>
<totfact> 0.19019056E+05</totfact>
</mgrwt>
</event>
<event>
 7    1  0.3337990E-009  0.1019905E+03  0.7818608E-02  0.1276165E+00
          2   -1    0    0  501    0  0.00000000000E+00  0.00000000000E+00  0.14364926118E+03  0.14364926121E+03  0.25500000000E-02 0. -1.
         -2   -1    0    0    0  501 -0.00000000000E+00 -0.00000000000E+00 -0.18103242614E+02  0.18103242794E+02  0.25500000000E-02 0.  1.
         23    2    1    2    0    0  0.71054273576E-14  0.35527136788E-14  0.12554601857E+03  0.16175250400E+03  0.10199053766E+03 0.  0.
    9000005    2    3    3    0    0 -0.39659116042E+02 -0.24601270299E+02  0.30250017910E+02  0.55642204182E+02  0.17097710885E+01 0.  0.
         22    1    3    3    0    0  0.39659116042E+02  0.24601270299E+02  0.95296000660E+02  0.10611029982E+03  0.00000000000E+00 0. -1.
         22    1    4    4    0    0 -0.13185662503E+02 -0.91166366118E+01  0.10570382593E+02  0.19201764161E+02  0.00000000000E+00 0.  1.
         22    1    4    4    0    0 -0.26473453539E+02 -0.15484633688E+02  0.19679635317E+02  0.36440440021E+02  0.00000000000E+00 0.  1.
<mgrwt>
<rscale>  0 0.10199054E+03</rscale>
<asrwt>0</asrwt>
<pdfrwt beam="1">  1        2 0.22099886E-01 0.10199054E+03</pdfrwt>
<pdfrwt beam="2">  1       -2 0.27851144E-02 0.10199054E+03</pdfrwt>
<totfact> 0.10135084E+05</totfact>
</mgrwt>
</event>
<event>
 7    1  0.3337990E-009  0.9098027E+02  0.7818608E-02  0.1300495E+00
         -2   -1    0    0    0  501 -0.00000000000E+00  0.00000000000E+00  0.10628477645E+02  0.10628477951E+02  0.25500000000E-02 0.  1.
          2   -1    0    0  501    0  0.00000000000E+00 -0.00000000000E+00 -0.19469884156E+03  0.19469884158E+03  0.25500000000E-02 0. -1.
         23    2    1    2    0    0  0.35527136788E-14 -0.71054273576E-14 -0.18407036392E+03  0.20532731953E+03  0.90980268589E+02 0.  0.
    9000005    2    3    3    0    0 -0.16181277518E+02  0.40671755687E+02 -0.82604746021E+02  0.94822581767E+02  0.15866710279E+02 0.  0.
         22    1    3    3    0    0  0.16181277518E+02 -0.40671755687E+02 -0.10146561790E+03  0.11050473776E+03  0.00000000000E+00 0.  1.
         22    1    4    4    0    0 -0.67618617999E+01  0.28424975072E+02 -0.40243153535E+02  0.49731412501E+02  0.00000000000E+00 0. -1.
         22    1    4    4    0    0 -0.94194157185E+01  0.12246780614E+02 -0.42361592486E+02  0.45091169267E+02  0.00000000000E+00 0. -1.
<mgrwt>
<rscale>  0 0.90980269E+02</rscale>
<asrwt>0</asrwt>
<pdfrwt beam="2">  1        2 0.29953665E-01 0.90980269E+02</pdfrwt>
<pdfrwt beam="1">  1       -2 0.16351506E-02 0.90980269E+02</pdfrwt>
<totfact> 0.15408100E+05</totfact>
</mgrwt>
</event>
<event>
 7    1  0.3337990E-009  0.9086781E+02  0.7818608E-02  0.1300764E+00
         -2   -1    0    0    0  501 -0.00000000000E+00  0.00000000000E+00  0.58712682818E+02  0.58712682873E+02  0.25500000000E-02 0. -1.
          2   -1    0    0  501    0  0.00000000000E+00 -0.00000000000E+00 -0.35158324598E+02  0.35158324691E+02  0.25500000000E-02 0.  1.
         23    2    1    2    0    0 -0.44408920985E-15  0.00000000000E+00  0.23554358219E+02  0.93871007564E+02  0.90867806565E+02 0.  0.
    9000005    2    3    3    0    0  0.25102293681E+01 -0.22499456506E+02 -0.27693084778E+02  0.37845770320E+02  0.12364003884E+02 0.  0.
         22    1    3    3    0    0 -0.25102293681E+01  0.22499456506E+02  0.51247442997E+02  0.56025237244E+02  0.00000000000E+00 0. -1.
         22    1    4    4    0    0  0.58556538400E+01 -0.86134217893E+01 -0.64616199403E+01  0.12256926575E+02  0.00000000000E+00 0.  1.
         22    1    4    4    0    0 -0.33454244719E+01 -0.13886034717E+02 -0.21231464837E+02  0.25588843745E+02  0.00000000000E+00 0.  1.
<mgrwt>
<rscale>  0 0.90867807E+02</rscale>
<asrwt>0</asrwt>
<pdfrwt beam="2">  1        2 0.54089730E-02 0.90867807E+02</pdfrwt>
<pdfrwt beam="1">  1       -2 0.90327204E-02 0.90867807E+02</pdfrwt>
<totfact> 0.93167239E+04</totfact>
</mgrwt>
</event>
<event>
 7    1  0.3337990E-009  0.8898529E+02  0.7818608E-02  0.1305328E+00
          2   -1    0    0  501    0  0.00000000000E+00  0.00000000000E+00  0.29332161367E+03  0.29332161368E+03  0.25500000000E-02 0. -1.
         -2   -1    0    0    0  501 -0.00000000000E+00 -0.00000000000E+00 -0.67488896902E+01  0.67488901719E+01  0.25500000000E-02 0.  1.
         23    2    1    2    0    0  0.17763568394E-14  0.00000000000E+00  0.28657272398E+03  0.30007050386E+03  0.88985286163E+02 0.  0.
    9000005    2    3    3    0    0 -0.15021801024E+02 -0.34833257711E+02  0.22078738053E+03  0.22413156943E+03  0.69916138790E+01 0.  0.
         22    1    3    3    0    0  0.15021801024E+02  0.34833257711E+02  0.65785343456E+02  0.75938934430E+02  0.00000000000E+00 0.  1.
         22    1    4    4    0    0 -0.36051670540E+01 -0.14607989004E+02  0.10084588527E+03  0.10196216528E+03  0.00000000000E+00 0.  1.
         22    1    4    4    0    0 -0.11416633969E+02 -0.20225268707E+02  0.11994149526E+03  0.12216940415E+03  0.00000000000E+00 0.  1.
<mgrwt>
<rscale>  0 0.88985286E+02</rscale>
<asrwt>0</asrwt>
<pdfrwt beam="1">  1        2 0.45126391E-01 0.88985286E+02</pdfrwt>
<pdfrwt beam="2">  1       -2 0.10382910E-02 0.88985286E+02</pdfrwt>
<totfact> 0.19009044E+05</totfact>
</mgrwt>
</event>
<event>
 7    1  0.3337990E-009  0.9565100E+02  0.7818608E-02  0.1289717E+00
         -2   -1    0    0    0  501 -0.00000000000E+00  0.00000000000E+00  0.52683873578E+02  0.52683873639E+02  0.25500000000E-02 0. -1.
          2   -1    0    0  501    0  0.00000000000E+00 -0.00000000000E+00 -0.43415155518E+02  0.43415155593E+02  0.25500000000E-02 0.  1.
         23    2    1    2    0    0  0.00000000000E+00  0.00000000000E+00  0.92687180597E+01  0.96099029232E+02  0.95651002529E+02 0.  0.
    9000005    2    3    3    0    0 -0.12344832696E+02 -0.24876741670E+02 -0.34333949499E+02  0.44403383491E+02  0.46468491291E+01 0.  0.
         22    1    3    3    0    0  0.12344832696E+02  0.24876741670E+02  0.43602667559E+02  0.51695645741E+02  0.00000000000E+00 0. -1.
         22    1    4    4    0    0 -0.23138169175E+01 -0.88673882663E+01 -0.13018400152E+02  0.15920523418E+02  0.00000000000E+00 0. -1.
         22    1    4    4    0    0 -0.10031015778E+02 -0.16009353404E+02 -0.21315549347E+02  0.28482860072E+02  0.00000000000E+00 0. -1.
<mgrwt>
<rscale>  0 0.95651003E+02</rscale>
<asrwt>0</asrwt>
<pdfrwt beam="2">  1        2 0.66792547E-02 0.95651003E+02</pdfrwt>
<pdfrwt beam="1">  1       -2 0.81052113E-02 0.95651003E+02</pdfrwt>
<totfact> 0.84809404E+04</totfact>
</mgrwt>
</event>
<event>
 7    1  0.3337990E-009  0.9082431E+02  0.7818608E-02  0.1300868E+00
          2   -1    0    0  501    0  0.00000000000E+00  0.00000000000E+00  0.10793452642E+01  0.10793482764E+01  0.25500000000E-02 0. -1.
         -2   -1    0    0    0  501 -0.00000000000E+00 -0.00000000000E+00 -0.19106592826E+04  0.19106592826E+04  0.25500000000E-02 0.  1.
         23    2    1    2    0    0  0.00000000000E+00  0.00000000000E+00 -0.19095799373E+04  0.19117386309E+04  0.90824312364E+02 0.  0.
    9000005    2    3    3    0    0 -0.11367652498E+02 -0.17951597799E+02 -0.17978758554E+04  0.17980316156E+04  0.10421906133E+02 0.  0.
         22    1    3    3    0    0  0.11367652498E+02  0.17951597799E+02 -0.11170408197E+03  0.11370701524E+03  0.00000000000E+00 0. -1.
         22    1    4    4    0    0 -0.60673466618E+01 -0.10627630424E+02 -0.61817019712E+03  0.61829131632E+03  0.00000000000E+00 0. -1.
         22    1    4    4    0    0 -0.53003058359E+01 -0.73239673748E+01 -0.11797056582E+04  0.11797402993E+04  0.00000000000E+00 0. -1.
<mgrwt>
<rscale>  0 0.90824312E+02</rscale>
<asrwt>0</asrwt>
<pdfrwt beam="1">  1        2 0.16605488E-03 0.90824312E+02</pdfrwt>
<pdfrwt beam="2">  1       -2 0.29394488E+00 0.90824312E+02</pdfrwt>
<totfact> 0.65510488E+03</totfact>
</mgrwt>
</event>
<event>
 7    1  0.3337990E-009  0.8961234E+02  0.7818608E-02  0.1303793E+00
          2   -1    0    0  501    0  0.00000000000E+00  0.00000000000E+00  0.92481745929E+01  0.92481749445E+01  0.25500000000E-02 0. -1.
         -2   -1    0    0    0  501 -0.00000000000E+00 -0.00000000000E+00 -0.21707989018E+03  0.21707989019E+03  0.25500000000E-02 0.  1.
         23    2    1    2    0    0  0.00000000000E+00  0.00000000000E+00 -0.20783171559E+03  0.22632806514E+03  0.89612337688E+02 0.  0.
    9000005    2    3    3    0    0  0.42989324031E+02  0.65514114577E+01 -0.98230482138E+02  0.10841524418E+03  0.14616243601E+02 0.  0.
         22    1    3    3    0    0 -0.42989324031E+02 -0.65514114577E+01 -0.10960123345E+03  0.11791282096E+03  0.00000000000E+00 0.  1.
         22    1    4    4    0    0  0.10781943798E+02  0.13683969241E+01 -0.42229008833E+02  0.43605183284E+02  0.00000000000E+00 0.  1.
         22    1    4    4    0    0  0.32207380234E+02  0.51830145336E+01 -0.56001473305E+02  0.64810060897E+02  0.00000000000E+00 0.  1.
<mgrwt>
<rscale>  0 0.89612338E+02</rscale>
<asrwt>0</asrwt>
<pdfrwt beam="1">  1        2 0.14227963E-02 0.89612338E+02</pdfrwt>
<pdfrwt beam="2">  1       -2 0.33396902E-01 0.89612338E+02</pdfrwt>
<totfact> 0.62809584E+04</totfact>
</mgrwt>
</event>
<event>
 7    1  0.3337990E-009  0.9199366E+02  0.7818608E-02  0.1298094E+00
         -2   -1    0    0    0  501 -0.00000000000E+00  0.00000000000E+00  0.26599842378E+01  0.26599854601E+01  0.25500000000E-02 0.  1.
          2   -1    0    0  501    0  0.00000000000E+00 -0.00000000000E+00 -0.79538368309E+03  0.79538368309E+03  0.25500000000E-02 0. -1.
         23    2    1    2    0    0  0.00000000000E+00  0.22204460493E-15 -0.79272369885E+03  0.79804366855E+03  0.91993663899E+02 0.  0.
    9000005    2    3    3    0    0  0.41235771367E+02  0.11369128998E+01 -0.55854091696E+03  0.56025540823E+03  0.14713433530E+02 0.  0.
         22    1    3    3    0    0 -0.41235771367E+02 -0.11369128998E+01 -0.23418278189E+03  0.23778826032E+03  0.00000000000E+00 0. -1.
         22    1    4    4    0    0  0.76114142228E+01 -0.49488049786E+01 -0.85083967939E+02  0.85566967327E+02  0.00000000000E+00 0.  1.
         22    1    4    4    0    0  0.33624357144E+02  0.60857178784E+01 -0.47345694902E+03  0.47468844091E+03  0.00000000000E+00 0.  1.
<mgrwt>
<rscale>  0 0.91993664E+02</rscale>
<asrwt>0</asrwt>
<pdfrwt beam="2">  1        2 0.12236653E+00 0.91993664E+02</pdfrwt>
<pdfrwt beam="1">  1       -2 0.40922907E-03 0.91993664E+02</pdfrwt>
<totfact> 0.23783007E+05</totfact>
</mgrwt>
</event>
<event>
 7    1  0.3337990E-009  0.1067350E+03  0.7818608E-02  0.1266738E+00
         -2   -1    0    0    0  501 -0.00000000000E+00  0.00000000000E+00  0.13289465242E+02  0.13289465487E+02  0.25500000000E-02 0. -1.
          2   -1    0    0  501    0  0.00000000000E+00 -0.00000000000E+00 -0.21431180210E+03  0.21431180211E+03  0.25500000000E-02 0.  1.
         23    2    1    2    0    0  0.00000000000E+00  0.00000000000E+00 -0.20102233685E+03  0.22760126760E+03  0.10673498535E+03 0.  0.
    9000005    2    3    3    0    0  0.24301393099E+02 -0.26608943416E+02 -0.18394273532E+03  0.18772262213E+03  0.10308220174E+02 0.  0.
         22    1    3    3    0    0 -0.24301393099E+02  0.26608943416E+02 -0.17079601530E+02  0.39878645472E+02  0.00000000000E+00 0. -1.
         22    1    4    4    0    0  0.21211460577E+02 -0.22657632792E+02 -0.17186009066E+03  0.17464015903E+03  0.00000000000E+00 0. -1.
         22    1    4    4    0    0  0.30899325222E+01 -0.39513106243E+01 -0.12082644660E+02  0.13082463095E+02  0.00000000000E+00 0. -1.
<mgrwt>
<rscale>  0 0.10673499E+03</rscale>
<asrwt>0</asrwt>
<pdfrwt beam="2">  1        2 0.32971044E-01 0.10673499E+03</pdfrwt>
<pdfrwt beam="1">  1       -2 0.20445333E-02 0.10673499E+03</pdfrwt>
<totfact> 0.10342486E+05</totfact>
</mgrwt>
</event>
<event>
 7    1  0.3337990E-009  0.9093737E+02  0.7818608E-02  0.1300597E+00
         -2   -1    0    0    0  501 -0.00000000000E+00  0.00000000000E+00  0.11296344503E+03  0.11296344506E+03  0.25500000000E-02 0.  1.
          2   -1    0    0  501    0  0.00000000000E+00 -0.00000000000E+00 -0.18301507279E+02  0.18301507456E+02  0.25500000000E-02 0. -1.
         23    2    1    2    0    0  0.00000000000E+00  0.00000000000E+00  0.94661937755E+02  0.13126495252E+03  0.90937370207E+02 0.  0.
    9000005    2    3    3    0    0 -0.30817385858E+02 -0.17017262707E+01  0.13877663517E+01  0.33016908292E+02  0.11644019680E+02 0.  0.
         22    1    3    3    0    0  0.30817385858E+02  0.17017262707E+01  0.93274171403E+02  0.98248044227E+02  0.00000000000E+00 0.  1.
         22    1    4    4    0    0 -0.76591383518E+00 -0.16341064372E+01  0.23341587909E+01  0.29504618473E+01  0.00000000000E+00 0.  1.
         22    1    4    4    0    0 -0.30051472022E+02 -0.67619833535E-01 -0.94639243920E+00  0.30066446445E+02  0.00000000000E+00 0.  1.
<mgrwt>
<rscale>  0 0.90937370E+02</rscale>
<asrwt>0</asrwt>
<pdfrwt beam="2">  1        2 0.28156165E-02 0.90937370E+02</pdfrwt>
<pdfrwt beam="1">  1       -2 0.17378992E-01 0.90937370E+02</pdfrwt>
<totfact> 0.77391468E+04</totfact>
</mgrwt>
</event>
<event>
 7    1  0.3337990E-009  0.9088020E+02  0.7818608E-02  0.1300734E+00
          2   -1    0    0  501    0  0.00000000000E+00  0.00000000000E+00  0.45800232265E+03  0.45800232266E+03  0.25500000000E-02 0. -1.
         -2   -1    0    0    0  501 -0.00000000000E+00 -0.00000000000E+00 -0.45082793547E+01  0.45082800759E+01  0.25500000000E-02 0.  1.
         23    2    1    2    0    0  0.33306690739E-15  0.00000000000E+00  0.45349404330E+03  0.46251060273E+03  0.90880197712E+02 0.  0.
    9000005    2    3    3    0    0  0.35707116126E+00 -0.42787409538E+02  0.28774996799E+03  0.29133236693E+03  0.15608139748E+02 0.  0.
         22    1    3    3    0    0 -0.35707116126E+00  0.42787409538E+02  0.16574407530E+03  0.17117823580E+03  0.00000000000E+00 0.  1.
         22    1    4    4    0    0 -0.29080396876E+01 -0.41929076541E+02  0.27165373713E+03  0.27488589824E+03  0.00000000000E+00 0.  1.
         22    1    4    4    0    0  0.32651108488E+01 -0.85833299675E+00  0.16096230864E+02  0.16446468691E+02  0.00000000000E+00 0.  1.
<mgrwt>
<rscale>  0 0.90880198E+02</rscale>
<asrwt>0</asrwt>
<pdfrwt beam="1">  1        2 0.70461884E-01 0.90880198E+02</pdfrwt>
<pdfrwt beam="2">  1       -2 0.69358162E-03 0.90880198E+02</pdfrwt>
<totfact> 0.21111069E+05</totfact>
</mgrwt>
</event>
<event>
 7    1  0.3337990E-009  0.9131201E+02  0.7818608E-02  0.1299705E+00
         -2   -1    0    0    0  501 -0.00000000000E+00  0.00000000000E+00  0.24246894734E+01  0.24246908143E+01  0.25500000000E-02 0. -1.
          2   -1    0    0  501    0  0.00000000000E+00 -0.00000000000E+00 -0.85968538946E+03  0.85968538946E+03  0.25500000000E-02 0.  1.
         23    2    1    2    0    0  0.00000000000E+00  0.00000000000E+00 -0.85726069999E+03  0.86211008028E+03  0.91312007839E+02 0.  0.
    9000005    2    3    3    0    0 -0.49730733091E+01 -0.38672359322E+02 -0.65253929967E+03  0.65370870172E+03  0.26918893862E+01 0.  0.
         22    1    3    3    0    0  0.49730733091E+01  0.38672359322E+02 -0.20472140032E+03  0.20840137855E+03  0.00000000000E+00 0.  1.
         22    1    4    4    0    0 -0.10081178444E+01 -0.72206138015E+01 -0.14050779201E+03  0.14069681298E+03  0.00000000000E+00 0. -1.
         22    1    4    4    0    0 -0.39649554647E+01 -0.31451745521E+02 -0.51203150765E+03  0.51301188875E+03  0.00000000000E+00 0. -1.
<mgrwt>
<rscale>  0 0.91312008E+02</rscale>
<asrwt>0</asrwt>
<pdfrwt beam="2">  1        2 0.13225905E+00 0.91312008E+02</pdfrwt>
<pdfrwt beam="1">  1       -2 0.37302994E-03 0.91312008E+02</pdfrwt>
<totfact> 0.24555734E+05</totfact>
</mgrwt>
</event>
<event>
 7    1  0.3337990E-009  0.8306324E+02  0.7818608E-02  0.1320576E+00
         -2   -1    0    0    0  501 -0.00000000000E+00  0.00000000000E+00  0.63923635112E+01  0.63923640198E+01  0.25500000000E-02 0. -1.
          2   -1    0    0  501    0  0.00000000000E+00 -0.00000000000E+00 -0.26983372532E+03  0.26983372533E+03  0.25500000000E-02 0.  1.
         23    2    1    2    0    0  0.35527136788E-14 -0.17763568394E-14 -0.26344136181E+03  0.27622608935E+03  0.83063236916E+02 0.  0.
    9000005    2    3    3    0    0  0.20412120781E+02 -0.11528640480E+02 -0.24520457279E+03  0.24652516850E+03  0.99905934130E+01 0.  0.
         22    1    3    3    0    0 -0.20412120781E+02  0.11528640480E+02 -0.18236789014E+02  0.29700920855E+02  0.00000000000E+00 0. -1.
         22    1    4    4    0    0  0.15259169493E+02 -0.73072039927E+01 -0.12548118328E+03  0.12661660571E+03  0.00000000000E+00 0. -1.
         22    1    4    4    0    0  0.51529512879E+01 -0.42214364871E+01 -0.11972338952E+03  0.11990856279E+03  0.00000000000E+00 0. -1.
<mgrwt>
<rscale>  0 0.83063237E+02</rscale>
<asrwt>0</asrwt>
<pdfrwt beam="2">  1        2 0.41512872E-01 0.83063237E+02</pdfrwt>
<pdfrwt beam="1">  1       -2 0.98344078E-03 0.83063237E+02</pdfrwt>
<totfact> 0.22125479E+05</totfact>
</mgrwt>
</event>
<event>
 7    1  0.3337990E-009  0.9919842E+02  0.7818608E-02  0.1281991E+00
          2   -1    0    0  501    0  0.00000000000E+00  0.00000000000E+00  0.30875033091E+02  0.30875033196E+02  0.25500000000E-02 0. -1.
         -2   -1    0    0    0  501 -0.00000000000E+00 -0.00000000000E+00 -0.79678671538E+02  0.79678671578E+02  0.25500000000E-02 0.  1.
         23    2    1    2    0    0  0.00000000000E+00  0.00000000000E+00 -0.48803638447E+02  0.11055370477E+03  0.99198419915E+02 0.  0.
    9000005    2    3    3    0    0 -0.23471015796E+02  0.18157948323E+02  0.18897276125E+02  0.36634738984E+02  0.10217503887E+02 0.  0.
         22    1    3    3    0    0  0.23471015796E+02 -0.18157948323E+02 -0.67700914572E+02  0.73918965791E+02  0.00000000000E+00 0.  1.
         22    1    4    4    0    0 -0.53355984078E+01  0.45999106415E+01  0.10161993187E+02  0.12365027045E+02  0.00000000000E+00 0. -1.
         22    1    4    4    0    0 -0.18135417388E+02  0.13558037681E+02  0.87352829379E+01  0.24269711939E+02  0.00000000000E+00 0. -1.
<mgrwt>
<rscale>  0 0.99198420E+02</rscale>
<asrwt>0</asrwt>
<pdfrwt beam="1">  1        2 0.47500051E-02 0.99198420E+02</pdfrwt>
<pdfrwt beam="2">  1       -2 0.12258257E-01 0.99198420E+02</pdfrwt>
<totfact> 0.69257952E+04</totfact>
</mgrwt>
</event>
<event>
 7    1  0.3337990E-009  0.9216088E+02  0.7818608E-02  0.1297702E+00
         -2   -1    0    0    0  501 -0.00000000000E+00  0.00000000000E+00  0.36265271599E+01  0.36265280564E+01  0.25500000000E-02 0.  1.
          2   -1    0    0  501    0  0.00000000000E+00 -0.00000000000E+00 -0.58552065823E+03  0.58552065824E+03  0.25500000000E-02 0. -1.
         23    2    1    2    0    0  0.00000000000E+00  0.00000000000E+00 -0.58189413107E+03  0.58914718629E+03  0.92160877502E+02 0.  0.
    9000005    2    3    3    0    0  0.37961068538E+02  0.29572838315E+01 -0.45268536296E+03  0.45444494426E+03  0.12098812834E+02 0.  0.
         22    1    3    3    0    0 -0.37961068538E+02 -0.29572838315E+01 -0.12920876811E+03  0.13470224203E+03  0.00000000000E+00 0.  1.
         22    1    4    4    0    0  0.10931509938E+02 -0.46248173015E+01 -0.13000122706E+03  0.13054196981E+03  0.00000000000E+00 0.  1.
         22    1    4    4    0    0  0.27029558600E+02  0.75821011330E+01 -0.32268413590E+03  0.32390297445E+03  0.00000000000E+00 0.  1.
<mgrwt>
<rscale>  0 0.92160878E+02</rscale>
<asrwt>0</asrwt>
<pdfrwt beam="2">  1        2 0.90080026E-01 0.92160878E+02</pdfrwt>
<pdfrwt beam="1">  1       -2 0.55792779E-03 0.92160878E+02</pdfrwt>
<totfact> 0.21992667E+05</totfact>
</mgrwt>
</event>
<event>
 7    1  0.3337990E-009  0.9278560E+02  0.7818608E-02  0.1296243E+00
          2   -1    0    0  501    0  0.00000000000E+00  0.00000000000E+00  0.49392929499E+01  0.49392936082E+01  0.25500000000E-02 0. -1.
         -2   -1    0    0    0  501 -0.00000000000E+00 -0.00000000000E+00 -0.43574892655E+03  0.43574892656E+03  0.25500000000E-02 0.  1.
         23    2    1    2    0    0  0.00000000000E+00  0.00000000000E+00 -0.43080963360E+03  0.44068822017E+03  0.92785596890E+02 0.  0.
    9000005    2    3    3    0    0 -0.39784826252E+02 -0.20195885951E+02 -0.25514973626E+03  0.25945051509E+03  0.14915617830E+02 0.  0.
         22    1    3    3    0    0  0.39784826252E+02  0.20195885951E+02 -0.17565989734E+03  0.18123770508E+03  0.00000000000E+00 0. -1.
         22    1    4    4    0    0 -0.29456970599E+02 -0.19588479812E+02 -0.21941013631E+03  0.22224362662E+03  0.00000000000E+00 0. -1.
         22    1    4    4    0    0 -0.10327855653E+02 -0.60740613913E+00 -0.35739599958E+02  0.37206888472E+02  0.00000000000E+00 0. -1.
<mgrwt>
<rscale>  0 0.92785597E+02</rscale>
<asrwt>0</asrwt>
<pdfrwt beam="1">  1        2 0.75989162E-03 0.92785597E+02</pdfrwt>
<pdfrwt beam="2">  1       -2 0.67038266E-01 0.92785597E+02</pdfrwt>
<totfact> 0.38444355E+04</totfact>
</mgrwt>
</event>
<event>
 7    1  0.3337990E-009  0.7678030E+02  0.7818608E-02  0.1338445E+00
         -2   -1    0    0    0  501 -0.00000000000E+00  0.00000000000E+00  0.97734340109E+00  0.97734672771E+00  0.25500000000E-02 0.  1.
          2   -1    0    0  501    0  0.00000000000E+00 -0.00000000000E+00 -0.15079666632E+04  0.15079666632E+04  0.25500000000E-02 0. -1.
         23    2    1    2    0    0  0.00000000000E+00  0.00000000000E+00 -0.15069893198E+04  0.15089440099E+04  0.76780304214E+02 0.  0.
    9000005    2    3    3    0    0 -0.10876005328E+02 -0.16774376608E+02 -0.13968028681E+04  0.13969586477E+04  0.59618801620E+01 0.  0.
         22    1    3    3    0    0  0.10876005328E+02  0.16774376608E+02 -0.11018645171E+03  0.11198536219E+03  0.00000000000E+00 0.  1.
         22    1    4    4    0    0 -0.44144027994E+01 -0.76862809051E+01 -0.82074826403E+03  0.82079612497E+03  0.00000000000E+00 0.  1.
         22    1    4    4    0    0 -0.64616025288E+01 -0.90880957032E+01 -0.57605460403E+03  0.57616252274E+03  0.00000000000E+00 0.  1.
<mgrwt>
<rscale>  0 0.76780304E+02</rscale>
<asrwt>0</asrwt>
<pdfrwt beam="2">  1        2 0.23199301E+00 0.76780304E+02</pdfrwt>
<pdfrwt beam="1">  1       -2 0.15036199E-03 0.76780304E+02</pdfrwt>
<totfact> 0.36896315E+05</totfact>
</mgrwt>
</event>
<event>
 7    1  0.3337990E-009  0.8941555E+02  0.7818608E-02  0.1304273E+00
          2   -1    0    0  501    0  0.00000000000E+00  0.00000000000E+00  0.10056027282E+03  0.10056027285E+03  0.25500000000E-02 0. -1.
         -2   -1    0    0    0  501 -0.00000000000E+00 -0.00000000000E+00 -0.19876488206E+02  0.19876488369E+02  0.25500000000E-02 0.  1.
         23    2    1    2    0    0  0.35527136788E-14  0.00000000000E+00  0.80683784617E+02  0.12043676122E+03  0.89415548727E+02 0.  0.
    9000005    2    3    3    0    0 -0.29072969996E+02  0.22275083508E+02  0.72765664554E+02  0.82965257985E+02  0.15715443518E+02 0.  0.
         22    1    3    3    0    0  0.29072969996E+02 -0.22275083508E+02  0.79181200632E+01  0.37471503239E+02  0.00000000000E+00 0.  1.
         22    1    4    4    0    0 -0.58991112278E+01  0.10899531090E+02  0.13527579537E+02  0.18346517365E+02  0.00000000000E+00 0. -1.
         22    1    4    4    0    0 -0.23173858768E+02  0.11375552417E+02  0.59238085016E+02  0.64618740621E+02  0.00000000000E+00 0. -1.
<mgrwt>
<rscale>  0 0.89415549E+02</rscale>
<asrwt>0</asrwt>
<pdfrwt beam="1">  1        2 0.15470811E-01 0.89415549E+02</pdfrwt>
<pdfrwt beam="2">  1       -2 0.30579212E-02 0.89415549E+02</pdfrwt>
<totfact> 0.12964785E+05</totfact>
</mgrwt>
</event>
<event>
 7    1  0.4248902E-009  0.8945052E+02  0.7818608E-02  0.1304188E+00
          2   -1    0    0  501    0  0.00000000000E+00  0.00000000000E+00  0.40711927428E+03  0.40711927428E+03  0.25500000000E-02 0. -1.
         -2   -1    0    0    0  501 -0.00000000000E+00 -0.00000000000E+00 -0.49134219932E+01  0.49134226549E+01  0.25500000000E-02 0.  1.
         23    2    1    2    0    0 -0.17763568394E-14  0.00000000000E+00  0.40220585228E+03  0.41203269694E+03  0.89450521162E+02 0.  0.
    9000005    2    3    3    0    0  0.12431107539E+02 -0.14947602817E+02  0.38610492553E+03  0.38678981464E+03  0.12303817460E+02 0.  0.
         22    1    3    3    0    0 -0.12431107539E+02  0.14947602817E+02  0.16100926754E+02  0.25242882303E+02  0.00000000000E+00 0.  1.
         22    1    4    4    0    0 -0.48466255736E+00 -0.11261876137E+01  0.33433056614E+01  0.35610236002E+01  0.00000000000E+00 0.  1.
         22    1    4    4    0    0  0.12915770096E+02 -0.13821415203E+02  0.38276161987E+03  0.38322879104E+03  0.00000000000E+00 0.  1.
<mgrwt>
<rscale>  0 0.89450521E+02</rscale>
<asrwt>0</asrwt>
<pdfrwt beam="1">  1        2 0.62633744E-01 0.89450521E+02</pdfrwt>
<pdfrwt beam="2">  1       -2 0.75591101E-03 0.89450521E+02</pdfrwt>
<totfact> 0.21132392E+05</totfact>
</mgrwt>
</event>
<event>
 7    1  0.3337990E-009  0.8952868E+02  0.7818608E-02  0.1303997E+00
         -2   -1    0    0    0  501 -0.00000000000E+00  0.00000000000E+00  0.31757250100E+01  0.31757260338E+01  0.25500000000E-02 0. -1.
          2   -1    0    0  501    0  0.00000000000E+00 -0.00000000000E+00 -0.63098850747E+03  0.63098850747E+03  0.25500000000E-02 0.  1.
         23    2    1    2    0    0  0.44408920985E-15  0.00000000000E+00 -0.62781278246E+03  0.63416423351E+03  0.89528683905E+02 0.  0.
    9000005    2    3    3    0    0  0.22667489652E+01  0.39514868585E+02 -0.45256402423E+03  0.45450152104E+03  0.13815701610E+02 0.  0.
         22    1    3    3    0    0 -0.22667489652E+01 -0.39514868585E+02 -0.17524875822E+03  0.17966271246E+03  0.00000000000E+00 0.  1.
         22    1    4    4    0    0  0.33259451409E+01  0.11541478349E+02 -0.20676635786E+03  0.20711493036E+03  0.00000000000E+00 0.  1.
         22    1    4    4    0    0 -0.10591961756E+01  0.27973390237E+02 -0.24579766637E+03  0.24738659068E+03  0.00000000000E+00 0.  1.
<mgrwt>
<rscale>  0 0.89528684E+02</rscale>
<asrwt>0</asrwt>
<pdfrwt beam="2">  1        2 0.97075055E-01 0.89528684E+02</pdfrwt>
<pdfrwt beam="1">  1       -2 0.48857366E-03 0.89528684E+02</pdfrwt>
<totfact> 0.24242420E+05</totfact>
</mgrwt>
</event>
<event>
 7    1  0.3337990E-009  0.9263935E+02  0.7818608E-02  0.1296583E+00
          2   -1    0    0  501    0  0.00000000000E+00  0.00000000000E+00  0.43520694049E+02  0.43520694124E+02  0.25500000000E-02 0. -1.
         -2   -1    0    0    0  501 -0.00000000000E+00 -0.00000000000E+00 -0.49298663600E+02  0.49298663666E+02  0.25500000000E-02 0.  1.
         23    2    1    2    0    0  0.00000000000E+00  0.00000000000E+00 -0.57779695507E+01  0.92819357790E+02  0.92639345034E+02 0.  0.
    9000005    2    3    3    0    0  0.38827439279E+02  0.16161285040E+02  0.13188165738E+02  0.46683997566E+02  0.15385406661E+02 0.  0.
         22    1    3    3    0    0 -0.38827439279E+02 -0.16161285040E+02 -0.18966135289E+02  0.46135360223E+02  0.00000000000E+00 0.  1.
         22    1    4    4    0    0  0.38585762332E+02  0.12118546328E+02  0.13459777772E+02  0.42624943842E+02  0.00000000000E+00 0. -1.
         22    1    4    4    0    0  0.24167694709E+00  0.40427387122E+01 -0.27161203377E+00  0.40590537245E+01  0.00000000000E+00 0. -1.
<mgrwt>
<rscale>  0 0.92639345E+02</rscale>
<asrwt>0</asrwt>
<pdfrwt beam="1">  1        2 0.66954914E-02 0.92639345E+02</pdfrwt>
<pdfrwt beam="2">  1       -2 0.75844098E-02 0.92639345E+02</pdfrwt>
<totfact> 0.93117306E+04</totfact>
</mgrwt>
</event>
<event>
 7    1  0.3337990E-009  0.8762889E+02  0.7818608E-02  0.1308697E+00
          2   -1    0    0  501    0  0.00000000000E+00  0.00000000000E+00  0.91236898070E+02  0.91236898106E+02  0.25500000000E-02 0. -1.
         -2   -1    0    0    0  501 -0.00000000000E+00 -0.00000000000E+00 -0.21040889688E+02  0.21040889843E+02  0.25500000000E-02 0.  1.
         23    2    1    2    0    0  0.00000000000E+00  0.00000000000E+00  0.70196008382E+02  0.11227778795E+03  0.87628888352E+02 0.  0.
    9000005    2    3    3    0    0 -0.21388458541E+02 -0.82448794854E+01 -0.11392826504E+02  0.27530031786E+02  0.10132223740E+02 0.  0.
         22    1    3    3    0    0  0.21388458541E+02  0.82448794854E+01  0.81588834886E+02  0.84747756162E+02  0.00000000000E+00 0. -1.
         22    1    4    4    0    0 -0.18630507120E+02 -0.27405682784E+01 -0.94832702687E+01  0.21084091752E+02  0.00000000000E+00 0. -1.
         22    1    4    4    0    0 -0.27579514212E+01 -0.55043112071E+01 -0.19095562353E+01  0.64459400340E+01  0.00000000000E+00 0. -1.
<mgrwt>
<rscale>  0 0.87628888E+02</rscale>
<asrwt>0</asrwt>
<pdfrwt beam="1">  1        2 0.14036446E-01 0.87628888E+02</pdfrwt>
<pdfrwt beam="2">  1       -2 0.32370600E-02 0.87628888E+02</pdfrwt>
<totfact> 0.13311804E+05</totfact>
</mgrwt>
</event>
<event>
 7    1  0.3337990E-009  0.9416867E+02  0.7818608E-02  0.1293059E+00
         -2   -1    0    0    0  501 -0.00000000000E+00  0.00000000000E+00  0.13526850428E+02  0.13526850669E+02  0.25500000000E-02 0.  1.
          2   -1    0    0  501    0  0.00000000000E+00 -0.00000000000E+00 -0.16389142414E+03  0.16389142416E+03  0.25500000000E-02 0. -1.
         23    2    1    2    0    0  0.71054273576E-14  0.00000000000E+00 -0.15036457371E+03  0.17741827482E+03  0.94168674279E+02 0.  0.
    9000005    2    3    3    0    0  0.45291356809E+02 -0.89699799234E+01 -0.71309190856E+02  0.85867627097E+02  0.12509242238E+02 0.  0.
         22    1    3    3    0    0 -0.45291356809E+02  0.89699799234E+01 -0.79055382852E+02  0.91550647727E+02  0.00000000000E+00 0.  1.
         22    1    4    4    0    0  0.21297029843E+02 -0.68412541073E+00 -0.41983729032E+02  0.47081472058E+02  0.00000000000E+00 0.  1.
         22    1    4    4    0    0  0.23994326966E+02 -0.82858545127E+01 -0.29325461824E+02  0.38786155039E+02  0.00000000000E+00 0.  1.
<mgrwt>
<rscale>  0 0.94168674E+02</rscale>
<asrwt>0</asrwt>
<pdfrwt beam="2">  1        2 0.25214064E-01 0.94168674E+02</pdfrwt>
<pdfrwt beam="1">  1       -2 0.20810540E-02 0.94168674E+02</pdfrwt>
<totfact> 0.13203543E+05</totfact>
</mgrwt>
</event>
<event>
 7    1  0.3337990E-009  0.9222830E+02  0.7818608E-02  0.1297544E+00
          2   -1    0    0  501    0  0.00000000000E+00  0.00000000000E+00  0.81256535003E+02  0.81256535043E+02  0.25500000000E-02 0. -1.
         -2   -1    0    0    0  501 -0.00000000000E+00 -0.00000000000E+00 -0.26170383589E+02  0.26170383714E+02  0.25500000000E-02 0.  1.
         23    2    1    2    0    0  0.00000000000E+00  0.00000000000E+00  0.55086151413E+02  0.10742691876E+03  0.92228297154E+02 0.  0.
    9000005    2    3    3    0    0  0.16478421803E+02 -0.16495587278E+02  0.73521525692E+02  0.77703093135E+02  0.94187662579E+01 0.  0.
         22    1    3    3    0    0 -0.16478421803E+02  0.16495587278E+02 -0.18435374279E+02  0.29723825621E+02  0.00000000000E+00 0.  1.
         22    1    4    4    0    0  0.84060944886E+00 -0.62772263403E+01  0.22283825480E+02  0.23166334902E+02  0.00000000000E+00 0. -1.
         22    1    4    4    0    0  0.15637812355E+02 -0.10218360937E+02  0.51237700212E+02  0.54536758232E+02  0.00000000000E+00 0. -1.
<mgrwt>
<rscale>  0 0.92228297E+02</rscale>
<asrwt>0</asrwt>
<pdfrwt beam="1">  1        2 0.12501006E-01 0.92228297E+02</pdfrwt>
<pdfrwt beam="2">  1       -2 0.40262128E-02 0.92228297E+02</pdfrwt>
<totfact> 0.11174732E+05</totfact>
</mgrwt>
</event>
<event>
 7    1  0.3337990E-009  0.9119861E+02  0.7818608E-02  0.1299975E+00
          2   -1    0    0  501    0  0.00000000000E+00  0.00000000000E+00  0.29973056845E+03  0.29973056846E+03  0.25500000000E-02 0. -1.
         -2   -1    0    0    0  501 -0.00000000000E+00 -0.00000000000E+00 -0.69372193704E+01  0.69372198391E+01  0.25500000000E-02 0.  1.
         23    2    1    2    0    0  0.00000000000E+00  0.00000000000E+00  0.29279334908E+03  0.30666778830E+03  0.91198613562E+02 0.  0.
    9000005    2    3    3    0    0  0.62682226969E+01 -0.43159405438E+02  0.11449074654E+03  0.12310896131E+03  0.12068985788E+02 0.  0.
         22    1    3    3    0    0 -0.62682226969E+01  0.43159405438E+02  0.17830260255E+03  0.18355882700E+03  0.00000000000E+00 0. -1.
         22    1    4    4    0    0 -0.31469972224E+01 -0.10048104652E+02  0.21226694384E+02  0.23694736823E+02  0.00000000000E+00 0.  1.
         22    1    4    4    0    0  0.94152199193E+01 -0.33111300787E+02  0.93264052153E+02  0.99414224485E+02  0.00000000000E+00 0.  1.
<mgrwt>
<rscale>  0 0.91198614E+02</rscale>
<asrwt>0</asrwt>
<pdfrwt beam="1">  1        2 0.46112408E-01 0.91198614E+02</pdfrwt>
<pdfrwt beam="2">  1       -2 0.10672643E-02 0.91198614E+02</pdfrwt>
<totfact> 0.17948561E+05</totfact>
</mgrwt>
</event>
<event>
 7    1  0.3337990E-009  0.9121185E+02  0.7818608E-02  0.1299943E+00
          2   -1    0    0  501    0  0.00000000000E+00  0.00000000000E+00  0.31167175713E+03  0.31167175714E+03  0.25500000000E-02 0. -1.
         -2   -1    0    0    0  501 -0.00000000000E+00 -0.00000000000E+00 -0.66733678230E+01  0.66733683101E+01  0.25500000000E-02 0.  1.
         23    2    1    2    0    0  0.00000000000E+00  0.00000000000E+00  0.30499838931E+03  0.31834512545E+03  0.91211849111E+02 0.  0.
    9000005    2    3    3    0    0  0.13473081345E+02  0.43139264955E+02  0.14368019544E+03  0.15081578541E+03  0.76734910843E+01 0.  0.
         22    1    3    3    0    0 -0.13473081345E+02 -0.43139264955E+02  0.16131819387E+03  0.16752934004E+03  0.00000000000E+00 0. -1.
         22    1    4    4    0    0  0.22152701161E+01  0.11560202552E+02  0.48353923142E+02  0.49765927983E+02  0.00000000000E+00 0. -1.
         22    1    4    4    0    0  0.11257811229E+02  0.31579062404E+02  0.95326272295E+02  0.10104985743E+03  0.00000000000E+00 0. -1.
<mgrwt>
<rscale>  0 0.91211849E+02</rscale>
<asrwt>0</asrwt>
<pdfrwt beam="1">  1        2 0.47949494E-01 0.91211849E+02</pdfrwt>
<pdfrwt beam="2">  1       -2 0.10266722E-02 0.91211849E+02</pdfrwt>
<totfact> 0.18204211E+05</totfact>
</mgrwt>
</event>
<event>
 7    1  0.3337990E-009  0.9224310E+02  0.7818608E-02  0.1297509E+00
         -2   -1    0    0    0  501 -0.00000000000E+00  0.00000000000E+00  0.96531749465E+01  0.96531752833E+01  0.25500000000E-02 0.  1.
          2   -1    0    0  501    0  0.00000000000E+00 -0.00000000000E+00 -0.22036245941E+03  0.22036245943E+03  0.25500000000E-02 0. -1.
         23    2    1    2    0    0  0.00000000000E+00  0.00000000000E+00 -0.21070928446E+03  0.23001563471E+03  0.92243100832E+02 0.  0.
    9000005    2    3    3    0    0  0.88331899840E+01  0.45181823021E+02 -0.99127831658E+02  0.10931003009E+03  0.17126854805E+01 0.  0.
         22    1    3    3    0    0 -0.88331899840E+01 -0.45181823021E+02 -0.11158145281E+03  0.12070560462E+03  0.00000000000E+00 0.  1.
         22    1    4    4    0    0  0.70850254718E+01  0.39268561006E+02 -0.85961433221E+02  0.94771227020E+02  0.00000000000E+00 0.  1.
         22    1    4    4    0    0  0.17481645122E+01  0.59132620154E+01 -0.13166398437E+02  0.14538803068E+02  0.00000000000E+00 0.  1.
<mgrwt>
<rscale>  0 0.92243101E+02</rscale>
<asrwt>0</asrwt>
<pdfrwt beam="2">  1        2 0.33901913E-01 0.92243101E+02</pdfrwt>
<pdfrwt beam="1">  1       -2 0.14851040E-02 0.92243101E+02</pdfrwt>
<totfact> 0.15530315E+05</totfact>
</mgrwt>
</event>
<event>
 7    1  0.3337990E-009  0.8953216E+02  0.7818608E-02  0.1303989E+00
          2   -1    0    0  501    0  0.00000000000E+00  0.00000000000E+00  0.27366681934E+03  0.27366681935E+03  0.25500000000E-02 0. -1.
         -2   -1    0    0    0  501 -0.00000000000E+00 -0.00000000000E+00 -0.73227795675E+01  0.73227800115E+01  0.25500000000E-02 0.  1.
         23    2    1    2    0    0  0.00000000000E+00  0.22204460493E-15  0.26634403977E+03  0.28098959936E+03  0.89532158624E+02 0.  0.
    9000005    2    3    3    0    0 -0.25280507406E+02  0.12521581982E+01  0.24838328346E+03  0.24995315752E+03  0.11901827492E+02 0.  0.
         22    1    3    3    0    0  0.25280507406E+02 -0.12521581982E+01  0.17960756310E+02  0.31036441840E+02  0.00000000000E+00 0.  1.
         22    1    4    4    0    0 -0.17625806676E+01 -0.29639976812E+01  0.53438233471E+02  0.53549386265E+02  0.00000000000E+00 0. -1.
         22    1    4    4    0    0 -0.23517926738E+02  0.42161558794E+01  0.19494504999E+03  0.19640377126E+03  0.00000000000E+00 0. -1.
<mgrwt>
<rscale>  0 0.89532159E+02</rscale>
<asrwt>0</asrwt>
<pdfrwt beam="1">  1        2 0.42102586E-01 0.89532159E+02</pdfrwt>
<pdfrwt beam="2">  1       -2 0.11265815E-02 0.89532159E+02</pdfrwt>
<totfact> 0.18225035E+05</totfact>
</mgrwt>
</event>
<event>
 7    1  0.3337990E-009  0.1247325E+03  0.7818608E-02  0.1235488E+00
          2   -1    0    0  501    0  0.00000000000E+00  0.00000000000E+00  0.15371279333E+03  0.15371279335E+03  0.25500000000E-02 0. -1.
         -2   -1    0    0    0  501 -0.00000000000E+00 -0.00000000000E+00 -0.25303985375E+02  0.25303985504E+02  0.25500000000E-02 0.  1.
         23    2    1    2    0    0  0.71054273576E-14  0.00000000000E+00  0.12840880795E+03  0.17901677885E+03  0.12473245428E+03 0.  0.
    9000005    2    3    3    0    0 -0.51374798070E+02 -0.32743096199E+02  0.80305859945E+02  0.10139349734E+03  0.10960380311E+02 0.  0.
         22    1    3    3    0    0  0.51374798070E+02  0.32743096199E+02  0.48102948010E+02  0.77623281512E+02  0.00000000000E+00 0.  1.
         22    1    4    4    0    0 -0.29635297888E+02 -0.24122850234E+02  0.44869272607E+02  0.58935680268E+02  0.00000000000E+00 0. -1.
         22    1    4    4    0    0 -0.21739500181E+02 -0.86202459646E+01  0.35436587338E+02  0.42457817075E+02  0.00000000000E+00 0. -1.
<mgrwt>
<rscale>  0 0.12473245E+03</rscale>
<asrwt>0</asrwt>
<pdfrwt beam="1">  1        2 0.23648122E-01 0.12473245E+03</pdfrwt>
<pdfrwt beam="2">  1       -2 0.38929209E-02 0.12473245E+03</pdfrwt>
<totfact> 0.59142620E+04</totfact>
</mgrwt>
</event>
<event>
 7    1  0.3337990E-009  0.8988855E+02  0.7818608E-02  0.1303122E+00
          2   -1    0    0  501    0  0.00000000000E+00  0.00000000000E+00  0.10315652795E+02  0.10315653110E+02  0.25500000000E-02 0. -1.
         -2   -1    0    0    0  501 -0.00000000000E+00 -0.00000000000E+00 -0.19581775577E+03  0.19581775579E+03  0.25500000000E-02 0.  1.
         23    2    1    2    0    0  0.35527136788E-14 -0.35527136788E-14 -0.18550210298E+03  0.20613340890E+03  0.89888553527E+02 0.  0.
    9000005    2    3    3    0    0  0.16198565184E+02  0.28768627300E+02 -0.16187859484E+03  0.16553664096E+03  0.10376540886E+02 0.  0.
         22    1    3    3    0    0 -0.16198565184E+02 -0.28768627300E+02 -0.23623508138E+02  0.40596767944E+02  0.00000000000E+00 0. -1.
         22    1    4    4    0    0 -0.45219469791E-01  0.58177088689E+01 -0.42213011979E+02  0.42612042449E+02  0.00000000000E+00 0.  1.
         22    1    4    4    0    0  0.16243784654E+02  0.22950918431E+02 -0.11966558286E+03  0.12292459851E+03  0.00000000000E+00 0.  1.
<mgrwt>
<rscale>  0 0.89888554E+02</rscale>
<asrwt>0</asrwt>
<pdfrwt beam="1">  1        2 0.15870237E-02 0.89888554E+02</pdfrwt>
<pdfrwt beam="2">  1       -2 0.30125806E-01 0.89888554E+02</pdfrwt>
<totfact> 0.65212184E+04</totfact>
</mgrwt>
</event>
<event>
 7    1  0.3337990E-009  0.9064673E+02  0.7818608E-02  0.1301293E+00
          2   -1    0    0  501    0  0.00000000000E+00  0.00000000000E+00  0.82969401766E+02  0.82969401805E+02  0.25500000000E-02 0. -1.
         -2   -1    0    0    0  501 -0.00000000000E+00 -0.00000000000E+00 -0.24758611476E+02  0.24758611608E+02  0.25500000000E-02 0.  1.
         23    2    1    2    0    0  0.00000000000E+00 -0.71054273576E-14  0.58210790289E+02  0.10772801341E+03  0.90646725080E+02 0.  0.
    9000005    2    3    3    0    0  0.45027443125E+01  0.44419468450E+02  0.20188323184E+02  0.49084412836E+02  0.28891705966E+01 0.  0.
         22    1    3    3    0    0 -0.45027443125E+01 -0.44419468450E+02  0.38022467105E+02  0.58643600576E+02  0.00000000000E+00 0. -1.
         22    1    4    4    0    0  0.20236793870E+01  0.12821657657E+02  0.70810472973E+01  0.14786189981E+02  0.00000000000E+00 0. -1.
         22    1    4    4    0    0  0.24790649255E+01  0.31597810793E+02  0.13107275887E+02  0.34298222855E+02  0.00000000000E+00 0. -1.
<mgrwt>
<rscale>  0 0.90646725E+02</rscale>
<asrwt>0</asrwt>
<pdfrwt beam="1">  1        2 0.12764523E-01 0.90646725E+02</pdfrwt>
<pdfrwt beam="2">  1       -2 0.38090172E-02 0.90646725E+02</pdfrwt>
<totfact> 0.11795654E+05</totfact>
</mgrwt>
</event>
<event>
 7    1  0.3337990E-009  0.9061239E+02  0.7818608E-02  0.1301375E+00
         -2   -1    0    0    0  501 -0.00000000000E+00  0.00000000000E+00  0.15147119951E+01  0.15147141415E+01  0.25500000000E-02 0.  1.
          2   -1    0    0  501    0  0.00000000000E+00 -0.00000000000E+00 -0.13551418582E+04  0.13551418582E+04  0.25500000000E-02 0. -1.
         23    2    1    2    0    0  0.00000000000E+00  0.00000000000E+00 -0.13536271462E+04  0.13566565724E+04  0.90612385143E+02 0.  0.
    9000005    2    3    3    0    0 -0.11030694156E+02  0.58643777579E+01 -0.13287904066E+04  0.13288549397E+04  0.39292660619E+01 0.  0.
         22    1    3    3    0    0  0.11030694156E+02 -0.58643777579E+01 -0.24836739662E+02  0.27801632634E+02  0.00000000000E+00 0.  1.
         22    1    4    4    0    0 -0.10132958166E+02  0.58253521987E+01 -0.10864808974E+04  0.10865437644E+04  0.00000000000E+00 0. -1.
         22    1    4    4    0    0 -0.89773599002E+00  0.39025559254E-01 -0.24230950921E+03  0.24231117536E+03  0.00000000000E+00 0. -1.
<mgrwt>
<rscale>  0 0.90612385E+02</rscale>
<asrwt>0</asrwt>
<pdfrwt beam="2">  1        2 0.20848239E+00 0.90612385E+02</pdfrwt>
<pdfrwt beam="1">  1       -2 0.23303386E-03 0.90612385E+02</pdfrwt>
<totfact> 0.24749032E+05</totfact>
</mgrwt>
</event>
<event>
 7    1  0.3337990E-009  0.9110947E+02  0.7818608E-02  0.1300187E+00
         -2   -1    0    0    0  501 -0.00000000000E+00  0.00000000000E+00  0.24100422121E+02  0.24100422256E+02  0.25500000000E-02 0.  1.
          2   -1    0    0  501    0  0.00000000000E+00 -0.00000000000E+00 -0.86107785714E+02  0.86107785752E+02  0.25500000000E-02 0. -1.
         23    2    1    2    0    0  0.00000000000E+00  0.00000000000E+00 -0.62007363593E+02  0.11020820801E+03  0.91109472463E+02 0.  0.
    9000005    2    3    3    0    0 -0.20119896622E+02 -0.37286293420E+02 -0.50864852044E+02  0.66399150945E+02  0.51513256233E+01 0.  0.
         22    1    3    3    0    0  0.20119896622E+02  0.37286293420E+02 -0.11142511549E+02  0.43809057062E+02  0.00000000000E+00 0. -1.
         22    1    4    4    0    0 -0.12320518476E+02 -0.20901511058E+02 -0.32753841589E+02  0.40761286521E+02  0.00000000000E+00 0. -1.
         22    1    4    4    0    0 -0.77993781459E+01 -0.16384782362E+02 -0.18111010455E+02  0.25637864424E+02  0.00000000000E+00 0. -1.
<mgrwt>
<rscale>  0 0.91109472E+02</rscale>
<asrwt>0</asrwt>
<pdfrwt beam="2">  1        2 0.13247351E-01 0.91109472E+02</pdfrwt>
<pdfrwt beam="1">  1       -2 0.37077573E-02 0.91109472E+02</pdfrwt>
<totfact> 0.11756461E+05</totfact>
</mgrwt>
</event>
<event>
 7    1  0.3337990E-009  0.9271717E+02  0.7818608E-02  0.1296402E+00
         -2   -1    0    0    0  501 -0.00000000000E+00  0.00000000000E+00  0.37327647780E+03  0.37327647781E+03  0.25500000000E-02 0.  1.
          2   -1    0    0  501    0  0.00000000000E+00 -0.00000000000E+00 -0.57574435113E+01  0.57574440760E+01  0.25500000000E-02 0. -1.
         23    2    1    2    0    0  0.88817841970E-15 -0.71054273576E-14  0.36751903429E+03  0.37903392189E+03  0.92717168717E+02 0.  0.
    9000005    2    3    3    0    0 -0.75806666694E+01  0.40762835644E+02  0.26216826669E+03  0.26581793578E+03  0.14418725471E+02 0.  0.
         22    1    3    3    0    0  0.75806666694E+01 -0.40762835644E+02  0.10535076760E+03  0.11321598611E+03  0.00000000000E+00 0. -1.
         22    1    4    4    0    0 -0.29477381090E+01  0.80011876904E+01  0.26494808645E+02  0.27833128634E+02  0.00000000000E+00 0. -1.
         22    1    4    4    0    0 -0.46329285604E+01  0.32761647953E+02  0.23567345805E+03  0.23798480715E+03  0.00000000000E+00 0. -1.
<mgrwt>
<rscale>  0 0.92717169E+02</rscale>
<asrwt>0</asrwt>
<pdfrwt beam="2">  1        2 0.88576032E-03 0.92717169E+02</pdfrwt>
<pdfrwt beam="1">  1       -2 0.57427168E-01 0.92717169E+02</pdfrwt>
<totfact> 0.42796560E+04</totfact>
</mgrwt>
</event>
<event>
 7    1  0.3337990E-009  0.9032860E+02  0.7818608E-02  0.1302058E+00
          2   -1    0    0  501    0  0.00000000000E+00  0.00000000000E+00  0.10594381906E+03  0.10594381909E+03  0.25500000000E-02 0. -1.
         -2   -1    0    0    0  501 -0.00000000000E+00 -0.00000000000E+00 -0.19253734101E+02  0.19253734270E+02  0.25500000000E-02 0.  1.
         23    2    1    2    0    0  0.00000000000E+00  0.35527136788E-14  0.86690084958E+02  0.12519755336E+03  0.90328603097E+02 0.  0.
    9000005    2    3    3    0    0  0.25237287827E+01  0.28487768911E+02  0.90618474505E+02  0.96329674517E+02  0.15804305948E+02 0.  0.
         22    1    3    3    0    0 -0.25237287827E+01 -0.28487768911E+02 -0.39283895463E+01  0.28867878844E+02  0.00000000000E+00 0.  1.
         22    1    4    4    0    0  0.60902389358E+01  0.24839606287E+02  0.84888617700E+02  0.88657624973E+02  0.00000000000E+00 0. -1.
         22    1    4    4    0    0 -0.35665101531E+01  0.36481626245E+01  0.57298568041E+01  0.76720495438E+01  0.00000000000E+00 0. -1.
<mgrwt>
<rscale>  0 0.90328603E+02</rscale>
<asrwt>0</asrwt>
<pdfrwt beam="1">  1        2 0.16299049E-01 0.90328603E+02</pdfrwt>
<pdfrwt beam="2">  1       -2 0.29621130E-02 0.90328603E+02</pdfrwt>
<totfact> 0.12811312E+05</totfact>
</mgrwt>
</event>
<event>
 7    1  0.3337990E-009  0.9288662E+02  0.7818608E-02  0.1296008E+00
          2   -1    0    0  501    0  0.00000000000E+00  0.00000000000E+00  0.86675534438E+01  0.86675538189E+01  0.25500000000E-02 0.  1.
         -2   -1    0    0    0  501 -0.00000000000E+00 -0.00000000000E+00 -0.24885694896E+03  0.24885694897E+03  0.25500000000E-02 0. -1.
         23    2    1    2    0    0  0.17763568394E-14  0.00000000000E+00 -0.24018939551E+03  0.25752450279E+03  0.92886618087E+02 0.  0.
    9000005    2    3    3    0    0  0.10980231301E+02  0.17510076552E+02 -0.23528037928E+03  0.23628146392E+03  0.67011233576E+01 0.  0.
         22    1    3    3    0    0 -0.10980231301E+02 -0.17510076552E+02 -0.49090162317E+01  0.21243038875E+02  0.00000000000E+00 0.  1.
         22    1    4    4    0    0  0.70856306659E+01  0.11842714061E+02 -0.11892519946E+03  0.11972326050E+03  0.00000000000E+00 0.  1.
         22    1    4    4    0    0  0.38946006351E+01  0.56673624909E+01 -0.11635517982E+03  0.11655820342E+03  0.00000000000E+00 0.  1.
<mgrwt>
<rscale>  0 0.92886618E+02</rscale>
<asrwt>0</asrwt>
<pdfrwt beam="1">  1        2 0.13334700E-02 0.92886618E+02</pdfrwt>
<pdfrwt beam="2">  1       -2 0.38285679E-01 0.92886618E+02</pdfrwt>
<totfact> 0.53680977E+04</totfact>
</mgrwt>
</event>
<event>
 7    1  0.3337990E-009  0.9376497E+02  0.7818608E-02  0.1293982E+00
          2   -1    0    0  501    0  0.00000000000E+00  0.00000000000E+00  0.19292049802E+02  0.19292049970E+02  0.25500000000E-02 0.  1.
         -2   -1    0    0    0  501 -0.00000000000E+00 -0.00000000000E+00 -0.11393126215E+03  0.11393126218E+03  0.25500000000E-02 0. -1.
         23    2    1    2    0    0  0.00000000000E+00  0.00000000000E+00 -0.94639212350E+02  0.13322331215E+03  0.93764974197E+02 0.  0.
    9000005    2    3    3    0    0  0.18287775401E+02  0.14528231513E+02  0.87151905245E+01  0.27262730642E+02  0.11035836904E+02 0.  0.
         22    1    3    3    0    0 -0.18287775401E+02 -0.14528231513E+02 -0.10335440287E+03  0.10596058151E+03  0.00000000000E+00 0. -1.
         22    1    4    4    0    0 -0.84003771976E+00 -0.91902933894E+00  0.46283475082E+00  0.13283426904E+01  0.00000000000E+00 0. -1.
         22    1    4    4    0    0  0.19127813121E+02  0.15447260852E+02  0.82523557737E+01  0.25934387952E+02  0.00000000000E+00 0. -1.
<mgrwt>
<rscale>  0 0.93764974E+02</rscale>
<asrwt>0</asrwt>
<pdfrwt beam="1">  1        2 0.29680078E-02 0.93764974E+02</pdfrwt>
<pdfrwt beam="2">  1       -2 0.17527886E-01 0.93764974E+02</pdfrwt>
<totfact> 0.71483516E+04</totfact>
</mgrwt>
</event>
<event>
 7    1  0.3337990E-009  0.9058500E+02  0.7818608E-02  0.1301441E+00
          2   -1    0    0  501    0  0.00000000000E+00  0.00000000000E+00  0.60570213456E+01  0.60570218824E+01  0.25500000000E-02 0. -1.
         -2   -1    0    0    0  501 -0.00000000000E+00 -0.00000000000E+00 -0.33868304596E+03  0.33868304597E+03  0.25500000000E-02 0.  1.
         23    2    1    2    0    0  0.00000000000E+00  0.00000000000E+00 -0.33262602462E+03  0.34474006785E+03  0.90584999486E+02 0.  0.
    9000005    2    3    3    0    0 -0.59449223422E+01 -0.23590147699E+02 -0.31084039201E+03  0.31208350713E+03  0.13510327449E+02 0.  0.
         22    1    3    3    0    0  0.59449223422E+01  0.23590147699E+02 -0.21785632602E+02  0.32656560719E+02  0.00000000000E+00 0. -1.
         22    1    4    4    0    0 -0.55165134596E+00  0.17921951326E+01 -0.19782662127E+02  0.19871336227E+02  0.00000000000E+00 0. -1.
         22    1    4    4    0    0 -0.53932709963E+01 -0.25382342832E+02 -0.29105772989E+03  0.29221217091E+03  0.00000000000E+00 0. -1.
<mgrwt>
<rscale>  0 0.90584999E+02</rscale>
<asrwt>0</asrwt>
<pdfrwt beam="1">  1        2 0.93184975E-03 0.90584999E+02</pdfrwt>
<pdfrwt beam="2">  1       -2 0.52105069E-01 0.90584999E+02</pdfrwt>
<totfact> 0.48311474E+04</totfact>
</mgrwt>
</event>
<event>
 7    1  0.3337990E-009  0.8755290E+02  0.7818608E-02  0.1308888E+00
          2   -1    0    0  501    0  0.00000000000E+00  0.00000000000E+00  0.23339686469E+03  0.23339686471E+03  0.25500000000E-02 0. -1.
         -2   -1    0    0    0  501 -0.00000000000E+00 -0.00000000000E+00 -0.82108117469E+01  0.82108121429E+01  0.25500000000E-02 0.  1.
         23    2    1    2    0    0  0.00000000000E+00  0.00000000000E+00  0.22518605295E+03  0.24160767685E+03  0.87552904414E+02 0.  0.
    9000005    2    3    3    0    0  0.11477418812E+02  0.36488468524E+02  0.16821849148E+03  0.17298958494E+03  0.12837295056E+02 0.  0.
         22    1    3    3    0    0 -0.11477418812E+02 -0.36488468524E+02  0.56967561466E+02  0.68618091909E+02  0.00000000000E+00 0.  1.
         22    1    4    4    0    0  0.10439081300E+01  0.12655358124E+02  0.34478958717E+02  0.36742977936E+02  0.00000000000E+00 0.  1.
         22    1    4    4    0    0  0.10433510682E+02  0.23833110400E+02  0.13373953277E+03  0.13624660701E+03  0.00000000000E+00 0.  1.
<mgrwt>
<rscale>  0 0.87552904E+02</rscale>
<asrwt>0</asrwt>
<pdfrwt beam="1">  1        2 0.35907216E-01 0.87552904E+02</pdfrwt>
<pdfrwt beam="2">  1       -2 0.12632016E-02 0.87552904E+02</pdfrwt>
<totfact> 0.18240343E+05</totfact>
</mgrwt>
</event>
<event>
 7    1  0.3337990E-009  0.9098919E+02  0.7818608E-02  0.1300474E+00
          2   -1    0    0  501    0  0.00000000000E+00  0.00000000000E+00  0.25509311508E+02  0.25509311635E+02  0.25500000000E-02 0. -1.
         -2   -1    0    0    0  501 -0.00000000000E+00 -0.00000000000E+00 -0.81137365971E+02  0.81137366011E+02  0.25500000000E-02 0.  1.
         23    2    1    2    0    0  0.00000000000E+00  0.00000000000E+00 -0.55628054464E+02  0.10664667765E+03  0.90989193917E+02 0.  0.
    9000005    2    3    3    0    0 -0.18619554247E+01  0.39942800168E+02 -0.33604146429E+01  0.40837861096E+02  0.75857991703E+01 0.  0.
         22    1    3    3    0    0  0.18619554247E+01 -0.39942800168E+02 -0.52267639821E+02  0.65808816550E+02  0.00000000000E+00 0.  1.
         22    1    4    4    0    0 -0.16170812035E+01  0.30085565548E+02  0.79081240256E+00  0.30139369439E+02  0.00000000000E+00 0. -1.
         22    1    4    4    0    0 -0.24487422114E+00  0.98572346209E+01 -0.41512270455E+01  0.10698491657E+02  0.00000000000E+00 0. -1.
<mgrwt>
<rscale>  0 0.90989194E+02</rscale>
<asrwt>0</asrwt>
<pdfrwt beam="1">  1        2 0.39245095E-02 0.90989194E+02</pdfrwt>
<pdfrwt beam="2">  1       -2 0.12482672E-01 0.90989194E+02</pdfrwt>
<totfact> 0.85177690E+04</totfact>
</mgrwt>
</event>
<event>
 7    1  0.3896102E-009  0.9195388E+02  0.7818608E-02  0.1298188E+00
         -2   -1    0    0    0  501 -0.00000000000E+00  0.00000000000E+00  0.13245234245E+02  0.13245234491E+02  0.25500000000E-02 0.  1.
          2   -1    0    0  501    0  0.00000000000E+00 -0.00000000000E+00 -0.15959542322E+03  0.15959542324E+03  0.25500000000E-02 0. -1.
         23    2    1    2    0    0 -0.71054273576E-14  0.00000000000E+00 -0.14635018898E+03  0.17284065773E+03  0.91953875134E+02 0.  0.
    9000005    2    3    3    0    0 -0.41947169715E+02  0.25141561803E+01 -0.46696765870E+02  0.64689417494E+02  0.15435244235E+02 0.  0.
         22    1    3    3    0    0  0.41947169715E+02 -0.25141561803E+01 -0.99653423106E+02  0.10815124024E+03  0.00000000000E+00 0. -1.
         22    1    4    4    0    0 -0.36813483657E+02 -0.33315578795E+01 -0.37763198552E+02  0.52843079223E+02  0.00000000000E+00 0. -1.
         22    1    4    4    0    0 -0.51336860579E+01  0.58457140598E+01 -0.89335673180E+01  0.11846338271E+02  0.00000000000E+00 0. -1.
<mgrwt>
<rscale>  0 0.91953875E+02</rscale>
<asrwt>0</asrwt>
<pdfrwt beam="2">  1        2 0.24553141E-01 0.91953875E+02</pdfrwt>
<pdfrwt beam="1">  1       -2 0.20377285E-02 0.91953875E+02</pdfrwt>
<totfact> 0.13956138E+05</totfact>
</mgrwt>
</event>
<event>
 7    1  0.3337990E-009  0.9222594E+02  0.7818608E-02  0.1297549E+00
          2   -1    0    0  501    0  0.00000000000E+00  0.00000000000E+00  0.48020394533E+02  0.48020394601E+02  0.25500000000E-02 0.  1.
         -2   -1    0    0    0  501 -0.00000000000E+00 -0.00000000000E+00 -0.44281307823E+02  0.44281307896E+02  0.25500000000E-02 0. -1.
         23    2    1    2    0    0  0.00000000000E+00  0.00000000000E+00  0.37390867104E+01  0.92301702497E+02  0.92225937319E+02 0.  0.
    9000005    2    3    3    0    0 -0.36259889457E+02  0.25124585491E+02 -0.81421975664E+01  0.46615935615E+02  0.12677763706E+02 0.  0.
         22    1    3    3    0    0  0.36259889457E+02 -0.25124585491E+02  0.11881284277E+02  0.45685766882E+02  0.00000000000E+00 0.  1.
         22    1    4    4    0    0 -0.14519108771E+02  0.15228428030E+02 -0.85849907487E+01  0.22724691547E+02  0.00000000000E+00 0.  1.
         22    1    4    4    0    0 -0.21740780686E+02  0.98961574610E+01  0.44279318235E+00  0.23891244068E+02  0.00000000000E+00 0.  1.
<mgrwt>
<rscale>  0 0.92225937E+02</rscale>
<asrwt>0</asrwt>
<pdfrwt beam="1">  1        2 0.73877530E-02 0.92225937E+02</pdfrwt>
<pdfrwt beam="2">  1       -2 0.68125089E-02 0.92225937E+02</pdfrwt>
<totfact> 0.96791085E+04</totfact>
</mgrwt>
</event>
<event>
 7    1  0.3519735E-009  0.1000982E+03  0.7818608E-02  0.1280089E+00
          2   -1    0    0  501    0  0.00000000000E+00  0.00000000000E+00  0.37015676910E+03  0.37015676911E+03  0.25500000000E-02 0. -1.
         -2   -1    0    0    0  501 -0.00000000000E+00 -0.00000000000E+00 -0.67671727133E+01  0.67671731938E+01  0.25500000000E-02 0.  1.
         23    2    1    2    0    0 -0.17763568394E-14 -0.17763568394E-14  0.36338959639E+03  0.37692394231E+03  0.10009824933E+03 0.  0.
    9000005    2    3    3    0    0 -0.13533029507E+02 -0.14716040094E+02  0.35407712380E+03  0.35486885515E+03  0.12711806924E+02 0.  0.
         22    1    3    3    0    0  0.13533029507E+02  0.14716040094E+02  0.93124725948E+01  0.22055087158E+02  0.00000000000E+00 0.  1.
         22    1    4    4    0    0 -0.84311766245E+01 -0.16287486427E+02  0.26923704144E+03  0.26986098539E+03  0.00000000000E+00 0. -1.
         22    1    4    4    0    0 -0.51018528829E+01  0.15714463326E+01  0.84840082357E+02  0.85007869758E+02  0.00000000000E+00 0. -1.
<mgrwt>
<rscale>  0 0.10009825E+03</rscale>
<asrwt>0</asrwt>
<pdfrwt beam="1">  1        2 0.56947226E-01 0.10009825E+03</pdfrwt>
<pdfrwt beam="2">  1       -2 0.10411030E-02 0.10009825E+03</pdfrwt>
<totfact> 0.15125456E+05</totfact>
</mgrwt>
</event>
<event>
 7    1  0.3337990E-009  0.9000990E+02  0.7818608E-02  0.1302828E+00
         -2   -1    0    0    0  501 -0.00000000000E+00  0.00000000000E+00  0.30265448103E+02  0.30265448210E+02  0.25500000000E-02 0.  1.
          2   -1    0    0  501    0  0.00000000000E+00 -0.00000000000E+00 -0.66922705332E+02  0.66922705381E+02  0.25500000000E-02 0. -1.
         23    2    1    2    0    0  0.35527136788E-14  0.00000000000E+00 -0.36657257229E+02  0.97188153592E+02  0.90009903294E+02 0.  0.
    9000005    2    3    3    0    0  0.31934951143E+02 -0.10810816047E+02 -0.50328754823E+02  0.60806500323E+02  0.52661248886E+01 0.  0.
         22    1    3    3    0    0 -0.31934951143E+02  0.10810816047E+02  0.13671497593E+02  0.36381653269E+02  0.00000000000E+00 0.  1.
         22    1    4    4    0    0  0.23350024399E+02 -0.70287087269E+01 -0.32168145696E+02  0.40366025112E+02  0.00000000000E+00 0.  1.
         22    1    4    4    0    0  0.85849267439E+01 -0.37821073205E+01 -0.18160609127E+02  0.20440475211E+02  0.00000000000E+00 0.  1.
<mgrwt>
<rscale>  0 0.90009903E+02</rscale>
<asrwt>0</asrwt>
<pdfrwt beam="2">  1        2 0.10295801E-01 0.90009903E+02</pdfrwt>
<pdfrwt beam="1">  1       -2 0.46562228E-02 0.90009903E+02</pdfrwt>
<totfact> 0.11326822E+05</totfact>
</mgrwt>
</event>
<event>
 7    1  0.3337990E-009  0.9149874E+02  0.7818608E-02  0.1299262E+00
          2   -1    0    0  501    0  0.00000000000E+00  0.00000000000E+00  0.49670429166E+03  0.49670429167E+03  0.25500000000E-02 0. -1.
         -2   -1    0    0    0  501 -0.00000000000E+00 -0.00000000000E+00 -0.42137842009E+01  0.42137849725E+01  0.25500000000E-02 0.  1.
         23    2    1    2    0    0  0.00000000000E+00  0.00000000000E+00  0.49249050746E+03  0.50091807664E+03  0.91498740792E+02 0.  0.
    9000005    2    3    3    0    0  0.96899427074E+01 -0.28146094125E+02  0.43627859615E+03  0.43731087125E+03  0.39606884024E+01 0.  0.
         22    1    3    3    0    0 -0.96899427074E+01  0.28146094125E+02  0.56211911314E+02  0.63607205392E+02  0.00000000000E+00 0.  1.
         22    1    4    4    0    0  0.67192012317E+01 -0.13506834780E+02  0.21475268040E+03  0.21528189889E+03  0.00000000000E+00 0.  1.
         22    1    4    4    0    0  0.29707414758E+01 -0.14639259345E+02  0.22152591575E+03  0.22202897236E+03  0.00000000000E+00 0.  1.
<mgrwt>
<rscale>  0 0.91498741E+02</rscale>
<asrwt>0</asrwt>
<pdfrwt beam="1">  1        2 0.76415983E-01 0.91498741E+02</pdfrwt>
<pdfrwt beam="2">  1       -2 0.64827508E-03 0.91498741E+02</pdfrwt>
<totfact> 0.21303556E+05</totfact>
</mgrwt>
</event>
<event>
 7    1  0.3337990E-009  0.9020282E+02  0.7818608E-02  0.1302361E+00
          2   -1    0    0  501    0  0.00000000000E+00  0.00000000000E+00  0.91323047834E+03  0.91323047835E+03  0.25500000000E-02 0.  1.
         -2   -1    0    0    0  501 -0.00000000000E+00 -0.00000000000E+00 -0.22274074779E+01  0.22274089375E+01  0.25500000000E-02 0. -1.
         23    2    1    2    0    0  0.00000000000E+00  0.00000000000E+00  0.91100307086E+03  0.91545788728E+03  0.90202817389E+02 0.  0.
    9000005    2    3    3    0    0  0.24556110574E+02 -0.26439365881E+02  0.72864237249E+03  0.72956149962E+03  0.61832115346E+01 0.  0.
         22    1    3    3    0    0 -0.24556110574E+02  0.26439365881E+02  0.18236069838E+03  0.18589638766E+03  0.00000000000E+00 0. -1.
         22    1    4    4    0    0  0.93541474971E+01 -0.82630576053E+01  0.30729784343E+03  0.30755120350E+03  0.00000000000E+00 0.  1.
         22    1    4    4    0    0  0.15201963077E+02 -0.18176308276E+02  0.42134452906E+03  0.42201029612E+03  0.00000000000E+00 0.  1.
<mgrwt>
<rscale>  0 0.90202817E+02</rscale>
<asrwt>0</asrwt>
<pdfrwt beam="1">  1        2 0.14049718E+00 0.90202817E+02</pdfrwt>
<pdfrwt beam="2">  1       -2 0.34267773E-03 0.90202817E+02</pdfrwt>
<totfact> 0.25545329E+05</totfact>
</mgrwt>
</event>
<event>
 7    1  0.3337990E-009  0.9231039E+02  0.7818608E-02  0.1297351E+00
          2   -1    0    0  501    0  0.00000000000E+00  0.00000000000E+00  0.13659614897E+03  0.13659614900E+03  0.25500000000E-02 0. -1.
         -2   -1    0    0    0  501 -0.00000000000E+00 -0.00000000000E+00 -0.15595621248E+02  0.15595621456E+02  0.25500000000E-02 0.  1.
         23    2    1    2    0    0  0.00000000000E+00  0.17763568394E-14  0.12100052773E+03  0.15219177045E+03  0.92310385569E+02 0.  0.
    9000005    2    3    3    0    0 -0.43089027246E+02 -0.14958086508E+02  0.70514712210E+02  0.84153353444E+02  0.53901425593E+01 0.  0.
         22    1    3    3    0    0  0.43089027246E+02  0.14958086508E+02  0.50485815516E+02  0.68038417010E+02  0.00000000000E+00 0. -1.
         22    1    4    4    0    0 -0.33249703247E+02 -0.13587427528E+02  0.53179795241E+02  0.64173604969E+02  0.00000000000E+00 0. -1.
         22    1    4    4    0    0 -0.98393239983E+01 -0.13706589796E+01  0.17334916969E+02  0.19979748474E+02  0.00000000000E+00 0. -1.
<mgrwt>
<rscale>  0 0.92310386E+02</rscale>
<asrwt>0</asrwt>
<pdfrwt beam="1">  1        2 0.21014792E-01 0.92310386E+02</pdfrwt>
<pdfrwt beam="2">  1       -2 0.23993264E-02 0.92310386E+02</pdfrwt>
<totfact> 0.13098878E+05</totfact>
</mgrwt>
</event>
<event>
 7    1  0.3337990E-009  0.9083613E+02  0.7818608E-02  0.1300839E+00
          2   -1    0    0  501    0  0.00000000000E+00  0.00000000000E+00  0.24811094673E+02  0.24811094804E+02  0.25500000000E-02 0.  1.
         -2   -1    0    0    0  501 -0.00000000000E+00 -0.00000000000E+00 -0.83140245440E+02  0.83140245479E+02  0.25500000000E-02 0. -1.
         23    2    1    2    0    0  0.00000000000E+00  0.00000000000E+00 -0.58329150767E+02  0.10795134028E+03  0.90836127393E+02 0.  0.
    9000005    2    3    3    0    0  0.29746263706E+02  0.52891167925E+01  0.10358399303E+02  0.32912720257E+02  0.79458012600E+01 0.  0.
         22    1    3    3    0    0 -0.29746263706E+02 -0.52891167925E+01 -0.68687550070E+02  0.75038620027E+02  0.00000000000E+00 0. -1.
         22    1    4    4    0    0  0.26753977487E+02  0.55540456549E+01  0.11570761551E+02  0.29673308838E+02  0.00000000000E+00 0.  1.
         22    1    4    4    0    0  0.29922862190E+01 -0.26492886244E+00 -0.12123622484E+01  0.32394114188E+01  0.00000000000E+00 0.  1.
<mgrwt>
<rscale>  0 0.90836127E+02</rscale>
<asrwt>0</asrwt>
<pdfrwt beam="1">  1        2 0.38170915E-02 0.90836127E+02</pdfrwt>
<pdfrwt beam="2">  1       -2 0.12790807E-01 0.90836127E+02</pdfrwt>
<totfact> 0.84953473E+04</totfact>
</mgrwt>
</event>
<event>
 7    1  0.3337990E-009  0.8725780E+02  0.7818608E-02  0.1309632E+00
          2   -1    0    0  501    0  0.00000000000E+00  0.00000000000E+00  0.11834595274E+03  0.11834595276E+03  0.25500000000E-02 0. -1.
         -2   -1    0    0    0  501 -0.00000000000E+00 -0.00000000000E+00 -0.16084037150E+02  0.16084037352E+02  0.25500000000E-02 0.  1.
         23    2    1    2    0    0 -0.35527136788E-14  0.00000000000E+00  0.10226191559E+03  0.13442999012E+03  0.87257795430E+02 0.  0.
    9000005    2    3    3    0    0  0.17977888049E+02 -0.10894509891E+02 -0.56802087481E+01  0.24460007802E+02  0.11141472335E+02 0.  0.
         22    1    3    3    0    0 -0.17977888049E+02  0.10894509891E+02  0.10794212433E+03  0.10996998231E+03  0.00000000000E+00 0. -1.
         22    1    4    4    0    0  0.39415947785E+00 -0.45781961546E+01 -0.32288451946E+01  0.56161092417E+01  0.00000000000E+00 0. -1.
         22    1    4    4    0    0  0.17583728571E+02 -0.63163137359E+01 -0.24513635534E+01  0.18843898560E+02  0.00000000000E+00 0. -1.
<mgrwt>
<rscale>  0 0.87257795E+02</rscale>
<asrwt>0</asrwt>
<pdfrwt beam="1">  1        2 0.18207070E-01 0.87257795E+02</pdfrwt>
<pdfrwt beam="2">  1       -2 0.24744673E-02 0.87257795E+02</pdfrwt>
<totfact> 0.14573220E+05</totfact>
</mgrwt>
</event>
<event>
 7    1  0.3337990E-009  0.9112773E+02  0.7818608E-02  0.1300143E+00
         -2   -1    0    0    0  501 -0.00000000000E+00  0.00000000000E+00  0.24097987440E+02  0.24097987575E+02  0.25500000000E-02 0.  1.
          2   -1    0    0  501    0  0.00000000000E+00 -0.00000000000E+00 -0.86151000609E+02  0.86151000646E+02  0.25500000000E-02 0. -1.
         23    2    1    2    0    0  0.00000000000E+00  0.00000000000E+00 -0.62053013169E+02  0.11024898822E+03  0.91127728823E+02 0.  0.
    9000005    2    3    3    0    0  0.33222978721E+02  0.57936490671E+01 -0.67460872845E+02  0.76093789043E+02  0.10097657216E+02 0.  0.
         22    1    3    3    0    0 -0.33222978721E+02 -0.57936490671E+01  0.54078596762E+01  0.34155199178E+02  0.00000000000E+00 0.  1.
         22    1    4    4    0    0  0.20002825815E+02  0.21539205991E+01 -0.29282537695E+02  0.35527727600E+02  0.00000000000E+00 0. -1.
         22    1    4    4    0    0  0.13220152906E+02  0.36397284681E+01 -0.38178335150E+02  0.40566061443E+02  0.00000000000E+00 0. -1.
<mgrwt>
<rscale>  0 0.91127729E+02</rscale>
<asrwt>0</asrwt>
<pdfrwt beam="2">  1        2 0.13254000E-01 0.91127729E+02</pdfrwt>
<pdfrwt beam="1">  1       -2 0.37073827E-02 0.91127729E+02</pdfrwt>
<totfact> 0.11751655E+05</totfact>
</mgrwt>
</event>
<event>
 6    1  0.3337990E-009  0.1695898E+03  0.7818608E-02  0.1178276E+00
         -2   -1    0    0    0  501 -0.00000000000E+00  0.00000000000E+00  0.19637932236E+02  0.19637932401E+02  0.25500000000E-02 0.  1.
          2   -1    0    0  501    0  0.00000000000E+00 -0.00000000000E+00 -0.36613694380E+03  0.36613694381E+03  0.25500000000E-02 0. -1.
    9000005    2    1    2    0    0 -0.45346800332E+02 -0.37688522712E+02 -0.34709439456E+02  0.68458796693E+02  0.22593389935E+01 0.  0.
         22    1    1    2    0    0  0.45346800332E+02  0.37688522712E+02 -0.31178957211E+03  0.31731607951E+03  0.00000000000E+00 0. -1.
         22    1    3    3    0    0 -0.25701990779E+02 -0.21325880698E+02 -0.18357499232E+02  0.38110146885E+02  0.00000000000E+00 0. -1.
         22    1    3    3    0    0 -0.19644809554E+02 -0.16362642015E+02 -0.16351940224E+02  0.30348649808E+02  0.00000000000E+00 0. -1.
<mgrwt>
<rscale>  0 0.16958977E+03</rscale>
<asrwt>0</asrwt>
<pdfrwt beam="2">  1        2 0.56328756E-01 0.16958977E+03</pdfrwt>
<pdfrwt beam="1">  1       -2 0.30212206E-02 0.16958977E+03</pdfrwt>
<totfact> 0.34989749E+04</totfact>
</mgrwt>
</event>
<event>
 7    1  0.3538912E-009  0.9414312E+02  0.7818608E-02  0.1293118E+00
          2   -1    0    0  501    0  0.00000000000E+00  0.00000000000E+00  0.35282783614E+03  0.35282783615E+03  0.25500000000E-02 0. -1.
         -2   -1    0    0    0  501 -0.00000000000E+00 -0.00000000000E+00 -0.62799229207E+01  0.62799234385E+01  0.25500000000E-02 0.  1.
         23    2    1    2    0    0 -0.17763568394E-14  0.88817841970E-15  0.34654791322E+03  0.35910775959E+03  0.94143118918E+02 0.  0.
    9000005    2    3    3    0    0 -0.68539835234E+01  0.74484083083E+01  0.34834828179E+03  0.34882684507E+03  0.15204819571E+02 0.  0.
         22    1    3    3    0    0  0.68539835234E+01 -0.74484083083E+01 -0.18003685661E+01  0.10280914523E+02  0.00000000000E+00 0.  1.
         22    1    4    4    0    0 -0.11147480944E+02  0.67857108873E+01  0.30001811722E+03  0.30030181962E+03  0.00000000000E+00 0. -1.
         22    1    4    4    0    0  0.42934974201E+01  0.66269742098E+00  0.48330164568E+02  0.48525025452E+02  0.00000000000E+00 0. -1.
<mgrwt>
<rscale>  0 0.94143119E+02</rscale>
<asrwt>0</asrwt>
<pdfrwt beam="1">  1        2 0.54281211E-01 0.94143119E+02</pdfrwt>
<pdfrwt beam="2">  1       -2 0.96614194E-03 0.94143119E+02</pdfrwt>
<totfact> 0.17514989E+05</totfact>
</mgrwt>
</event>
<event>
 7    1  0.3337990E-009  0.9146993E+02  0.7818608E-02  0.1299331E+00
          2   -1    0    0  501    0  0.00000000000E+00  0.00000000000E+00  0.28222710363E+02  0.28222710478E+02  0.25500000000E-02 0.  1.
         -2   -1    0    0    0  501 -0.00000000000E+00 -0.00000000000E+00 -0.74113616762E+02  0.74113616806E+02  0.25500000000E-02 0. -1.
         23    2    1    2    0    0  0.00000000000E+00  0.00000000000E+00 -0.45890906399E+02  0.10233632728E+03  0.91469932720E+02 0.  0.
    9000005    2    3    3    0    0 -0.34789561746E+02  0.94482298210E+01 -0.53249351400E+02  0.65543265899E+02  0.12682414078E+02 0.  0.
         22    1    3    3    0    0  0.34789561746E+02 -0.94482298210E+01  0.73584450010E+01  0.36793061385E+02  0.00000000000E+00 0.  1.
         22    1    4    4    0    0 -0.23080365799E+02  0.35794231439E+00 -0.28273165698E+02  0.36499360361E+02  0.00000000000E+00 0.  1.
         22    1    4    4    0    0 -0.11709195947E+02  0.90902875066E+01 -0.24976185702E+02  0.29043905538E+02  0.00000000000E+00 0.  1.
<mgrwt>
<rscale>  0 0.91469933E+02</rscale>
<asrwt>0</asrwt>
<pdfrwt beam="1">  1        2 0.43419555E-02 0.91469933E+02</pdfrwt>
<pdfrwt beam="2">  1       -2 0.11402095E-01 0.91469933E+02</pdfrwt>
<totfact> 0.86195653E+04</totfact>
</mgrwt>
</event>
<event>
 7    1  0.3337990E-009  0.9072553E+02  0.7818608E-02  0.1301104E+00
         -2   -1    0    0    0  501 -0.00000000000E+00  0.00000000000E+00  0.92442007534E+01  0.92442011051E+01  0.25500000000E-02 0.  1.
          2   -1    0    0  501    0  0.00000000000E+00 -0.00000000000E+00 -0.22260231016E+03  0.22260231017E+03  0.25500000000E-02 0. -1.
         23    2    1    2    0    0  0.00000000000E+00  0.00000000000E+00 -0.21335810940E+03  0.23184651128E+03  0.90725530822E+02 0.  0.
    9000005    2    3    3    0    0 -0.20641415910E+02 -0.38707664518E+02 -0.12237408674E+03  0.13083936438E+03  0.14804419067E+02 0.  0.
         22    1    3    3    0    0  0.20641415910E+02  0.38707664518E+02 -0.90984022665E+02  0.10100714689E+03  0.00000000000E+00 0.  1.
         22    1    4    4    0    0 -0.16834948071E+02 -0.24515031283E+02 -0.97652456588E+02  0.10208038261E+03  0.00000000000E+00 0. -1.
         22    1    4    4    0    0 -0.38064678386E+01 -0.14192633235E+02 -0.24721630152E+02  0.28758981779E+02  0.00000000000E+00 0. -1.
<mgrwt>
<rscale>  0 0.90725531E+02</rscale>
<asrwt>0</asrwt>
<pdfrwt beam="2">  1        2 0.34246505E-01 0.90725531E+02</pdfrwt>
<pdfrwt beam="1">  1       -2 0.14221849E-02 0.90725531E+02</pdfrwt>
<totfact> 0.16298795E+05</totfact>
</mgrwt>
</event>
<event>
 6    1  0.3337990E-009  0.1794555E+03  0.7818608E-02  0.1168331E+00
          2   -1    0    0  501    0  0.00000000000E+00  0.00000000000E+00  0.14717071097E+04  0.14717071097E+04  0.25500000000E-02 0. -1.
         -2   -1    0    0    0  501 -0.00000000000E+00 -0.00000000000E+00 -0.54705635409E+01  0.54705641352E+01  0.25500000000E-02 0.  1.
    9000005    2    1    2    0    0 -0.71986786392E+02 -0.42763670224E+02  0.99854613622E+03  0.10020512186E+04  0.11956826799E+01 0.  0.
         22    1    1    2    0    0  0.71986786392E+02  0.42763670224E+02  0.46769040997E+03  0.47512645526E+03  0.00000000000E+00 0.  1.
         22    1    3    3    0    0 -0.57041329794E+02 -0.34302755709E+02  0.78985200342E+03  0.79265161305E+03  0.00000000000E+00 0. -1.
         22    1    3    3    0    0 -0.14945456598E+02 -0.84609145152E+01  0.20869413280E+03  0.20939960557E+03  0.00000000000E+00 0. -1.
<mgrwt>
<rscale>  0 0.17945548E+03</rscale>
<asrwt>0</asrwt>
<pdfrwt beam="1">  1        2 0.22641648E+00 0.17945548E+03</pdfrwt>
<pdfrwt beam="2">  1       -2 0.84162521E-03 0.17945548E+03</pdfrwt>
<totfact> 0.37683681E+04</totfact>
</mgrwt>
</event>
<event>
 7    1  0.3337990E-009  0.8407803E+02  0.7818608E-02  0.1317861E+00
          2   -1    0    0  501    0  0.00000000000E+00  0.00000000000E+00  0.16561096000E+02  0.16561096196E+02  0.25500000000E-02 0. -1.
         -2   -1    0    0    0  501 -0.00000000000E+00 -0.00000000000E+00 -0.10671267523E+03  0.10671267526E+03  0.25500000000E-02 0.  1.
         23    2    1    2    0    0  0.00000000000E+00  0.00000000000E+00 -0.90151579231E+02  0.12327377146E+03  0.84078032157E+02 0.  0.
    9000005    2    3    3    0    0  0.12711519738E+02  0.36814206656E+02 -0.68077755775E+02  0.78506347723E+02  0.34347133329E+01 0.  0.
         22    1    3    3    0    0 -0.12711519738E+02 -0.36814206656E+02 -0.22073823456E+02  0.44767423734E+02  0.00000000000E+00 0. -1.
         22    1    4    4    0    0  0.61974810090E+01  0.21937616696E+02 -0.37564614333E+02  0.43940505767E+02  0.00000000000E+00 0.  1.
         22    1    4    4    0    0  0.65140387292E+01  0.14876589961E+02 -0.30513141442E+02  0.34565841955E+02  0.00000000000E+00 0.  1.
<mgrwt>
<rscale>  0 0.84078032E+02</rscale>
<asrwt>0</asrwt>
<pdfrwt beam="1">  1        2 0.25478610E-02 0.84078032E+02</pdfrwt>
<pdfrwt beam="2">  1       -2 0.16417334E-01 0.84078032E+02</pdfrwt>
<totfact> 0.95795379E+04</totfact>
</mgrwt>
</event>
<event>
 7    1  0.3337990E-009  0.9020450E+02  0.7818608E-02  0.1302357E+00
         -2   -1    0    0    0  501 -0.00000000000E+00  0.00000000000E+00  0.13805017633E+02  0.13805017869E+02  0.25500000000E-02 0. -1.
          2   -1    0    0  501    0  0.00000000000E+00 -0.00000000000E+00 -0.14735317018E+03  0.14735317020E+03  0.25500000000E-02 0.  1.
         23    2    1    2    0    0  0.00000000000E+00  0.00000000000E+00 -0.13354815254E+03  0.16115818807E+03  0.90204503952E+02 0.  0.
    9000005    2    3    3    0    0  0.24817092066E+02 -0.17952316211E+02 -0.12453589950E+03  0.12923023134E+03  0.15908762107E+02 0.  0.
         22    1    3    3    0    0 -0.24817092066E+02  0.17952316211E+02 -0.90122530446E+01  0.31927956729E+02  0.00000000000E+00 0. -1.
         22    1    4    4    0    0  0.21376362222E+02 -0.14599643624E+02 -0.72680849482E+02  0.77153122667E+02  0.00000000000E+00 0.  1.
         22    1    4    4    0    0  0.34407298439E+01 -0.33526725871E+01 -0.51855050016E+02  0.52077108671E+02  0.00000000000E+00 0.  1.
<mgrwt>
<rscale>  0 0.90204504E+02</rscale>
<asrwt>0</asrwt>
<pdfrwt beam="2">  1        2 0.22669717E-01 0.90204504E+02</pdfrwt>
<pdfrwt beam="1">  1       -2 0.21238490E-02 0.90204504E+02</pdfrwt>
<totfact> 0.14306756E+05</totfact>
</mgrwt>
</event>
<event>
 7    1  0.3337990E-009  0.9058981E+02  0.7818608E-02  0.1301430E+00
          2   -1    0    0  501    0  0.00000000000E+00  0.00000000000E+00  0.14221215177E+02  0.14221215406E+02  0.25500000000E-02 0. -1.
         -2   -1    0    0    0  501 -0.00000000000E+00 -0.00000000000E+00 -0.14426534376E+03  0.14426534378E+03  0.25500000000E-02 0.  1.
         23    2    1    2    0    0  0.00000000000E+00  0.00000000000E+00 -0.13004412858E+03  0.15848655919E+03  0.90589812145E+02 0.  0.
    9000005    2    3    3    0    0 -0.25561050677E+02 -0.36248046999E+02 -0.53843543563E+02  0.70317305022E+02  0.88378718662E+01 0.  0.
         22    1    3    3    0    0  0.25561050677E+02  0.36248046999E+02 -0.76200585019E+02  0.88169254166E+02  0.00000000000E+00 0.  1.
         22    1    4    4    0    0 -0.23203201017E+02 -0.33841432933E+02 -0.52632986498E+02  0.66737263864E+02  0.00000000000E+00 0.  1.
         22    1    4    4    0    0 -0.23578496602E+01 -0.24066140662E+01 -0.12105570657E+01  0.35800411580E+01  0.00000000000E+00 0.  1.
<mgrwt>
<rscale>  0 0.90589812E+02</rscale>
<asrwt>0</asrwt>
<pdfrwt beam="1">  1        2 0.21878794E-02 0.90589812E+02</pdfrwt>
<pdfrwt beam="2">  1       -2 0.22194667E-01 0.90589812E+02</pdfrwt>
<totfact> 0.72009967E+04</totfact>
</mgrwt>
</event>
<event>
 7    1  0.3337990E-009  0.9200967E+02  0.7818608E-02  0.1298057E+00
         -2   -1    0    0    0  501 -0.00000000000E+00  0.00000000000E+00  0.31632682167E+02  0.31632682270E+02  0.25500000000E-02 0.  1.
          2   -1    0    0  501    0  0.00000000000E+00 -0.00000000000E+00 -0.66906897420E+02  0.66906897469E+02  0.25500000000E-02 0. -1.
         23    2    1    2    0    0  0.00000000000E+00  0.00000000000E+00 -0.35274215253E+02  0.98539579739E+02  0.92009665326E+02 0.  0.
    9000005    2    3    3    0    0  0.41028664010E+02 -0.17858082207E+02 -0.21181436323E+02  0.51626161737E+02  0.14640524596E+02 0.  0.
         22    1    3    3    0    0 -0.41028664010E+02  0.17858082207E+02 -0.14092778931E+02  0.46913418002E+02  0.00000000000E+00 0. -1.
         22    1    4    4    0    0  0.30250787637E+02 -0.17627946678E+02 -0.10750535707E+02  0.36625519447E+02  0.00000000000E+00 0.  1.
         22    1    4    4    0    0  0.10777876373E+02 -0.23013552950E+00 -0.10430900616E+02  0.15000642291E+02  0.00000000000E+00 0.  1.
<mgrwt>
<rscale>  0 0.92009665E+02</rscale>
<asrwt>0</asrwt>
<pdfrwt beam="2">  1        2 0.10293369E-01 0.92009665E+02</pdfrwt>
<pdfrwt beam="1">  1       -2 0.48665665E-02 0.92009665E+02</pdfrwt>
<totfact> 0.10649502E+05</totfact>
</mgrwt>
</event>
<event>
 7    1  0.3337990E-009  0.1105910E+03  0.7818608E-02  0.1259479E+00
         -2   -1    0    0    0  501 -0.00000000000E+00  0.00000000000E+00  0.54453005781E+01  0.54453011752E+01  0.25500000000E-02 0.  1.
          2   -1    0    0  501    0  0.00000000000E+00 -0.00000000000E+00 -0.56151032315E+03  0.56151032316E+03  0.25500000000E-02 0. -1.
         23    2    1    2    0    0  0.00000000000E+00  0.00000000000E+00 -0.55606502257E+03  0.56695562433E+03  0.11059100611E+03 0.  0.
    9000005    2    3    3    0    0  0.61624248385E+00 -0.53369320854E+02 -0.33625252051E+03  0.34075615433E+03  0.14153974895E+02 0.  0.
         22    1    3    3    0    0 -0.61624248385E+00  0.53369320854E+02 -0.21981250206E+03  0.22619947000E+03  0.00000000000E+00 0.  1.
         22    1    4    4    0    0 -0.14188516324E+01 -0.48549009383E+02 -0.27294178787E+03  0.27722957818E+03  0.00000000000E+00 0.  1.
         22    1    4    4    0    0  0.20350941162E+01 -0.48203114711E+01 -0.63310732635E+02  0.63526576152E+02  0.00000000000E+00 0.  1.
<mgrwt>
<rscale>  0 0.11059101E+03</rscale>
<asrwt>0</asrwt>
<pdfrwt beam="2">  1        2 0.86386158E-01 0.11059101E+03</pdfrwt>
<pdfrwt beam="1">  1       -2 0.83773904E-03 0.11059101E+03</pdfrwt>
<totfact> 0.13348231E+05</totfact>
</mgrwt>
</event>
<event>
 7    1  0.3337990E-009  0.9073430E+02  0.7818608E-02  0.1301083E+00
          2   -1    0    0  501    0  0.00000000000E+00  0.00000000000E+00  0.13220821639E+04  0.13220821639E+04  0.25500000000E-02 0.  1.
         -2   -1    0    0    0  501 -0.00000000000E+00 -0.00000000000E+00 -0.15567691500E+01  0.15567712385E+01  0.25500000000E-02 0. -1.
         23    2    1    2    0    0 -0.88817841970E-15  0.00000000000E+00  0.13205253948E+04  0.13236389352E+04  0.90734295839E+02 0.  0.
    9000005    2    3    3    0    0  0.29423521908E+01 -0.20261145768E+02  0.12488533751E+04  0.12491000201E+04  0.14033391925E+02 0.  0.
         22    1    3    3    0    0 -0.29423521908E+01  0.20261145768E+02  0.71672019618E+02  0.74538915073E+02  0.00000000000E+00 0. -1.
         22    1    4    4    0    0  0.84911066864E+01 -0.97281974239E+01  0.66060948426E+03  0.66073567136E+03  0.00000000000E+00 0. -1.
         22    1    4    4    0    0 -0.55487544956E+01 -0.10532948344E+02  0.58824389089E+03  0.58836434872E+03  0.00000000000E+00 0. -1.
<mgrwt>
<rscale>  0 0.90734296E+02</rscale>
<asrwt>0</asrwt>
<pdfrwt beam="1">  1        2 0.20339806E+00 0.90734296E+02</pdfrwt>
<pdfrwt beam="2">  1       -2 0.23950217E-03 0.90734296E+02</pdfrwt>
<totfact> 0.24800864E+05</totfact>
</mgrwt>
</event>
<event>
 7    1  0.3337990E-009  0.9259114E+02  0.7818608E-02  0.1296695E+00
          2   -1    0    0  501    0  0.00000000000E+00  0.00000000000E+00  0.10104023587E+03  0.10104023590E+03  0.25500000000E-02 0. -1.
         -2   -1    0    0    0  501 -0.00000000000E+00 -0.00000000000E+00 -0.21212143786E+02  0.21212143940E+02  0.25500000000E-02 0.  1.
         23    2    1    2    0    0 -0.71054273576E-14  0.00000000000E+00  0.79828092085E+02  0.12225237984E+03  0.92591144778E+02 0.  0.
    9000005    2    3    3    0    0  0.42639647563E+02  0.12255050922E+02  0.55826569806E+02  0.71810344901E+02  0.84731293498E+01 0.  0.
         22    1    3    3    0    0 -0.42639647563E+02 -0.12255050922E+02  0.24001522278E+02  0.50442034942E+02  0.00000000000E+00 0.  1.
         22    1    4    4    0    0  0.39717471724E+02  0.13012762027E+02  0.53989628121E+02  0.68276566115E+02  0.00000000000E+00 0. -1.
         22    1    4    4    0    0  0.29221758390E+01 -0.75771110510E+00  0.18369416849E+01  0.35337787858E+01  0.00000000000E+00 0. -1.
<mgrwt>
<rscale>  0 0.92591145E+02</rscale>
<asrwt>0</asrwt>
<pdfrwt beam="1">  1        2 0.15544651E-01 0.92591145E+02</pdfrwt>
<pdfrwt beam="2">  1       -2 0.32634068E-02 0.92591145E+02</pdfrwt>
<totfact> 0.11794985E+05</totfact>
</mgrwt>
</event>
<event>
 7    1  0.3337990E-009  0.9173289E+02  0.7818608E-02  0.1298709E+00
          2   -1    0    0  501    0  0.00000000000E+00  0.00000000000E+00  0.73109241285E+03  0.73109241286E+03  0.25500000000E-02 0. -1.
         -2   -1    0    0    0  501 -0.00000000000E+00 -0.00000000000E+00 -0.28775165162E+01  0.28775176460E+01  0.25500000000E-02 0.  1.
         23    2    1    2    0    0  0.00000000000E+00 -0.71054273576E-14  0.72821489634E+03  0.73396993050E+03  0.91732892882E+02 0.  0.
    9000005    2    3    3    0    0  0.21914007243E+02 -0.33173426181E+02  0.53698156935E+03  0.53864741447E+03  0.14530360592E+02 0.  0.
         22    1    3    3    0    0 -0.21914007243E+02  0.33173426181E+02  0.19123332699E+03  0.19532251603E+03  0.00000000000E+00 0.  1.
         22    1    4    4    0    0  0.16892193097E+02 -0.16896082124E+02  0.37841766320E+03  0.37917113762E+03  0.00000000000E+00 0.  1.
         22    1    4    4    0    0  0.50218141465E+01 -0.16277344057E+02  0.15856390614E+03  0.15947627685E+03  0.00000000000E+00 0.  1.
<mgrwt>
<rscale>  0 0.91732893E+02</rscale>
<asrwt>0</asrwt>
<pdfrwt beam="1">  1        2 0.11247578E+00 0.91732893E+02</pdfrwt>
<pdfrwt beam="2">  1       -2 0.44269483E-03 0.91732893E+02</pdfrwt>
<totfact> 0.23565740E+05</totfact>
</mgrwt>
</event>
<event>
 7    1  0.3337990E-009  0.9130737E+02  0.7818608E-02  0.1299716E+00
         -2   -1    0    0    0  501 -0.00000000000E+00  0.00000000000E+00  0.12593643184E+03  0.12593643186E+03  0.25500000000E-02 0.  1.
          2   -1    0    0  501    0  0.00000000000E+00 -0.00000000000E+00 -0.16550087658E+02  0.16550087855E+02  0.25500000000E-02 0. -1.
         23    2    1    2    0    0  0.00000000000E+00 -0.35527136788E-14  0.10938634418E+03  0.14248651972E+03  0.91307371052E+02 0.  0.
    9000005    2    3    3    0    0 -0.22876454531E+02  0.29542453447E+02  0.94491547672E+02  0.10226284894E+03  0.11530349733E+02 0.  0.
         22    1    3    3    0    0  0.22876454531E+02 -0.29542453447E+02  0.14894796507E+02  0.40223670774E+02  0.00000000000E+00 0. -1.
         22    1    4    4    0    0 -0.29318154810E+01  0.11066835330E+02  0.35671319634E+02  0.37463494641E+02  0.00000000000E+00 0. -1.
         22    1    4    4    0    0 -0.19944639050E+02  0.18475618118E+02  0.58820228038E+02  0.64799354303E+02  0.00000000000E+00 0. -1.
<mgrwt>
<rscale>  0 0.91307371E+02</rscale>
<asrwt>0</asrwt>
<pdfrwt beam="2">  1        2 0.25461673E-02 0.91307371E+02</pdfrwt>
<pdfrwt beam="1">  1       -2 0.19374836E-01 0.91307371E+02</pdfrwt>
<totfact> 0.73965701E+04</totfact>
</mgrwt>
</event>
<event>
 7    1  0.3337990E-009  0.9717042E+02  0.7818608E-02  0.1286361E+00
          2   -1    0    0  501    0  0.00000000000E+00  0.00000000000E+00  0.33602982813E+01  0.33602992489E+01  0.25500000000E-02 0.  1.
         -2   -1    0    0    0  501 -0.00000000000E+00 -0.00000000000E+00 -0.70247409230E+03  0.70247409230E+03  0.25500000000E-02 0. -1.
         23    2    1    2    0    0  0.00000000000E+00  0.35527136788E-14 -0.69911379402E+03  0.70583439155E+03  0.97170424063E+02 0.  0.
    9000005    2    3    3    0    0 -0.40440511716E+02  0.23775600970E+02 -0.43207773301E+03  0.43470901083E+03  0.89466502652E+01 0.  0.
         22    1    3    3    0    0  0.40440511716E+02 -0.23775600970E+02 -0.26703606101E+03  0.27112538072E+03  0.00000000000E+00 0.  1.
         22    1    4    4    0    0 -0.23934834474E+01  0.22179230502E+01 -0.56474770918E+02  0.56568964070E+02  0.00000000000E+00 0.  1.
         22    1    4    4    0    0 -0.38047028269E+02  0.21557677920E+02 -0.37560296209E+03  0.37814004676E+03  0.00000000000E+00 0.  1.
<mgrwt>
<rscale>  0 0.97170424E+02</rscale>
<asrwt>0</asrwt>
<pdfrwt beam="1">  1        2 0.51696960E-03 0.97170424E+02</pdfrwt>
<pdfrwt beam="2">  1       -2 0.10807282E+00 0.97170424E+02</pdfrwt>
<totfact> 0.22955623E+04</totfact>
</mgrwt>
</event>
<event>
 7    1  0.3337990E-009  0.8953813E+02  0.7818608E-02  0.1303974E+00
          2   -1    0    0  501    0  0.00000000000E+00  0.00000000000E+00  0.14311662892E+03  0.14311662894E+03  0.25500000000E-02 0. -1.
         -2   -1    0    0    0  501 -0.00000000000E+00 -0.00000000000E+00 -0.14004445830E+02  0.14004446062E+02  0.25500000000E-02 0.  1.
         23    2    1    2    0    0  0.00000000000E+00  0.00000000000E+00  0.12911218309E+03  0.15712107500E+03  0.89538128127E+02 0.  0.
    9000005    2    3    3    0    0  0.35325958856E+02  0.61886189825E+01  0.11050111283E+03  0.11671570024E+03  0.11217681160E+02 0.  0.
         22    1    3    3    0    0 -0.35325958856E+02 -0.61886189825E+01  0.18611070258E+02  0.40405374768E+02  0.00000000000E+00 0.  1.
         22    1    4    4    0    0  0.31897858944E+02  0.71408526221E+01  0.86832822462E+02  0.92781486505E+02  0.00000000000E+00 0.  1.
         22    1    4    4    0    0  0.34280999125E+01 -0.95223363953E+00  0.23668290369E+02  0.23934213731E+02  0.00000000000E+00 0.  1.
<mgrwt>
<rscale>  0 0.89538128E+02</rscale>
<asrwt>0</asrwt>
<pdfrwt beam="1">  1        2 0.22017942E-01 0.89538128E+02</pdfrwt>
<pdfrwt beam="2">  1       -2 0.21545302E-02 0.89538128E+02</pdfrwt>
<totfact> 0.14454581E+05</totfact>
</mgrwt>
</event>
<event>
 7    1  0.3337990E-009  0.1045281E+03  0.7818608E-02  0.1271052E+00
          2   -1    0    0  501    0  0.00000000000E+00  0.00000000000E+00  0.38754891092E+03  0.38754891092E+03  0.25500000000E-02 0. -1.
         -2   -1    0    0    0  501 -0.00000000000E+00 -0.00000000000E+00 -0.70482171634E+01  0.70482176246E+01  0.25500000000E-02 0.  1.
         23    2    1    2    0    0  0.00000000000E+00  0.00000000000E+00  0.38050069375E+03  0.39459712855E+03  0.10452806280E+03 0.  0.
    9000005    2    3    3    0    0  0.23476705855E+02 -0.45912602371E+02  0.21506764491E+03  0.22131349856E+03  0.81516858144E+01 0.  0.
         22    1    3    3    0    0 -0.23476705855E+02  0.45912602371E+02  0.16543304884E+03  0.17328362999E+03  0.00000000000E+00 0.  1.
         22    1    4    4    0    0  0.15847961910E+02 -0.37143075595E+02  0.17463785555E+03  0.17924605031E+03  0.00000000000E+00 0. -1.
         22    1    4    4    0    0  0.76287439450E+01 -0.87695267761E+01  0.40429789360E+02  0.42067448244E+02  0.00000000000E+00 0. -1.
<mgrwt>
<rscale>  0 0.10452806E+03</rscale>
<asrwt>0</asrwt>
<pdfrwt beam="1">  1        2 0.59622899E-01 0.10452806E+03</pdfrwt>
<pdfrwt beam="2">  1       -2 0.10843413E-02 0.10452806E+03</pdfrwt>
<totfact> 0.13691238E+05</totfact>
</mgrwt>
</event>
<event>
 7    1  0.3337990E-009  0.9136827E+02  0.7818608E-02  0.1299572E+00
          2   -1    0    0  501    0  0.00000000000E+00  0.00000000000E+00  0.19429527401E+04  0.19429527401E+04  0.25500000000E-02 0. -1.
         -2   -1    0    0    0  501 -0.00000000000E+00 -0.00000000000E+00 -0.10741575299E+01  0.10741605567E+01  0.25500000000E-02 0.  1.
         23    2    1    2    0    0  0.00000000000E+00  0.44408920985E-15  0.19418785826E+04  0.19440269007E+04  0.91368271513E+02 0.  0.
    9000005    2    3    3    0    0  0.19884255213E+02 -0.31091243347E+01  0.18432225666E+04  0.18433389681E+04  0.49062549142E+01 0.  0.
         22    1    3    3    0    0 -0.19884255213E+02  0.31091243347E+01  0.98656016055E+02  0.10068793256E+03  0.00000000000E+00 0.  1.
         22    1    4    4    0    0  0.10198876084E+02 -0.10544885470E+01  0.72383286182E+03  0.72390547786E+03  0.00000000000E+00 0.  1.
         22    1    4    4    0    0  0.96853791296E+01 -0.20546357877E+01  0.11193897047E+04  0.11194334903E+04  0.00000000000E+00 0.  1.
<mgrwt>
<rscale>  0 0.91368272E+02</rscale>
<asrwt>0</asrwt>
<pdfrwt beam="1">  1        2 0.29891294E+00 0.91368272E+02</pdfrwt>
<pdfrwt beam="2">  1       -2 0.16525682E-03 0.91368272E+02</pdfrwt>
<totfact> 0.20087008E+05</totfact>
</mgrwt>
</event>
<event>
 7    1  0.3337990E-009  0.9068124E+02  0.7818608E-02  0.1301210E+00
         -2   -1    0    0    0  501 -0.00000000000E+00  0.00000000000E+00  0.41675762929E+01  0.41675770731E+01  0.25500000000E-02 0.  1.
          2   -1    0    0  501    0  0.00000000000E+00 -0.00000000000E+00 -0.49327755183E+03  0.49327755184E+03  0.25500000000E-02 0. -1.
         23    2    1    2    0    0  0.17763568394E-14  0.00000000000E+00 -0.48910997554E+03  0.49744512891E+03  0.90681244511E+02 0.  0.
    9000005    2    3    3    0    0  0.14120870550E+02  0.25537397197E+02 -0.43481267910E+03  0.43580298390E+03  0.32584094136E+01 0.  0.
         22    1    3    3    0    0 -0.14120870550E+02 -0.25537397197E+02 -0.54297296438E+02  0.61642145007E+02  0.00000000000E+00 0.  1.
         22    1    4    4    0    0  0.47651005433E+01  0.11368808568E+02 -0.16963393314E+03  0.17008123725E+03  0.00000000000E+00 0. -1.
         22    1    4    4    0    0  0.93557700064E+01  0.14168588628E+02 -0.26517874596E+03  0.26572174665E+03  0.00000000000E+00 0. -1.
<mgrwt>
<rscale>  0 0.90681245E+02</rscale>
<asrwt>0</asrwt>
<pdfrwt beam="2">  1        2 0.75888808E-01 0.90681245E+02</pdfrwt>
<pdfrwt beam="1">  1       -2 0.64116604E-03 0.90681245E+02</pdfrwt>
<totfact> 0.21766361E+05</totfact>
</mgrwt>
</event>
<event>
 7    1  0.3337990E-009  0.9214264E+02  0.7818608E-02  0.1297744E+00
         -2   -1    0    0    0  501 -0.00000000000E+00  0.00000000000E+00  0.28646385092E+02  0.28646385205E+02  0.25500000000E-02 0.  1.
          2   -1    0    0  501    0  0.00000000000E+00 -0.00000000000E+00 -0.74095437468E+02  0.74095437512E+02  0.25500000000E-02 0. -1.
         23    2    1    2    0    0  0.00000000000E+00  0.00000000000E+00 -0.45449052376E+02  0.10274182272E+03  0.92142638194E+02 0.  0.
    9000005    2    3    3    0    0  0.25193028772E+02  0.28526659900E+02  0.37989614260E+01  0.40501756143E+02  0.13322954591E+02 0.  0.
         22    1    3    3    0    0 -0.25193028772E+02 -0.28526659900E+02 -0.49248013802E+02  0.62240066574E+02  0.00000000000E+00 0. -1.
         22    1    4    4    0    0  0.20696724729E+02  0.18789465608E+02 -0.24975976750E+01  0.28064861063E+02  0.00000000000E+00 0.  1.
         22    1    4    4    0    0  0.44963040422E+01  0.97371942915E+01  0.62965591010E+01  0.12436895080E+02  0.00000000000E+00 0.  1.
<mgrwt>
<rscale>  0 0.92142638E+02</rscale>
<asrwt>0</asrwt>
<pdfrwt beam="2">  1        2 0.11399298E-01 0.92142638E+02</pdfrwt>
<pdfrwt beam="1">  1       -2 0.44071362E-02 0.92142638E+02</pdfrwt>
<totfact> 0.10912615E+05</totfact>
</mgrwt>
</event>
<event>
 7    1  0.3337990E-009  0.9044967E+02  0.7818608E-02  0.1301766E+00
          2   -1    0    0  501    0  0.00000000000E+00  0.00000000000E+00  0.53920795570E+03  0.53920795571E+03  0.25500000000E-02 0. -1.
         -2   -1    0    0    0  501 -0.00000000000E+00 -0.00000000000E+00 -0.37931293156E+01  0.37931301728E+01  0.25500000000E-02 0.  1.
         23    2    1    2    0    0  0.00000000000E+00  0.00000000000E+00  0.53541482638E+03  0.54300108588E+03  0.90449670830E+02 0.  0.
    9000005    2    3    3    0    0  0.29568111641E+02  0.33707834478E+02  0.29074042734E+03  0.29425211024E+03  0.66194382357E+01 0.  0.
         22    1    3    3    0    0 -0.29568111641E+02 -0.33707834478E+02  0.24467439905E+03  0.24874897563E+03  0.00000000000E+00 0.  1.
         22    1    4    4    0    0  0.20797627887E+01  0.57170894870E+01  0.41142534760E+02  0.41589886895E+02  0.00000000000E+00 0.  1.
         22    1    4    4    0    0  0.27488348852E+02  0.27990744991E+02  0.24959789258E+03  0.25266222335E+03  0.00000000000E+00 0.  1.
<mgrwt>
<rscale>  0 0.90449671E+02</rscale>
<asrwt>0</asrwt>
<pdfrwt beam="1">  1        2 0.82954998E-01 0.90449671E+02</pdfrwt>
<pdfrwt beam="2">  1       -2 0.58355893E-03 0.90449671E+02</pdfrwt>
<totfact> 0.22544316E+05</totfact>
</mgrwt>
</event>
<event>
 7    1  0.3337990E-009  0.9076124E+02  0.7818608E-02  0.1301019E+00
          2   -1    0    0  501    0  0.00000000000E+00  0.00000000000E+00  0.12619290380E+03  0.12619290383E+03  0.25500000000E-02 0. -1.
         -2   -1    0    0    0  501 -0.00000000000E+00 -0.00000000000E+00 -0.16319464930E+02  0.16319465129E+02  0.25500000000E-02 0.  1.
         23    2    1    2    0    0  0.00000000000E+00  0.88817841970E-15  0.10987343888E+03  0.14251236896E+03  0.90761240275E+02 0.  0.
    9000005    2    3    3    0    0 -0.35442845379E+02 -0.50606821184E+01  0.98653882285E+02  0.10499325060E+03  0.30312357848E+01 0.  0.
         22    1    3    3    0    0  0.35442845379E+02  0.50606821184E+01  0.11219556590E+02  0.37519118355E+02  0.00000000000E+00 0.  1.
         22    1    4    4    0    0 -0.58789560402E+01  0.25442753475E+00  0.16999311400E+02  0.17988981227E+02  0.00000000000E+00 0. -1.
         22    1    4    4    0    0 -0.29563889339E+02 -0.53151096532E+01  0.81654570885E+02  0.87004269377E+02  0.00000000000E+00 0. -1.
<mgrwt>
<rscale>  0 0.90761240E+02</rscale>
<asrwt>0</asrwt>
<pdfrwt beam="1">  1        2 0.19414294E-01 0.90761240E+02</pdfrwt>
<pdfrwt beam="2">  1       -2 0.25106869E-02 0.90761240E+02</pdfrwt>
<totfact> 0.13364737E+05</totfact>
</mgrwt>
</event>
<event>
 7    1  0.3337990E-009  0.9409254E+02  0.7818608E-02  0.1293233E+00
          2   -1    0    0  501    0  0.00000000000E+00  0.00000000000E+00  0.90586443395E+02  0.90586443431E+02  0.25500000000E-02 0. -1.
         -2   -1    0    0    0  501 -0.00000000000E+00 -0.00000000000E+00 -0.24433582071E+02  0.24433582204E+02  0.25500000000E-02 0.  1.
         23    2    1    2    0    0  0.00000000000E+00  0.71054273576E-14  0.66152861324E+02  0.11502002563E+03  0.94092535494E+02 0.  0.
    9000005    2    3    3    0    0  0.65391257042E+01 -0.45995703688E+02  0.24143556068E+02  0.52384998287E+02  0.17064065104E+01 0.  0.
         22    1    3    3    0    0 -0.65391257042E+01  0.45995703688E+02  0.42009305256E+02  0.62635027348E+02  0.00000000000E+00 0.  1.
         22    1    4    4    0    0  0.46833765465E+01 -0.35884023299E+02  0.19443838008E+02  0.41081138987E+02  0.00000000000E+00 0. -1.
         22    1    4    4    0    0  0.18557491577E+01 -0.10111680389E+02  0.46997180606E+01  0.11303859300E+02  0.00000000000E+00 0. -1.
<mgrwt>
<rscale>  0 0.94092535E+02</rscale>
<asrwt>0</asrwt>
<pdfrwt beam="1">  1        2 0.13936376E-01 0.94092535E+02</pdfrwt>
<pdfrwt beam="2">  1       -2 0.37590127E-02 0.94092535E+02</pdfrwt>
<totfact> 0.10913238E+05</totfact>
</mgrwt>
</event>
<event>
 7    1  0.3337990E-009  0.8815325E+02  0.7818608E-02  0.1307387E+00
         -2   -1    0    0    0  501 -0.00000000000E+00  0.00000000000E+00  0.42394124012E+02  0.42394124088E+02  0.25500000000E-02 0.  1.
          2   -1    0    0  501    0  0.00000000000E+00 -0.00000000000E+00 -0.45825894381E+02  0.45825894452E+02  0.25500000000E-02 0. -1.
         23    2    1    2    0    0  0.71054273576E-14  0.00000000000E+00 -0.34317703696E+01  0.88220018541E+02  0.88153245110E+02 0.  0.
    9000005    2    3    3    0    0 -0.42831865159E+02  0.86391011323E+01 -0.22386258603E+01  0.44509306637E+02  0.81770526597E+01 0.  0.
         22    1    3    3    0    0  0.42831865159E+02 -0.86391011323E+01 -0.11931445093E+01  0.43710711904E+02  0.00000000000E+00 0.  1.
         22    1    4    4    0    0 -0.11788828435E+02 -0.39512676786E+00 -0.29943069312E+01  0.12169571687E+02  0.00000000000E+00 0. -1.
         22    1    4    4    0    0 -0.31043036723E+02  0.90342279001E+01  0.75568107087E+00  0.32339734950E+02  0.00000000000E+00 0. -1.
<mgrwt>
<rscale>  0 0.88153245E+02</rscale>
<asrwt>0</asrwt>
<pdfrwt beam="2">  1        2 0.70501376E-02 0.88153245E+02</pdfrwt>
<pdfrwt beam="1">  1       -2 0.65221729E-02 0.88153245E+02</pdfrwt>
<totfact> 0.10880023E+05</totfact>
</mgrwt>
</event>
<event>
 7    1  0.3337990E-009  0.9102422E+02  0.7818608E-02  0.1300390E+00
         -2   -1    0    0    0  501 -0.00000000000E+00  0.00000000000E+00  0.41700167473E+02  0.41700167550E+02  0.25500000000E-02 0.  1.
          2   -1    0    0  501    0  0.00000000000E+00 -0.00000000000E+00 -0.49672508921E+02  0.49672508987E+02  0.25500000000E-02 0. -1.
         23    2    1    2    0    0  0.35527136788E-14 -0.88817841970E-15 -0.79723414489E+01  0.91372676537E+02  0.91024215401E+02 0.  0.
    9000005    2    3    3    0    0  0.31872269478E+02 -0.54105643689E+01  0.26457284620E+02  0.44144349024E+02  0.14269543539E+02 0.  0.
         22    1    3    3    0    0 -0.31872269478E+02  0.54105643689E+01 -0.34429626069E+02  0.47228327513E+02  0.00000000000E+00 0. -1.
         22    1    4    4    0    0  0.13983348485E+02 -0.26868942416E+01  0.30565627932E+01  0.14563516458E+02  0.00000000000E+00 0. -1.
         22    1    4    4    0    0  0.17888920993E+02 -0.27236701273E+01  0.23400721827E+02  0.29580832566E+02  0.00000000000E+00 0. -1.
<mgrwt>
<rscale>  0 0.91024215E+02</rscale>
<asrwt>0</asrwt>
<pdfrwt beam="2">  1        2 0.76419245E-02 0.91024215E+02</pdfrwt>
<pdfrwt beam="1">  1       -2 0.64154104E-02 0.91024215E+02</pdfrwt>
<totfact> 0.10138756E+05</totfact>
</mgrwt>
</event>
<event>
 7    1  0.3337990E-009  0.9163157E+02  0.7818608E-02  0.1298948E+00
          2   -1    0    0  501    0  0.00000000000E+00  0.00000000000E+00  0.43337508326E+02  0.43337508402E+02  0.25500000000E-02 0.  1.
         -2   -1    0    0    0  501 -0.00000000000E+00 -0.00000000000E+00 -0.48435782117E+02  0.48435782185E+02  0.25500000000E-02 0. -1.
         23    2    1    2    0    0 -0.17763568394E-14  0.00000000000E+00 -0.50982737910E+01  0.91773290586E+02  0.91631569174E+02 0.  0.
    9000005    2    3    3    0    0  0.13260982981E+02 -0.49390471199E+01 -0.45486563812E+02  0.48977708724E+02  0.11381590767E+02 0.  0.
         22    1    3    3    0    0 -0.13260982981E+02  0.49390471199E+01  0.40388290021E+02  0.42795581862E+02  0.00000000000E+00 0.  1.
         22    1    4    4    0    0 -0.50221515067E+00  0.20964913821E+01 -0.10648331192E+02  0.10864366219E+02  0.00000000000E+00 0. -1.
         22    1    4    4    0    0  0.13763198132E+02 -0.70355385021E+01 -0.34838232620E+02  0.38113342505E+02  0.00000000000E+00 0. -1.
<mgrwt>
<rscale>  0 0.91631569E+02</rscale>
<asrwt>0</asrwt>
<pdfrwt beam="1">  1        2 0.66673090E-02 0.91631569E+02</pdfrwt>
<pdfrwt beam="2">  1       -2 0.74516588E-02 0.91631569E+02</pdfrwt>
<totfact> 0.96000353E+04</totfact>
</mgrwt>
</event>
<event>
 7    1  0.3337990E-009  0.8806329E+02  0.7818608E-02  0.1307611E+00
          2   -1    0    0  501    0  0.00000000000E+00  0.00000000000E+00  0.12969058100E+03  0.12969058102E+03  0.25500000000E-02 0. -1.
         -2   -1    0    0    0  501 -0.00000000000E+00 -0.00000000000E+00 -0.14949316867E+02  0.14949317084E+02  0.25500000000E-02 0.  1.
         23    2    1    2    0    0  0.00000000000E+00 -0.35527136788E-14  0.11474126413E+03  0.14463989811E+03  0.88063286505E+02 0.  0.
    9000005    2    3    3    0    0 -0.29595555067E+02 -0.21830695269E+02  0.18957636261E+02  0.42038828407E+02  0.74427807681E+01 0.  0.
         22    1    3    3    0    0  0.29595555067E+02  0.21830695269E+02  0.95783627872E+02  0.10260106970E+03  0.00000000000E+00 0. -1.
         22    1    4    4    0    0 -0.43321473376E+01 -0.20680682527E+01  0.39849944936E-01  0.48006244251E+01  0.00000000000E+00 0. -1.
         22    1    4    4    0    0 -0.25263407729E+02 -0.19762627016E+02  0.18917786316E+02  0.37238203982E+02  0.00000000000E+00 0. -1.
<mgrwt>
<rscale>  0 0.88063287E+02</rscale>
<asrwt>0</asrwt>
<pdfrwt beam="1">  1        2 0.19952397E-01 0.88063287E+02</pdfrwt>
<pdfrwt beam="2">  1       -2 0.22998949E-02 0.88063287E+02</pdfrwt>
<totfact> 0.14636808E+05</totfact>
</mgrwt>
</event>
<event>
 7    1  0.3337990E-009  0.8659355E+02  0.7818608E-02  0.1311317E+00
          2   -1    0    0  501    0  0.00000000000E+00  0.00000000000E+00  0.11457727598E+02  0.11457727882E+02  0.25500000000E-02 0. -1.
         -2   -1    0    0    0  501 -0.00000000000E+00 -0.00000000000E+00 -0.16361102330E+03  0.16361102332E+03  0.25500000000E-02 0.  1.
         23    2    1    2    0    0  0.35527136788E-14  0.00000000000E+00 -0.15215329571E+03  0.17506875121E+03  0.86593546264E+02 0.  0.
    9000005    2    3    3    0    0 -0.25975254422E+02 -0.24114065817E+02 -0.30679715784E+02  0.48530090586E+02  0.12558770605E+02 0.  0.
         22    1    3    3    0    0  0.25975254422E+02  0.24114065817E+02 -0.12147357992E+03  0.12653866062E+03  0.00000000000E+00 0.  1.
         22    1    4    4    0    0 -0.74940649110E+01 -0.67089625801E+01 -0.20487699631E+01  0.10264923095E+02  0.00000000000E+00 0. -1.
         22    1    4    4    0    0 -0.18481189512E+02 -0.17405103237E+02 -0.28630945821E+02  0.38265167490E+02  0.00000000000E+00 0. -1.
<mgrwt>
<rscale>  0 0.86593546E+02</rscale>
<asrwt>0</asrwt>
<pdfrwt beam="1">  1        2 0.17627275E-02 0.86593546E+02</pdfrwt>
<pdfrwt beam="2">  1       -2 0.25170925E-01 0.86593546E+02</pdfrwt>
<totfact> 0.77076917E+04</totfact>
</mgrwt>
</event>
<event>
 6    1  0.3337990E-009  0.1494040E+03  0.7818608E-02  0.1201207E+00
         -2   -1    0    0    0  501 -0.00000000000E+00  0.00000000000E+00  0.23998918424E+02  0.23998918559E+02  0.25500000000E-02 0.  1.
          2   -1    0    0  501    0  0.00000000000E+00 -0.00000000000E+00 -0.23252652914E+03  0.23252652915E+03  0.25500000000E-02 0. -1.
    9000005    2    1    2    0    0  0.70062598952E+02  0.22688161610E+02 -0.87463856712E+02  0.11482169694E+03  0.10515484227E+02 0.  0.
         22    1    1    2    0    0 -0.70062598952E+02 -0.22688161610E+02 -0.12106375400E+03  0.14170375077E+03  0.00000000000E+00 0. -1.
         22    1    3    3    0    0  0.12785086390E+02  0.64047470562E+01 -0.22832052777E+02  0.26940338767E+02  0.00000000000E+00 0. -1.
         22    1    3    3    0    0  0.57277512562E+02  0.16283414554E+02 -0.64631803935E+02  0.87881358175E+02  0.00000000000E+00 0. -1.
<mgrwt>
<rscale>  0 0.14940395E+03</rscale>
<asrwt>0</asrwt>
<pdfrwt beam="2">  1        2 0.35773311E-01 0.14940395E+03</pdfrwt>
<pdfrwt beam="1">  1       -2 0.36921415E-02 0.14940395E+03</pdfrwt>
<totfact> 0.41662388E+04</totfact>
</mgrwt>
</event>
<event>
 7    1  0.3337990E-009  0.8954003E+02  0.7818608E-02  0.1303969E+00
         -2   -1    0    0    0  501 -0.00000000000E+00  0.00000000000E+00  0.69587141539E+02  0.69587141586E+02  0.25500000000E-02 0.  1.
          2   -1    0    0  501    0  0.00000000000E+00 -0.00000000000E+00 -0.28803515036E+02  0.28803515149E+02  0.25500000000E-02 0. -1.
         23    2    1    2    0    0  0.00000000000E+00  0.00000000000E+00  0.40783626503E+02  0.98390656735E+02  0.89540030947E+02 0.  0.
    9000005    2    3    3    0    0 -0.70444827147E+01  0.14141807544E+02 -0.24747711087E+02  0.30981668732E+02  0.98893445712E+01 0.  0.
         22    1    3    3    0    0  0.70444827147E+01 -0.14141807544E+02  0.65531337590E+02  0.67408988003E+02  0.00000000000E+00 0.  1.
         22    1    4    4    0    0  0.22568093883E+01  0.29754387417E+01 -0.28389191536E+01  0.46910431975E+01  0.00000000000E+00 0.  1.
         22    1    4    4    0    0 -0.93012921030E+01  0.11166368802E+02 -0.21908791933E+02  0.26290625534E+02  0.00000000000E+00 0.  1.
<mgrwt>
<rscale>  0 0.89540031E+02</rscale>
<asrwt>0</asrwt>
<pdfrwt beam="2">  1        2 0.44313100E-02 0.89540031E+02</pdfrwt>
<pdfrwt beam="1">  1       -2 0.10705714E-01 0.89540031E+02</pdfrwt>
<totfact> 0.92342790E+04</totfact>
</mgrwt>
</event>
<event>
 7    1  0.3337990E-009  0.9200904E+02  0.7818608E-02  0.1298058E+00
         -2   -1    0    0    0  501 -0.00000000000E+00  0.00000000000E+00  0.44693150355E+01  0.44693157630E+01  0.25500000000E-02 0.  1.
          2   -1    0    0  501    0  0.00000000000E+00 -0.00000000000E+00 -0.47354365311E+03  0.47354365312E+03  0.25500000000E-02 0. -1.
         23    2    1    2    0    0  0.00000000000E+00  0.00000000000E+00 -0.46907433807E+03  0.47801296888E+03  0.92009041823E+02 0.  0.
    9000005    2    3    3    0    0 -0.24433940601E+02 -0.29167744497E+02 -0.36318395162E+03  0.36549386510E+03  0.15343009418E+02 0.  0.
         22    1    3    3    0    0  0.24433940601E+02  0.29167744497E+02 -0.10589038646E+03  0.11251910378E+03  0.00000000000E+00 0.  1.
         22    1    4    4    0    0 -0.16056722949E+02 -0.93609921424E+01 -0.13027186136E+03  0.13159104980E+03  0.00000000000E+00 0.  1.
         22    1    4    4    0    0 -0.83772176518E+01 -0.19806752354E+02 -0.23291209026E+03  0.23390281529E+03  0.00000000000E+00 0.  1.
<mgrwt>
<rscale>  0 0.92009042E+02</rscale>
<asrwt>0</asrwt>
<pdfrwt beam="2">  1        2 0.72852830E-01 0.92009042E+02</pdfrwt>
<pdfrwt beam="1">  1       -2 0.68758736E-03 0.92009042E+02</pdfrwt>
<totfact> 0.20662849E+05</totfact>
</mgrwt>
</event>
<event>
 7    1  0.3337990E-009  0.9160284E+02  0.7818608E-02  0.1299016E+00
         -2   -1    0    0    0  501 -0.00000000000E+00  0.00000000000E+00  0.12170028122E+02  0.12170028389E+02  0.25500000000E-02 0.  1.
          2   -1    0    0  501    0  0.00000000000E+00 -0.00000000000E+00 -0.17237181463E+03  0.17237181465E+03  0.25500000000E-02 0. -1.
         23    2    1    2    0    0  0.00000000000E+00 -0.71054273576E-14 -0.16020178651E+03  0.18454184304E+03  0.91602835281E+02 0.  0.
    9000005    2    3    3    0    0 -0.45017652561E+01 -0.44816561105E+02 -0.87493878755E+02  0.99012725835E+02  0.10933938811E+02 0.  0.
         22    1    3    3    0    0  0.45017652561E+01  0.44816561105E+02 -0.72707907751E+02  0.85529117201E+02  0.00000000000E+00 0.  1.
         22    1    4    4    0    0 -0.68764881831E+00 -0.27455408818E+02 -0.63208679035E+02  0.68917410279E+02  0.00000000000E+00 0. -1.
         22    1    4    4    0    0 -0.38141164378E+01 -0.17361152287E+02 -0.24285199720E+02  0.30095315556E+02  0.00000000000E+00 0. -1.
<mgrwt>
<rscale>  0 0.91602835E+02</rscale>
<asrwt>0</asrwt>
<pdfrwt beam="2">  1        2 0.26518739E-01 0.91602835E+02</pdfrwt>
<pdfrwt beam="1">  1       -2 0.18723122E-02 0.91602835E+02</pdfrwt>
<totfact> 0.14484983E+05</totfact>
</mgrwt>
</event>
<event>
 7    1  0.3337990E-009  0.9154356E+02  0.7818608E-02  0.1299156E+00
          2   -1    0    0  501    0  0.00000000000E+00  0.00000000000E+00  0.47024255278E+03  0.47024255279E+03  0.25500000000E-02 0. -1.
         -2   -1    0    0    0  501 -0.00000000000E+00 -0.00000000000E+00 -0.44552665004E+01  0.44552672302E+01  0.25500000000E-02 0.  1.
         23    2    1    2    0    0  0.00000000000E+00  0.00000000000E+00  0.46578728628E+03  0.47469782002E+03  0.91543564871E+02 0.  0.
    9000005    2    3    3    0    0  0.11201403208E+02  0.37434426650E+02  0.35323273086E+03  0.35555363981E+03  0.10872943310E+02 0.  0.
         22    1    3    3    0    0 -0.11201403208E+02 -0.37434426650E+02  0.11255455542E+03  0.11914418021E+03  0.00000000000E+00 0.  1.
         22    1    4    4    0    0  0.11237077007E+02  0.32061960598E+02  0.32802767199E+03  0.32978234460E+03  0.00000000000E+00 0.  1.
         22    1    4    4    0    0 -0.35673799129E-01  0.53724660520E+01  0.25205058875E+02  0.25771295214E+02  0.00000000000E+00 0.  1.
<mgrwt>
<rscale>  0 0.91543565E+02</rscale>
<asrwt>0</asrwt>
<pdfrwt beam="1">  1        2 0.72345055E-01 0.91543565E+02</pdfrwt>
<pdfrwt beam="2">  1       -2 0.68542523E-03 0.91543565E+02</pdfrwt>
<totfact> 0.20893532E+05</totfact>
</mgrwt>
</event>
<event>
 7    1  0.3337990E-009  0.8756058E+02  0.7818608E-02  0.1308869E+00
          2   -1    0    0  501    0  0.00000000000E+00  0.00000000000E+00  0.22300696508E+02  0.22300696654E+02  0.25500000000E-02 0.  1.
         -2   -1    0    0    0  501 -0.00000000000E+00 -0.00000000000E+00 -0.85948598411E+02  0.85948598449E+02  0.25500000000E-02 0. -1.
         23    2    1    2    0    0 -0.35527136788E-14  0.35527136788E-14 -0.63647901903E+02  0.10824929510E+03  0.87560576023E+02 0.  0.
    9000005    2    3    3    0    0  0.28530529554E+02 -0.20835927099E+02 -0.75893264029E+00  0.36116435533E+02  0.74628387476E+01 0.  0.
         22    1    3    3    0    0 -0.28530529554E+02  0.20835927099E+02 -0.62888969263E+02  0.72132859569E+02  0.00000000000E+00 0. -1.
         22    1    4    4    0    0  0.20976062537E+02 -0.11970645701E+02 -0.27233432192E+01  0.24304488399E+02  0.00000000000E+00 0. -1.
         22    1    4    4    0    0  0.75544670167E+01 -0.88652813979E+01  0.19644105789E+01  0.11811947134E+02  0.00000000000E+00 0. -1.
<mgrwt>
<rscale>  0 0.87560576E+02</rscale>
<asrwt>0</asrwt>
<pdfrwt beam="1">  1        2 0.34308764E-02 0.87560576E+02</pdfrwt>
<pdfrwt beam="2">  1       -2 0.13222861E-01 0.87560576E+02</pdfrwt>
<totfact> 0.92147018E+04</totfact>
</mgrwt>
</event>
<event>
 7    1  0.3337990E-009  0.9222963E+02  0.7818608E-02  0.1297540E+00
          2   -1    0    0  501    0  0.00000000000E+00  0.00000000000E+00  0.19717581382E+02  0.19717581547E+02  0.25500000000E-02 0. -1.
         -2   -1    0    0    0  501 -0.00000000000E+00 -0.00000000000E+00 -0.10785177370E+03  0.10785177373E+03  0.25500000000E-02 0.  1.
         23    2    1    2    0    0  0.00000000000E+00 -0.22204460493E-15 -0.88134192320E+02  0.12756935528E+03  0.92229629461E+02 0.  0.
    9000005    2    3    3    0    0 -0.44433965494E+02 -0.14053087890E+01 -0.56839052904E+02  0.73202656526E+02  0.12312546653E+02 0.  0.
         22    1    3    3    0    0  0.44433965494E+02  0.14053087890E+01 -0.31295139416E+02  0.54366698754E+02  0.00000000000E+00 0.  1.
         22    1    4    4    0    0 -0.68691407145E+01 -0.45103513661E+01 -0.76050873629E+01  0.11196683321E+02  0.00000000000E+00 0.  1.
         22    1    4    4    0    0 -0.37564824779E+02  0.31050425771E+01 -0.49233965541E+02  0.62005973204E+02  0.00000000000E+00 0.  1.
<mgrwt>
<rscale>  0 0.92229629E+02</rscale>
<asrwt>0</asrwt>
<pdfrwt beam="1">  1        2 0.30334741E-02 0.92229629E+02</pdfrwt>
<pdfrwt beam="2">  1       -2 0.16592580E-01 0.92229629E+02</pdfrwt>
<totfact> 0.75792281E+04</totfact>
</mgrwt>
</event>
<event>
 7    1  0.3337990E-009  0.9313408E+02  0.7818608E-02  0.1295435E+00
         -2   -1    0    0    0  501 -0.00000000000E+00  0.00000000000E+00  0.34118582876E+03  0.34118582877E+03  0.25500000000E-02 0.  1.
          2   -1    0    0  501    0  0.00000000000E+00 -0.00000000000E+00 -0.63557417081E+01  0.63557422197E+01  0.25500000000E-02 0. -1.
         23    2    1    2    0    0  0.00000000000E+00  0.00000000000E+00  0.33483008706E+03  0.34754157099E+03  0.93134077386E+02 0.  0.
    9000005    2    3    3    0    0  0.10775331998E+02 -0.35100900343E+02  0.27284660212E+03  0.27549899060E+03  0.10307499708E+02 0.  0.
         22    1    3    3    0    0 -0.10775331998E+02  0.35100900343E+02  0.61983484941E+02  0.72042580395E+02  0.00000000000E+00 0. -1.
         22    1    4    4    0    0  0.94965871843E+01 -0.14513179197E+02  0.11195984837E+03  0.11329530081E+03  0.00000000000E+00 0. -1.
         22    1    4    4    0    0  0.12787448140E+01 -0.20587721147E+02  0.16088675375E+03  0.16220368979E+03  0.00000000000E+00 0. -1.
<mgrwt>
<rscale>  0 0.93134077E+02</rscale>
<asrwt>0</asrwt>
<pdfrwt beam="2">  1        2 0.97780651E-03 0.93134077E+02</pdfrwt>
<pdfrwt beam="1">  1       -2 0.52490125E-01 0.93134077E+02</pdfrwt>
<totfact> 0.44769309E+04</totfact>
</mgrwt>
</event>
<event>
 7    1  0.3337990E-009  0.9640318E+02  0.7818608E-02  0.1288047E+00
          2   -1    0    0  501    0  0.00000000000E+00  0.00000000000E+00  0.31344088819E+03  0.31344088820E+03  0.25500000000E-02 0. -1.
         -2   -1    0    0    0  501 -0.00000000000E+00 -0.00000000000E+00 -0.74125405890E+01  0.74125410277E+01  0.25500000000E-02 0.  1.
         23    2    1    2    0    0  0.00000000000E+00  0.00000000000E+00  0.30602834760E+03  0.32085342922E+03  0.96403182063E+02 0.  0.
    9000005    2    3    3    0    0 -0.98070853621E+01  0.11490157128E+02  0.30503248858E+03  0.30571426249E+03  0.13718183841E+02 0.  0.
         22    1    3    3    0    0  0.98070853621E+01 -0.11490157128E+02  0.99585901646E+00  0.15139166731E+02  0.00000000000E+00 0.  1.
         22    1    4    4    0    0  0.35071281317E+01  0.22187825961E+01  0.69237813974E+02  0.69362077736E+02  0.00000000000E+00 0.  1.
         22    1    4    4    0    0 -0.13314213494E+02  0.92713745320E+01  0.23579467461E+03  0.23635218476E+03  0.00000000000E+00 0.  1.
<mgrwt>
<rscale>  0 0.96403182E+02</rscale>
<asrwt>0</asrwt>
<pdfrwt beam="1">  1        2 0.48221665E-01 0.96403182E+02</pdfrwt>
<pdfrwt beam="2">  1       -2 0.11403911E-02 0.96403182E+02</pdfrwt>
<totfact> 0.15731212E+05</totfact>
</mgrwt>
</event>
<event>
 7    1  0.3337990E-009  0.9229636E+02  0.7818608E-02  0.1297384E+00
         -2   -1    0    0    0  501 -0.00000000000E+00  0.00000000000E+00  0.28011907053E+01  0.28011918660E+01  0.25500000000E-02 0.  1.
          2   -1    0    0  501    0  0.00000000000E+00 -0.00000000000E+00 -0.76026742535E+03  0.76026742535E+03  0.25500000000E-02 0. -1.
         23    2    1    2    0    0  0.71054273576E-14  0.16653345369E-15 -0.75746623464E+03  0.76306861722E+03  0.92296359406E+02 0.  0.
    9000005    2    3    3    0    0  0.39917009685E+02  0.73322685001E-01 -0.56727910221E+03  0.56873766657E+03  0.79737399193E+01 0.  0.
         22    1    3    3    0    0 -0.39917009685E+02 -0.73322685001E-01 -0.19018713243E+03  0.19433095065E+03  0.00000000000E+00 0. -1.
         22    1    4    4    0    0  0.15921719099E+02 -0.27946517765E+01 -0.26613559454E+03  0.26662607881E+03  0.00000000000E+00 0.  1.
         22    1    4    4    0    0  0.23995290587E+02  0.28679744615E+01 -0.30114350767E+03  0.30211158776E+03  0.00000000000E+00 0.  1.
<mgrwt>
<rscale>  0 0.92296359E+02</rscale>
<asrwt>0</asrwt>
<pdfrwt beam="2">  1        2 0.11696405E+00 0.92296359E+02</pdfrwt>
<pdfrwt beam="1">  1       -2 0.43095311E-03 0.92296359E+02</pdfrwt>
<totfact> 0.23377227E+05</totfact>
</mgrwt>
</event>
<event>
 7    1  0.3337990E-009  0.9338340E+02  0.7818608E-02  0.1294859E+00
          2   -1    0    0  501    0  0.00000000000E+00  0.00000000000E+00  0.19764445299E+03  0.19764445301E+03  0.25500000000E-02 0. -1.
         -2   -1    0    0    0  501 -0.00000000000E+00 -0.00000000000E+00 -0.11030487954E+02  0.11030488249E+02  0.25500000000E-02 0.  1.
         23    2    1    2    0    0  0.00000000000E+00  0.00000000000E+00  0.18661396504E+03  0.20867494126E+03  0.93383398745E+02 0.  0.
    9000005    2    3    3    0    0  0.37301065222E+02  0.26997002398E+02  0.10450146593E+03  0.11453318583E+03  0.87799014575E+01 0.  0.
         22    1    3    3    0    0 -0.37301065222E+02 -0.26997002398E+02  0.82112499109E+02  0.94141755428E+02  0.00000000000E+00 0.  1.
         22    1    4    4    0    0  0.31045684642E+02  0.21864129946E+02  0.76805970932E+02  0.85679821919E+02  0.00000000000E+00 0. -1.
         22    1    4    4    0    0  0.62553805796E+01  0.51328724521E+01  0.27695494996E+02  0.28853363909E+02  0.00000000000E+00 0. -1.
<mgrwt>
<rscale>  0 0.93383399E+02</rscale>
<asrwt>0</asrwt>
<pdfrwt beam="1">  1        2 0.30406836E-01 0.93383399E+02</pdfrwt>
<pdfrwt beam="2">  1       -2 0.16969983E-02 0.93383399E+02</pdfrwt>
<totfact> 0.14439237E+05</totfact>
</mgrwt>
</event>
<event>
 7    1  0.3337990E-009  0.9224865E+02  0.7818608E-02  0.1297496E+00
          2   -1    0    0  501    0  0.00000000000E+00  0.00000000000E+00  0.14756583419E+03  0.14756583421E+03  0.25500000000E-02 0. -1.
         -2   -1    0    0    0  501 -0.00000000000E+00 -0.00000000000E+00 -0.14416978303E+02  0.14416978529E+02  0.25500000000E-02 0.  1.
         23    2    1    2    0    0  0.00000000000E+00  0.00000000000E+00  0.13314885588E+03  0.16198281274E+03  0.92248652018E+02 0.  0.
    9000005    2    3    3    0    0  0.25338780994E+02  0.22963615519E+02  0.15297398479E+02  0.39270354233E+02  0.11780019584E+02 0.  0.
         22    1    3    3    0    0 -0.25338780994E+02 -0.22963615519E+02  0.11785145740E+03  0.12271245850E+03  0.00000000000E+00 0. -1.
         22    1    4    4    0    0  0.79077943719E+01  0.63885945137E+01 -0.10009034866E+01  0.10215143635E+02  0.00000000000E+00 0.  1.
         22    1    4    4    0    0  0.17430986622E+02  0.16575021005E+02  0.16298301966E+02  0.29055210598E+02  0.00000000000E+00 0.  1.
<mgrwt>
<rscale>  0 0.92248652E+02</rscale>
<asrwt>0</asrwt>
<pdfrwt beam="1">  1        2 0.22702435E-01 0.92248652E+02</pdfrwt>
<pdfrwt beam="2">  1       -2 0.22179967E-02 0.92248652E+02</pdfrwt>
<totfact> 0.13468527E+05</totfact>
</mgrwt>
</event>
<event>
 7    1  0.3337990E-009  0.9106319E+02  0.7818608E-02  0.1300297E+00
          2   -1    0    0  501    0  0.00000000000E+00  0.00000000000E+00  0.17545219476E+03  0.17545219477E+03  0.25500000000E-02 0. -1.
         -2   -1    0    0    0  501 -0.00000000000E+00 -0.00000000000E+00 -0.11815903209E+02  0.11815903484E+02  0.25500000000E-02 0.  1.
         23    2    1    2    0    0 -0.35527136788E-14  0.00000000000E+00  0.16363629155E+03  0.18726809826E+03  0.91063190776E+02 0.  0.
    9000005    2    3    3    0    0  0.29030519556E+02  0.18275882533E+02  0.14152944451E+03  0.14645766291E+03  0.15571910965E+02 0.  0.
         22    1    3    3    0    0 -0.29030519556E+02 -0.18275882533E+02  0.22106847032E+02  0.40810435353E+02  0.00000000000E+00 0.  1.
         22    1    4    4    0    0  0.19387758308E+01  0.85841689113E+01  0.37859711641E+02  0.38869069620E+02  0.00000000000E+00 0.  1.
         22    1    4    4    0    0  0.27091743725E+02  0.96917136213E+01  0.10366973287E+03  0.10758859329E+03  0.00000000000E+00 0.  1.
<mgrwt>
<rscale>  0 0.91063191E+02</rscale>
<asrwt>0</asrwt>
<pdfrwt beam="1">  1        2 0.26992644E-01 0.91063191E+02</pdfrwt>
<pdfrwt beam="2">  1       -2 0.18178314E-02 0.91063191E+02</pdfrwt>
<totfact> 0.14810260E+05</totfact>
</mgrwt>
</event>
<event>
 7    1  0.3337990E-009  0.9104536E+02  0.7818608E-02  0.1300340E+00
          2   -1    0    0  501    0  0.00000000000E+00  0.00000000000E+00  0.77441213930E+03  0.77441213930E+03  0.25500000000E-02 0. -1.
         -2   -1    0    0    0  501 -0.00000000000E+00 -0.00000000000E+00 -0.26759833577E+01  0.26759845727E+01  0.25500000000E-02 0.  1.
         23    2    1    2    0    0  0.00000000000E+00  0.00000000000E+00  0.77173615594E+03  0.77708812387E+03  0.91045361672E+02 0.  0.
    9000005    2    3    3    0    0  0.11167886548E+02  0.10013099287E+02  0.75212269409E+03  0.75239659227E+03  0.13678495783E+02 0.  0.
         22    1    3    3    0    0 -0.11167886548E+02 -0.10013099287E+02  0.19613461853E+02  0.24691531608E+02  0.00000000000E+00 0.  1.
         22    1    4    4    0    0  0.13462430918E+02  0.47875393811E+01  0.47383056265E+03  0.47404594680E+03  0.00000000000E+00 0.  1.
         22    1    4    4    0    0 -0.22945443694E+01  0.52255599055E+01  0.27829213144E+03  0.27835064547E+03  0.00000000000E+00 0.  1.
<mgrwt>
<rscale>  0 0.91045362E+02</rscale>
<asrwt>0</asrwt>
<pdfrwt beam="1">  1        2 0.11914043E+00 0.91045362E+02</pdfrwt>
<pdfrwt beam="2">  1       -2 0.41168951E-03 0.91045362E+02</pdfrwt>
<totfact> 0.24321483E+05</totfact>
</mgrwt>
</event>
<event>
 7    1  0.3337990E-009  0.9994987E+02  0.7818608E-02  0.1280401E+00
         -2   -1    0    0    0  501 -0.00000000000E+00  0.00000000000E+00  0.66925264208E+02  0.66925264256E+02  0.25500000000E-02 0.  1.
          2   -1    0    0  501    0  0.00000000000E+00 -0.00000000000E+00 -0.37317658469E+02  0.37317658556E+02  0.25500000000E-02 0. -1.
         23    2    1    2    0    0  0.00000000000E+00  0.44408920985E-15  0.29607605739E+02  0.10424292281E+03  0.99949870629E+02 0.  0.
    9000005    2    3    3    0    0 -0.48993160521E+02 -0.22910175126E+01  0.14613308107E+02  0.52955424330E+02  0.13606970752E+02 0.  0.
         22    1    3    3    0    0  0.48993160521E+02  0.22910175126E+01  0.14994297632E+02  0.51287498482E+02  0.00000000000E+00 0.  1.
         22    1    4    4    0    0 -0.10547356073E+02 -0.46847803000E+01 -0.55981474603E+00  0.11554535003E+02  0.00000000000E+00 0. -1.
         22    1    4    4    0    0 -0.38445804448E+02  0.23937627873E+01  0.15173122853E+02  0.41400889327E+02  0.00000000000E+00 0. -1.
<mgrwt>
<rscale>  0 0.99949871E+02</rscale>
<asrwt>0</asrwt>
<pdfrwt beam="2">  1        2 0.57411782E-02 0.99949871E+02</pdfrwt>
<pdfrwt beam="1">  1       -2 0.10296195E-01 0.99949871E+02</pdfrwt>
<totfact> 0.71473973E+04</totfact>
</mgrwt>
</event>
<event>
 7    1  0.3337990E-009  0.8984476E+02  0.7818608E-02  0.1303228E+00
          2   -1    0    0  501    0  0.00000000000E+00  0.00000000000E+00  0.23416072860E+03  0.23416072861E+03  0.25500000000E-02 0. -1.
         -2   -1    0    0    0  501 -0.00000000000E+00 -0.00000000000E+00 -0.86180989464E+01  0.86180993237E+01  0.25500000000E-02 0.  1.
         23    2    1    2    0    0  0.00000000000E+00  0.00000000000E+00  0.22554262965E+03  0.24277882794E+03  0.89844763362E+02 0.  0.
    9000005    2    3    3    0    0 -0.43783082548E+02 -0.84173973053E+00  0.88654246021E+02  0.99056538724E+02  0.59123331498E+01 0.  0.
         22    1    3    3    0    0  0.43783082548E+02  0.84173973053E+00  0.13688838363E+03  0.14372228921E+03  0.00000000000E+00 0. -1.
         22    1    4    4    0    0 -0.17312873612E+02 -0.25690114869E+01  0.39423772049E+02  0.43134315983E+02  0.00000000000E+00 0.  1.
         22    1    4    4    0    0 -0.26470208936E+02  0.17272717564E+01  0.49230473972E+02  0.55922222741E+02  0.00000000000E+00 0.  1.
<mgrwt>
<rscale>  0 0.89844763E+02</rscale>
<asrwt>0</asrwt>
<pdfrwt beam="1">  1        2 0.36024729E-01 0.89844763E+02</pdfrwt>
<pdfrwt beam="2">  1       -2 0.13258613E-02 0.89844763E+02</pdfrwt>
<totfact> 0.17043938E+05</totfact>
</mgrwt>
</event>
<event>
 7    1  0.3337990E-009  0.8787108E+02  0.7818608E-02  0.1308091E+00
         -2   -1    0    0    0  501 -0.00000000000E+00  0.00000000000E+00  0.19157576045E+03  0.19157576046E+03  0.25500000000E-02 0.  1.
          2   -1    0    0  501    0  0.00000000000E+00 -0.00000000000E+00 -0.10076074324E+02  0.10076074647E+02  0.25500000000E-02 0. -1.
         23    2    1    2    0    0  0.00000000000E+00 -0.35527136788E-14  0.18149968612E+03  0.20165183511E+03  0.87871079093E+02 0.  0.
    9000005    2    3    3    0    0 -0.36206529399E+02  0.23666445507E+02  0.77996185027E+02  0.89473458616E+02  0.71471325633E+01 0.  0.
         22    1    3    3    0    0  0.36206529399E+02 -0.23666445507E+02  0.10350350109E+03  0.11217837649E+03  0.00000000000E+00 0. -1.
         22    1    4    4    0    0 -0.13580707906E+02  0.12567803638E+02  0.36547605681E+02  0.40964775069E+02  0.00000000000E+00 0.  1.
         22    1    4    4    0    0 -0.22625821493E+02  0.11098641869E+02  0.41448579346E+02  0.48508683546E+02  0.00000000000E+00 0.  1.
<mgrwt>
<rscale>  0 0.87871079E+02</rscale>
<asrwt>0</asrwt>
<pdfrwt beam="2">  1        2 0.15501654E-02 0.87871079E+02</pdfrwt>
<pdfrwt beam="1">  1       -2 0.29473192E-01 0.87871079E+02</pdfrwt>
<totfact> 0.69737311E+04</totfact>
</mgrwt>
</event>
<event>
 7    1  0.3337990E-009  0.9001635E+02  0.7818608E-02  0.1302812E+00
         -2   -1    0    0    0  501 -0.00000000000E+00  0.00000000000E+00  0.32575839523E+03  0.32575839524E+03  0.25500000000E-02 0. -1.
          2   -1    0    0  501    0  0.00000000000E+00 -0.00000000000E+00 -0.62185220691E+01  0.62185225919E+01  0.25500000000E-02 0.  1.
         23    2    1    2    0    0  0.00000000000E+00  0.00000000000E+00  0.31953987316E+03  0.33197691783E+03  0.90016350923E+02 0.  0.
    9000005    2    3    3    0    0 -0.40424266705E+02  0.12401393590E+02  0.11775085189E+03  0.12580532666E+03  0.13183368054E+02 0.  0.
         22    1    3    3    0    0  0.40424266705E+02 -0.12401393590E+02  0.20178902127E+03  0.20617159117E+03  0.00000000000E+00 0. -1.
         22    1    4    4    0    0 -0.25471791404E+02  0.13796741960E+01  0.74041171123E+02  0.78312263915E+02  0.00000000000E+00 0. -1.
         22    1    4    4    0    0 -0.14952475301E+02  0.11021719394E+02  0.43709680770E+02  0.47493062747E+02  0.00000000000E+00 0. -1.
<mgrwt>
<rscale>  0 0.90016351E+02</rscale>
<asrwt>0</asrwt>
<pdfrwt beam="2">  1        2 0.95669574E-03 0.90016351E+02</pdfrwt>
<pdfrwt beam="1">  1       -2 0.50116676E-01 0.90016351E+02</pdfrwt>
<totfact> 0.50262659E+04</totfact>
</mgrwt>
</event>
<event>
 7    1  0.3337990E-009  0.9465300E+02  0.7818608E-02  0.1291960E+00
          2   -1    0    0  501    0  0.00000000000E+00  0.00000000000E+00  0.11902080496E+02  0.11902080769E+02  0.25500000000E-02 0. -1.
         -2   -1    0    0    0  501 -0.00000000000E+00 -0.00000000000E+00 -0.18818538066E+03  0.18818538068E+03  0.25500000000E-02 0.  1.
         23    2    1    2    0    0  0.71054273576E-14  0.00000000000E+00 -0.17628330017E+03  0.20008746145E+03  0.94652999484E+02 0.  0.
    9000005    2    3    3    0    0 -0.35963071641E+02  0.20004776465E+02 -0.42872301573E+02  0.60473607734E+02  0.11202204555E+02 0.  0.
         22    1    3    3    0    0  0.35963071641E+02 -0.20004776465E+02 -0.13341099860E+03  0.13961385372E+03  0.00000000000E+00 0.  1.
         22    1    4    4    0    0 -0.10390482655E+01  0.19988840285E+01  0.87712613873E-01  0.22545181658E+01  0.00000000000E+00 0.  1.
         22    1    4    4    0    0 -0.34924023376E+02  0.18005892437E+02 -0.42960014187E+02  0.58219089568E+02  0.00000000000E+00 0.  1.
<mgrwt>
<rscale>  0 0.94652999E+02</rscale>
<asrwt>0</asrwt>
<pdfrwt beam="1">  1        2 0.18310895E-02 0.94652999E+02</pdfrwt>
<pdfrwt beam="2">  1       -2 0.28951595E-01 0.94652999E+02</pdfrwt>
<totfact> 0.58127421E+04</totfact>
</mgrwt>
</event>
<event>
 7    1  0.3337990E-009  0.9202553E+02  0.7818608E-02  0.1298019E+00
         -2   -1    0    0    0  501 -0.00000000000E+00  0.00000000000E+00  0.29591866190E+02  0.29591866300E+02  0.25500000000E-02 0.  1.
          2   -1    0    0  501    0  0.00000000000E+00 -0.00000000000E+00 -0.71545827239E+02  0.71545827285E+02  0.25500000000E-02 0. -1.
         23    2    1    2    0    0  0.00000000000E+00 -0.35527136788E-14 -0.41953961049E+02  0.10113769358E+03  0.92025530239E+02 0.  0.
    9000005    2    3    3    0    0  0.79247117198E+01  0.31737198386E+02 -0.56176207677E+02  0.65468055006E+02  0.77620293795E+01 0.  0.
         22    1    3    3    0    0 -0.79247117198E+01 -0.31737198386E+02  0.14222246627E+02  0.35669638579E+02  0.00000000000E+00 0.  1.
         22    1    4    4    0    0  0.64063690371E+00  0.14571838400E+02 -0.29651210418E+02  0.33044563384E+02  0.00000000000E+00 0. -1.
         22    1    4    4    0    0  0.72840748161E+01  0.17165359985E+02 -0.26524997259E+02  0.32423491621E+02  0.00000000000E+00 0. -1.
<mgrwt>
<rscale>  0 0.92025530E+02</rscale>
<asrwt>0</asrwt>
<pdfrwt beam="2">  1        2 0.11007050E-01 0.92025530E+02</pdfrwt>
<pdfrwt beam="1">  1       -2 0.45525948E-02 0.92025530E+02</pdfrwt>
<totfact> 0.10844312E+05</totfact>
</mgrwt>
</event>
<event>
 7    1  0.3337990E-009  0.9626940E+02  0.7818608E-02  0.1288342E+00
         -2   -1    0    0    0  501 -0.00000000000E+00  0.00000000000E+00  0.81760459561E+01  0.81760463538E+01  0.25500000000E-02 0.  1.
          2   -1    0    0  501    0  0.00000000000E+00 -0.00000000000E+00 -0.28338262842E+03  0.28338262843E+03  0.25500000000E-02 0. -1.
         23    2    1    2    0    0 -0.71054273576E-14  0.00000000000E+00 -0.27520658247E+03  0.29155867479E+03  0.96269402258E+02 0.  0.
    9000005    2    3    3    0    0  0.43631237395E+02 -0.17083527416E+02 -0.15809181907E+03  0.16541827844E+03  0.13215589254E+02 0.  0.
         22    1    3    3    0    0 -0.43631237395E+02  0.17083527416E+02 -0.11711476340E+03  0.12614039635E+03  0.00000000000E+00 0. -1.
         22    1    4    4    0    0  0.13097719086E+01 -0.42536433359E+01 -0.13499029945E+02  0.14213824029E+02  0.00000000000E+00 0. -1.
         22    1    4    4    0    0  0.42321465487E+02 -0.12829884080E+02 -0.14459278912E+03  0.15120445441E+03  0.00000000000E+00 0. -1.
<mgrwt>
<rscale>  0 0.96269402E+02</rscale>
<asrwt>0</asrwt>
<pdfrwt beam="2">  1        2 0.43597320E-01 0.96269402E+02</pdfrwt>
<pdfrwt beam="1">  1       -2 0.12578535E-02 0.96269402E+02</pdfrwt>
<totfact> 0.15203696E+05</totfact>
</mgrwt>
</event>
<event>
 7    1  0.3337990E-009  0.9302446E+02  0.7818608E-02  0.1295689E+00
          2   -1    0    0  501    0  0.00000000000E+00  0.00000000000E+00  0.28577497378E+02  0.28577497492E+02  0.25500000000E-02 0. -1.
         -2   -1    0    0    0  501 -0.00000000000E+00 -0.00000000000E+00 -0.75702488924E+02  0.75702488967E+02  0.25500000000E-02 0.  1.
         23    2    1    2    0    0  0.00000000000E+00 -0.35527136788E-14 -0.47124991546E+02  0.10427998646E+03  0.93024463168E+02 0.  0.
    9000005    2    3    3    0    0 -0.39006300811E+02 -0.23452498294E+02 -0.15691068469E+02  0.48966310942E+02  0.89430866238E+01 0.  0.
         22    1    3    3    0    0  0.39006300811E+02  0.23452498294E+02 -0.31433923077E+02  0.55313675517E+02  0.00000000000E+00 0.  1.
         22    1    4    4    0    0 -0.25555351538E+02 -0.17800032403E+02 -0.14422475356E+02  0.34320911136E+02  0.00000000000E+00 0.  1.
         22    1    4    4    0    0 -0.13450949273E+02 -0.56524658908E+01 -0.12685931127E+01  0.14645399806E+02  0.00000000000E+00 0.  1.
<mgrwt>
<rscale>  0 0.93024463E+02</rscale>
<asrwt>0</asrwt>
<pdfrwt beam="1">  1        2 0.43965381E-02 0.93024463E+02</pdfrwt>
<pdfrwt beam="2">  1       -2 0.11646537E-01 0.93024463E+02</pdfrwt>
<totfact> 0.82234085E+04</totfact>
</mgrwt>
</event>
<event>
 7    1  0.3337990E-009  0.8877068E+02  0.7818608E-02  0.1305856E+00
         -2   -1    0    0    0  501 -0.00000000000E+00  0.00000000000E+00  0.25907435520E+02  0.25907435646E+02  0.25500000000E-02 0.  1.
          2   -1    0    0  501    0  0.00000000000E+00 -0.00000000000E+00 -0.76042202287E+02  0.76042202330E+02  0.25500000000E-02 0. -1.
         23    2    1    2    0    0  0.00000000000E+00 -0.71054273576E-14 -0.50134766767E+02  0.10194963798E+03  0.88770681222E+02 0.  0.
    9000005    2    3    3    0    0 -0.17683217119E+02 -0.38704380725E+02 -0.32778143482E+02  0.55993380221E+02  0.15815393877E+02 0.  0.
         22    1    3    3    0    0  0.17683217119E+02  0.38704380725E+02 -0.17356623285E+02  0.45956257755E+02  0.00000000000E+00 0.  1.
         22    1    4    4    0    0 -0.64164657569E+01 -0.23080439278E+02 -0.94797346604E+01  0.25763211743E+02  0.00000000000E+00 0. -1.
         22    1    4    4    0    0 -0.11266751363E+02 -0.15623941446E+02 -0.23298408822E+02  0.30230168478E+02  0.00000000000E+00 0. -1.
<mgrwt>
<rscale>  0 0.88770681E+02</rscale>
<asrwt>0</asrwt>
<pdfrwt beam="2">  1        2 0.11698800E-01 0.88770681E+02</pdfrwt>
<pdfrwt beam="1">  1       -2 0.39857594E-02 0.88770681E+02</pdfrwt>
<totfact> 0.12194151E+05</totfact>
</mgrwt>
</event>
<event>
 7    1  0.3337990E-009  0.9131141E+02  0.7818608E-02  0.1299707E+00
          2   -1    0    0  501    0  0.00000000000E+00  0.00000000000E+00  0.85321234952E+02  0.85321234990E+02  0.25500000000E-02 0. -1.
         -2   -1    0    0    0  501 -0.00000000000E+00 -0.00000000000E+00 -0.24430536996E+02  0.24430537129E+02  0.25500000000E-02 0.  1.
         23    2    1    2    0    0  0.00000000000E+00  0.00000000000E+00  0.60890697956E+02  0.10975177212E+03  0.91311414324E+02 0.  0.
    9000005    2    3    3    0    0  0.10068167115E+02 -0.90761985497E+01  0.82277283876E+02  0.84431198934E+02  0.13241243986E+02 0.  0.
         22    1    3    3    0    0 -0.10068167115E+02  0.90761985497E+01 -0.21386585919E+02  0.25320573186E+02  0.00000000000E+00 0.  1.
         22    1    4    4    0    0  0.40346393567E+01 -0.11095325217E+02  0.63957424965E+02  0.65037964026E+02  0.00000000000E+00 0. -1.
         22    1    4    4    0    0  0.60335277581E+01  0.20191266678E+01  0.18319858910E+02  0.19393234908E+02  0.00000000000E+00 0. -1.
<mgrwt>
<rscale>  0 0.91311414E+02</rscale>
<asrwt>0</asrwt>
<pdfrwt beam="1">  1        2 0.13126344E-01 0.91311414E+02</pdfrwt>
<pdfrwt beam="2">  1       -2 0.37585441E-02 0.91311414E+02</pdfrwt>
<totfact> 0.11653244E+05</totfact>
</mgrwt>
</event>
<event>
 7    1  0.3337990E-009  0.9098092E+02  0.7818608E-02  0.1300493E+00
          2   -1    0    0  501    0  0.00000000000E+00  0.00000000000E+00  0.54029307804E+02  0.54029307864E+02  0.25500000000E-02 0. -1.
         -2   -1    0    0    0  501 -0.00000000000E+00 -0.00000000000E+00 -0.38301102769E+02  0.38301102854E+02  0.25500000000E-02 0.  1.
         23    2    1    2    0    0  0.00000000000E+00  0.00000000000E+00  0.15728205035E+02  0.92330410718E+02  0.90980922779E+02 0.  0.
    9000005    2    3    3    0    0  0.39498845983E+02 -0.18207425735E+02  0.21173848281E+02  0.48497498241E+02  0.34650106401E+01 0.  0.
         22    1    3    3    0    0 -0.39498845983E+02  0.18207425735E+02 -0.54456432453E+01  0.43832912477E+02  0.00000000000E+00 0.  1.
         22    1    4    4    0    0  0.83382428425E+01 -0.53841404976E+01  0.52480865156E+01  0.11227540901E+02  0.00000000000E+00 0.  1.
         22    1    4    4    0    0  0.31160603140E+02 -0.12823285238E+02  0.15925761765E+02  0.37269957340E+02  0.00000000000E+00 0.  1.
<mgrwt>
<rscale>  0 0.90980923E+02</rscale>
<asrwt>0</asrwt>
<pdfrwt beam="1">  1        2 0.83122011E-02 0.90980923E+02</pdfrwt>
<pdfrwt beam="2">  1       -2 0.58924774E-02 0.90980923E+02</pdfrwt>
<totfact> 0.10378642E+05</totfact>
</mgrwt>
</event>
<event>
 7    1  0.3337990E-009  0.9180233E+02  0.7818608E-02  0.1298545E+00
         -2   -1    0    0    0  501 -0.00000000000E+00  0.00000000000E+00  0.19352167441E+02  0.19352167609E+02  0.25500000000E-02 0. -1.
          2   -1    0    0  501    0  0.00000000000E+00 -0.00000000000E+00 -0.10887240130E+03  0.10887240133E+03  0.25500000000E-02 0.  1.
         23    2    1    2    0    0  0.00000000000E+00  0.00000000000E+00 -0.89520233862E+02  0.12822456894E+03  0.91802330087E+02 0.  0.
    9000005    2    3    3    0    0  0.27455242365E+02 -0.85295235038E+01  0.47962687192E+01  0.29623626939E+02  0.52926340242E+01 0.  0.
         22    1    3    3    0    0 -0.27455242365E+02  0.85295235038E+01 -0.94316502582E+02  0.98600942002E+02  0.00000000000E+00 0.  1.
         22    1    4    4    0    0  0.11222258010E+02 -0.11380164612E+01  0.31490337556E+01  0.11711130172E+02  0.00000000000E+00 0.  1.
         22    1    4    4    0    0  0.16232984354E+02 -0.73915070427E+01  0.16472349636E+01  0.17912496767E+02  0.00000000000E+00 0.  1.
<mgrwt>
<rscale>  0 0.91802330E+02</rscale>
<asrwt>0</asrwt>
<pdfrwt beam="2">  1        2 0.16749600E-01 0.91802330E+02</pdfrwt>
<pdfrwt beam="1">  1       -2 0.29772566E-02 0.91802330E+02</pdfrwt>
<totfact> 0.12358849E+05</totfact>
</mgrwt>
</event>
<event>
 7    1  0.3337990E-009  0.8882858E+02  0.7818608E-02  0.1305714E+00
         -2   -1    0    0    0  501 -0.00000000000E+00  0.00000000000E+00  0.10195635826E+02  0.10195636145E+02  0.25500000000E-02 0. -1.
          2   -1    0    0  501    0  0.00000000000E+00 -0.00000000000E+00 -0.19347778047E+03  0.19347778048E+03  0.25500000000E-02 0.  1.
         23    2    1    2    0    0  0.00000000000E+00  0.00000000000E+00 -0.18328214464E+03  0.20367341663E+03  0.88828577028E+02 0.  0.
    9000005    2    3    3    0    0 -0.22075137049E+02 -0.17760655794E+02 -0.16897014183E+03  0.17193092154E+03  0.14372904424E+02 0.  0.
         22    1    3    3    0    0  0.22075137049E+02  0.17760655794E+02 -0.14312002811E+02  0.31742495088E+02  0.00000000000E+00 0. -1.
         22    1    4    4    0    0 -0.15413475159E+02 -0.10375570703E+02 -0.14152113558E+03  0.14273562800E+03  0.00000000000E+00 0.  1.
         22    1    4    4    0    0 -0.66616618898E+01 -0.73850850911E+01 -0.27449006248E+02  0.29195293541E+02  0.00000000000E+00 0.  1.
<mgrwt>
<rscale>  0 0.88828577E+02</rscale>
<asrwt>0</asrwt>
<pdfrwt beam="2">  1        2 0.29765810E-01 0.88828577E+02</pdfrwt>
<pdfrwt beam="1">  1       -2 0.15685595E-02 0.88828577E+02</pdfrwt>
<totfact> 0.16394811E+05</totfact>
</mgrwt>
</event>
<event>
 7    1  0.3337990E-009  0.9105619E+02  0.7818608E-02  0.1300314E+00
         -2   -1    0    0    0  501 -0.00000000000E+00  0.00000000000E+00  0.42596855825E+01  0.42596863458E+01  0.25500000000E-02 0. -1.
          2   -1    0    0  501    0  0.00000000000E+00 -0.00000000000E+00 -0.48661037937E+03  0.48661037937E+03  0.25500000000E-02 0.  1.
         23    2    1    2    0    0 -0.17763568394E-14  0.00000000000E+00 -0.48235069379E+03  0.49087006572E+03  0.91056189384E+02 0.  0.
    9000005    2    3    3    0    0 -0.10952586438E+02 -0.10201306235E+02 -0.47292249624E+03  0.47318061385E+03  0.44922237426E+01 0.  0.
         22    1    3    3    0    0  0.10952586438E+02  0.10201306235E+02 -0.94281975479E+01  0.17689451874E+02  0.00000000000E+00 0. -1.
         22    1    4    4    0    0 -0.24618335289E+01 -0.32952582583E+01 -0.79956047477E+02  0.80061781640E+02  0.00000000000E+00 0. -1.
         22    1    4    4    0    0 -0.84907529090E+01 -0.69060479772E+01 -0.39296644876E+03  0.39311883221E+03  0.00000000000E+00 0. -1.
<mgrwt>
<rscale>  0 0.91056189E+02</rscale>
<asrwt>0</asrwt>
<pdfrwt beam="2">  1        2 0.74863091E-01 0.91056189E+02</pdfrwt>
<pdfrwt beam="1">  1       -2 0.65533669E-03 0.91056189E+02</pdfrwt>
<totfact> 0.21434017E+05</totfact>
</mgrwt>
</event>
<event>
 7    1  0.3337990E-009  0.8995696E+02  0.7818608E-02  0.1302956E+00
          2   -1    0    0  501    0  0.00000000000E+00  0.00000000000E+00  0.53788689013E+03  0.53788689013E+03  0.25500000000E-02 0.  1.
         -2   -1    0    0    0  501 -0.00000000000E+00 -0.00000000000E+00 -0.37611320585E+01  0.37611329230E+01  0.25500000000E-02 0. -1.
         23    2    1    2    0    0  0.00000000000E+00  0.00000000000E+00  0.53412575807E+03  0.54164802306E+03  0.89956964423E+02 0.  0.
    9000005    2    3    3    0    0 -0.11276599548E+02 -0.43063930326E+02  0.28440960807E+03  0.28799507243E+03  0.84067108665E+01 0.  0.
         22    1    3    3    0    0  0.11276599548E+02  0.43063930326E+02  0.24971615000E+03  0.25365295063E+03  0.00000000000E+00 0. -1.
         22    1    4    4    0    0  0.21368371598E+00 -0.89534607439E+01  0.43600392141E+02  0.44510721347E+02  0.00000000000E+00 0. -1.
         22    1    4    4    0    0 -0.11490283263E+02 -0.34110469582E+02  0.24080921593E+03  0.24348435108E+03  0.00000000000E+00 0. -1.
<mgrwt>
<rscale>  0 0.89956964E+02</rscale>
<asrwt>0</asrwt>
<pdfrwt beam="1">  1        2 0.82751823E-01 0.89956964E+02</pdfrwt>
<pdfrwt beam="2">  1       -2 0.57863582E-03 0.89956964E+02</pdfrwt>
<totfact> 0.22854450E+05</totfact>
</mgrwt>
</event>
<event>
 7    1  0.3337990E-009  0.9205165E+02  0.7818608E-02  0.1297958E+00
         -2   -1    0    0    0  501 -0.00000000000E+00  0.00000000000E+00  0.74540586772E+02  0.74540586816E+02  0.25500000000E-02 0.  1.
          2   -1    0    0  501    0  0.00000000000E+00 -0.00000000000E+00 -0.28419100856E+02  0.28419100970E+02  0.25500000000E-02 0. -1.
         23    2    1    2    0    0  0.00000000000E+00  0.00000000000E+00  0.46121485916E+02  0.10295968779E+03  0.92051647708E+02 0.  0.
    9000005    2    3    3    0    0 -0.39166452572E+01  0.41685382351E+02  0.59821719253E+01  0.44958172810E+02  0.15245973556E+02 0.  0.
         22    1    3    3    0    0  0.39166452572E+01 -0.41685382351E+02  0.40139313991E+02  0.58001514976E+02  0.00000000000E+00 0.  1.
         22    1    4    4    0    0  0.41848866833E+01  0.27674867063E+02  0.66187668392E+01  0.28761425868E+02  0.00000000000E+00 0. -1.
         22    1    4    4    0    0 -0.81015319406E+01  0.14010515288E+02 -0.63659491389E+00  0.16196746942E+02  0.00000000000E+00 0. -1.
<mgrwt>
<rscale>  0 0.92051648E+02</rscale>
<asrwt>0</asrwt>
<pdfrwt beam="2">  1        2 0.43721694E-02 0.92051648E+02</pdfrwt>
<pdfrwt beam="1">  1       -2 0.11467782E-01 0.92051648E+02</pdfrwt>
<totfact> 0.84736135E+04</totfact>
</mgrwt>
</event>
<event>
 7    1  0.3337990E-009  0.9023769E+02  0.7818608E-02  0.1302277E+00
         -2   -1    0    0    0  501 -0.00000000000E+00  0.00000000000E+00  0.11428551128E+01  0.11428579576E+01  0.25500000000E-02 0.  1.
          2   -1    0    0  501    0  0.00000000000E+00 -0.00000000000E+00 -0.17812472712E+04  0.17812472712E+04  0.25500000000E-02 0. -1.
         23    2    1    2    0    0  0.00000000000E+00  0.00000000000E+00 -0.17801044161E+04  0.17823901292E+04  0.90237688090E+02 0.  0.
    9000005    2    3    3    0    0 -0.17332713487E+02  0.95028996584E+01 -0.16895384059E+04  0.16896920695E+04  0.11337404808E+02 0.  0.
         22    1    3    3    0    0  0.17332713487E+02 -0.95028996584E+01 -0.90566010206E+02  0.92698059653E+02  0.00000000000E+00 0.  1.
         22    1    4    4    0    0 -0.13363273069E+02  0.75999224364E+01 -0.15656640725E+04  0.15657395453E+04  0.00000000000E+00 0.  1.
         22    1    4    4    0    0 -0.39694404178E+01  0.19029772220E+01 -0.12387433340E+03  0.12395252420E+03  0.00000000000E+00 0.  1.
<mgrwt>
<rscale>  0 0.90237688E+02</rscale>
<asrwt>0</asrwt>
<pdfrwt beam="2">  1        2 0.27403582E+00 0.90237688E+02</pdfrwt>
<pdfrwt beam="1">  1       -2 0.17582551E-03 0.90237688E+02</pdfrwt>
<totfact> 0.22185059E+05</totfact>
</mgrwt>
</event>
<event>
 7    1  0.3337990E-009  0.9108326E+02  0.7818608E-02  0.1300249E+00
          2   -1    0    0  501    0  0.00000000000E+00  0.00000000000E+00  0.14226861696E+03  0.14226861698E+03  0.25500000000E-02 0. -1.
         -2   -1    0    0    0  501 -0.00000000000E+00 -0.00000000000E+00 -0.14578337001E+02  0.14578337224E+02  0.25500000000E-02 0.  1.
         23    2    1    2    0    0  0.00000000000E+00  0.00000000000E+00  0.12769027996E+03  0.15684695421E+03  0.91083255587E+02 0.  0.
    9000005    2    3    3    0    0 -0.45399300559E+02 -0.24901032222E+01  0.65644556278E+02  0.79925117696E+02  0.33940483933E+01 0.  0.
         22    1    3    3    0    0  0.45399300559E+02  0.24901032222E+01  0.62045723682E+02  0.76921836513E+02  0.00000000000E+00 0. -1.
         22    1    4    4    0    0 -0.36119803279E+02 -0.30122254126E+01  0.50622380671E+02  0.62260253096E+02  0.00000000000E+00 0.  1.
         22    1    4    4    0    0 -0.92794972800E+01  0.52212219040E+00  0.15022175608E+02  0.17664864600E+02  0.00000000000E+00 0.  1.
<mgrwt>
<rscale>  0 0.91083256E+02</rscale>
<asrwt>0</asrwt>
<pdfrwt beam="1">  1        2 0.21887480E-01 0.91083256E+02</pdfrwt>
<pdfrwt beam="2">  1       -2 0.22428211E-02 0.91083256E+02</pdfrwt>
<totfact> 0.13771551E+05</totfact>
</mgrwt>
</event>
<event>
 7    1  0.3337990E-009  0.9199311E+02  0.7818608E-02  0.1298096E+00
          2   -1    0    0  501    0  0.00000000000E+00  0.00000000000E+00  0.24468805617E+02  0.24468805750E+02  0.25500000000E-02 0.  1.
         -2   -1    0    0    0  501 -0.00000000000E+00 -0.00000000000E+00 -0.86464497009E+02  0.86464497047E+02  0.25500000000E-02 0. -1.
         23    2    1    2    0    0  0.00000000000E+00  0.00000000000E+00 -0.61995691392E+02  0.11093330280E+03  0.91993107993E+02 0.  0.
    9000005    2    3    3    0    0 -0.17018911466E+02  0.22146596223E+02  0.10697881912E+02  0.33058591423E+02  0.14082283825E+02 0.  0.
         22    1    3    3    0    0  0.17018911466E+02 -0.22146596223E+02 -0.72693573304E+02  0.77874711373E+02  0.00000000000E+00 0.  1.
         22    1    4    4    0    0 -0.46805177652E+00  0.11569579323E+02  0.29935072299E+01  0.11959737611E+02  0.00000000000E+00 0.  1.
         22    1    4    4    0    0 -0.16550859689E+02  0.10577016899E+02  0.77043746824E+01  0.21098853812E+02  0.00000000000E+00 0.  1.
<mgrwt>
<rscale>  0 0.91993108E+02</rscale>
<asrwt>0</asrwt>
<pdfrwt beam="1">  1        2 0.37644317E-02 0.91993108E+02</pdfrwt>
<pdfrwt beam="2">  1       -2 0.13302230E-01 0.91993108E+02</pdfrwt>
<totfact> 0.81437141E+04</totfact>
</mgrwt>
</event>
<event>
 7    1  0.3337990E-009  0.9898027E+02  0.7818608E-02  0.1282455E+00
          2   -1    0    0  501    0  0.00000000000E+00  0.00000000000E+00  0.70325162400E+03  0.70325162401E+03  0.25500000000E-02 0.  1.
         -2   -1    0    0    0  501 -0.00000000000E+00 -0.00000000000E+00 -0.34827836935E+01  0.34827846270E+01  0.25500000000E-02 0. -1.
         23    2    1    2    0    0  0.71054273576E-14  0.88817841970E-15  0.69976884031E+03  0.70673440863E+03  0.98980273187E+02 0.  0.
    9000005    2    3    3    0    0 -0.39812935368E+02  0.44207343746E+01  0.55426390046E+03  0.55581621809E+03  0.10889638637E+02 0.  0.
         22    1    3    3    0    0  0.39812935368E+02 -0.44207343746E+01  0.14550493985E+03  0.15091819054E+03  0.00000000000E+00 0. -1.
         22    1    4    4    0    0 -0.15661087163E+02  0.60001194559E+01  0.27198507009E+03  0.27250165034E+03  0.00000000000E+00 0.  1.
         22    1    4    4    0    0 -0.24151848205E+02 -0.15793850813E+01  0.28227883037E+03  0.28331456776E+03  0.00000000000E+00 0.  1.
<mgrwt>
<rscale>  0 0.98980273E+02</rscale>
<asrwt>0</asrwt>
<pdfrwt beam="1">  1        2 0.10819259E+00 0.98980273E+02</pdfrwt>
<pdfrwt beam="2">  1       -2 0.53581279E-03 0.98980273E+02</pdfrwt>
<totfact> 0.19098616E+05</totfact>
</mgrwt>
</event>
<event>
 7    1  0.3337990E-009  0.9186272E+02  0.7818608E-02  0.1298403E+00
         -2   -1    0    0    0  501 -0.00000000000E+00  0.00000000000E+00  0.18303089907E+02  0.18303090085E+02  0.25500000000E-02 0. -1.
          2   -1    0    0  501    0  0.00000000000E+00 -0.00000000000E+00 -0.11526412782E+03  0.11526412785E+03  0.25500000000E-02 0.  1.
         23    2    1    2    0    0  0.00000000000E+00  0.35527136788E-14 -0.96961037916E+02  0.13356721794E+03  0.91862717320E+02 0.  0.
    9000005    2    3    3    0    0 -0.85699744256E+01 -0.27210970192E+02 -0.99780758130E+02  0.10489960236E+03  0.15292008464E+02 0.  0.
         22    1    3    3    0    0  0.85699744256E+01  0.27210970192E+02  0.28197202145E+01  0.28667615571E+02  0.00000000000E+00 0. -1.
         22    1    4    4    0    0 -0.10678122195E+02 -0.28093771037E+02 -0.91524637246E+02  0.96332971965E+02  0.00000000000E+00 0. -1.
         22    1    4    4    0    0  0.21081477691E+01  0.88280084501E+00 -0.82561208843E+01  0.85666303996E+01  0.00000000000E+00 0. -1.
<mgrwt>
<rscale>  0 0.91862717E+02</rscale>
<asrwt>0</asrwt>
<pdfrwt beam="2">  1        2 0.17732942E-01 0.91862717E+02</pdfrwt>
<pdfrwt beam="1">  1       -2 0.28158601E-02 0.91862717E+02</pdfrwt>
<totfact> 0.12560211E+05</totfact>
</mgrwt>
</event>
<event>
 7    1  0.3337990E-009  0.9557541E+02  0.7818608E-02  0.1289885E+00
         -2   -1    0    0    0  501 -0.00000000000E+00  0.00000000000E+00  0.63439618480E+01  0.63439623605E+01  0.25500000000E-02 0.  1.
          2   -1    0    0  501    0  0.00000000000E+00 -0.00000000000E+00 -0.35997456184E+03  0.35997456185E+03  0.25500000000E-02 0. -1.
         23    2    1    2    0    0  0.71054273576E-14  0.00000000000E+00 -0.35363060000E+03  0.36631852421E+03  0.95575414875E+02 0.  0.
    9000005    2    3    3    0    0 -0.46017787160E+02  0.10668176981E+02 -0.20282137821E+03  0.20828413520E+03  0.37845451155E+01 0.  0.
         22    1    3    3    0    0  0.46017787160E+02 -0.10668176981E+02 -0.15080922178E+03  0.15803438901E+03  0.00000000000E+00 0.  1.
         22    1    4    4    0    0 -0.71284305424E+01  0.27095255031E+00 -0.30119304882E+02  0.30952551815E+02  0.00000000000E+00 0.  1.
         22    1    4    4    0    0 -0.38889356618E+02  0.10397224431E+02 -0.17270207333E+03  0.17733158339E+03  0.00000000000E+00 0.  1.
<mgrwt>
<rscale>  0 0.95575415E+02</rscale>
<asrwt>0</asrwt>
<pdfrwt beam="2">  1        2 0.55380686E-01 0.95575415E+02</pdfrwt>
<pdfrwt beam="1">  1       -2 0.97599445E-03 0.95575415E+02</pdfrwt>
<totfact> 0.16946471E+05</totfact>
</mgrwt>
</event>
<event>
 7    1  0.3337990E-009  0.9146046E+02  0.7818608E-02  0.1299353E+00
         -2   -1    0    0    0  501 -0.00000000000E+00  0.00000000000E+00  0.10422827974E+02  0.10422828286E+02  0.25500000000E-02 0.  1.
          2   -1    0    0  501    0  0.00000000000E+00 -0.00000000000E+00 -0.20064168973E+03  0.20064168975E+03  0.25500000000E-02 0. -1.
         23    2    1    2    0    0  0.00000000000E+00  0.00000000000E+00 -0.19021886176E+03  0.21106451803E+03  0.91460458147E+02 0.  0.
    9000005    2    3    3    0    0 -0.18630093844E+02 -0.40139341083E+02 -0.86442826137E+02  0.98247353256E+02  0.14897420317E+02 0.  0.
         22    1    3    3    0    0  0.18630093844E+02  0.40139341083E+02 -0.10377603562E+03  0.11281716478E+03  0.00000000000E+00 0. -1.
         22    1    4    4    0    0 -0.13787468804E+02 -0.32727661197E+02 -0.54101119495E+02  0.64715726327E+02  0.00000000000E+00 0.  1.
         22    1    4    4    0    0 -0.48426250401E+01 -0.74116798866E+01 -0.32341706641E+02  0.33531626929E+02  0.00000000000E+00 0.  1.
<mgrwt>
<rscale>  0 0.91460458E+02</rscale>
<asrwt>0</asrwt>
<pdfrwt beam="2">  1        2 0.30867949E-01 0.91460458E+02</pdfrwt>
<pdfrwt beam="1">  1       -2 0.16035122E-02 0.91460458E+02</pdfrwt>
<totfact> 0.15356827E+05</totfact>
</mgrwt>
</event>
<event>
 7    1  0.3337990E-009  0.9490452E+02  0.7818608E-02  0.1291391E+00
          2   -1    0    0  501    0  0.00000000000E+00  0.00000000000E+00  0.11893526729E+02  0.11893527002E+02  0.25500000000E-02 0. -1.
         -2   -1    0    0    0  501 -0.00000000000E+00 -0.00000000000E+00 -0.18932290750E+03  0.18932290752E+03  0.25500000000E-02 0.  1.
         23    2    1    2    0    0 -0.17763568394E-14  0.00000000000E+00 -0.17742938077E+03  0.20121643452E+03  0.94904522335E+02 0.  0.
    9000005    2    3    3    0    0  0.15577789382E+02 -0.43028538208E+02 -0.73830859302E+02  0.87961075824E+02  0.13857577442E+02 0.  0.
         22    1    3    3    0    0 -0.15577789382E+02  0.43028538208E+02 -0.10359852147E+03  0.11325535869E+03  0.00000000000E+00 0. -1.
         22    1    4    4    0    0  0.54673477319E+01 -0.25139408439E+02 -0.51785599692E+02  0.57824130632E+02  0.00000000000E+00 0. -1.
         22    1    4    4    0    0  0.10110441650E+02 -0.17889129769E+02 -0.22045259610E+02  0.30136945192E+02  0.00000000000E+00 0. -1.
<mgrwt>
<rscale>  0 0.94904522E+02</rscale>
<asrwt>0</asrwt>
<pdfrwt beam="1">  1        2 0.18297735E-02 0.94904522E+02</pdfrwt>
<pdfrwt beam="2">  1       -2 0.29126599E-01 0.94904522E+02</pdfrwt>
<totfact> 0.57588693E+04</totfact>
</mgrwt>
</event>
<event>
 7    1  0.4671247E-009  0.9429987E+02  0.7818608E-02  0.1292761E+00
         -2   -1    0    0    0  501 -0.00000000000E+00  0.00000000000E+00  0.16940467490E+01  0.16940486682E+01  0.25500000000E-02 0.  1.
          2   -1    0    0  501    0  0.00000000000E+00 -0.00000000000E+00 -0.13123104995E+04  0.13123104995E+04  0.25500000000E-02 0. -1.
         23    2    1    2    0    0 -0.17763568394E-14  0.00000000000E+00 -0.13106164528E+04  0.13140045482E+04  0.94299874824E+02 0.  0.
    9000005    2    3    3    0    0 -0.99814356577E+01 -0.14286156532E+02 -0.12642964931E+04  0.12645145291E+04  0.15736851807E+02 0.  0.
         22    1    3    3    0    0  0.99814356577E+01  0.14286156532E+02 -0.46319959706E+02  0.49490019129E+02  0.00000000000E+00 0.  1.
         22    1    4    4    0    0 -0.22439338190E+01 -0.10347318030E+02 -0.31415644144E+03  0.31433480865E+03  0.00000000000E+00 0. -1.
         22    1    4    4    0    0 -0.77375018387E+01 -0.39388385025E+01 -0.95014005162E+03  0.95017972041E+03  0.00000000000E+00 0. -1.
<mgrwt>
<rscale>  0 0.94299875E+02</rscale>
<asrwt>0</asrwt>
<pdfrwt beam="2">  1        2 0.20189311E+00 0.94299875E+02</pdfrwt>
<pdfrwt beam="1">  1       -2 0.26062377E-03 0.94299875E+02</pdfrwt>
<totfact> 0.22439042E+05</totfact>
</mgrwt>
</event>
<event>
 7    1  0.3337990E-009  0.9311859E+02  0.7818608E-02  0.1295471E+00
         -2   -1    0    0    0  501 -0.00000000000E+00  0.00000000000E+00  0.39798159266E+01  0.39798167435E+01  0.25500000000E-02 0.  1.
          2   -1    0    0  501    0  0.00000000000E+00 -0.00000000000E+00 -0.54469045895E+03  0.54469045895E+03  0.25500000000E-02 0. -1.
         23    2    1    2    0    0  0.00000000000E+00  0.00000000000E+00 -0.54071064302E+03  0.54867027570E+03  0.93118590826E+02 0.  0.
    9000005    2    3    3    0    0 -0.19175278108E+02  0.39962093721E+02 -0.34730953866E+03  0.35025493507E+03  0.94838640327E+01 0.  0.
         22    1    3    3    0    0  0.19175278108E+02 -0.39962093721E+02 -0.19340110436E+03  0.19841534062E+03  0.00000000000E+00 0.  1.
         22    1    4    4    0    0 -0.15164545398E+02  0.20758504889E+02 -0.19526343288E+03  0.19694843787E+03  0.00000000000E+00 0.  1.
         22    1    4    4    0    0 -0.40107327101E+01  0.19203588832E+02 -0.15204610578E+03  0.15330649720E+03  0.00000000000E+00 0.  1.
<mgrwt>
<rscale>  0 0.93118591E+02</rscale>
<asrwt>0</asrwt>
<pdfrwt beam="2">  1        2 0.83798473E-01 0.93118591E+02</pdfrwt>
<pdfrwt beam="1">  1       -2 0.61227987E-03 0.93118591E+02</pdfrwt>
<totfact> 0.20939893E+05</totfact>
</mgrwt>
</event>
<event>
 7    1  0.3337990E-009  0.8991479E+02  0.7818608E-02  0.1303058E+00
         -2   -1    0    0    0  501 -0.00000000000E+00  0.00000000000E+00  0.98414929085E+02  0.98414929118E+02  0.25500000000E-02 0.  1.
          2   -1    0    0  501    0  0.00000000000E+00 -0.00000000000E+00 -0.20537202967E+02  0.20537203126E+02  0.25500000000E-02 0. -1.
         23    2    1    2    0    0  0.00000000000E+00  0.00000000000E+00  0.77877726118E+02  0.11895213224E+03  0.89914790441E+02 0.  0.
    9000005    2    3    3    0    0 -0.26505883113E+02 -0.12763904411E+02 -0.54585481280E+01  0.30575587275E+02  0.62921931107E+01 0.  0.
         22    1    3    3    0    0  0.26505883113E+02  0.12763904411E+02  0.83336274246E+02  0.88376544969E+02  0.00000000000E+00 0.  1.
         22    1    4    4    0    0 -0.61015527759E+01 -0.28198801396E+01 -0.40189528988E+01  0.78315166272E+01  0.00000000000E+00 0.  1.
         22    1    4    4    0    0 -0.20404330337E+02 -0.99440242710E+01 -0.14395952291E+01  0.22744070648E+02  0.00000000000E+00 0.  1.
<mgrwt>
<rscale>  0 0.89914790E+02</rscale>
<asrwt>0</asrwt>
<pdfrwt beam="2">  1        2 0.31595697E-02 0.89914790E+02</pdfrwt>
<pdfrwt beam="1">  1       -2 0.15140758E-01 0.89914790E+02</pdfrwt>
<totfact> 0.83012030E+04</totfact>
</mgrwt>
</event>
<event>
 7    1  0.3337990E-009  0.9130997E+02  0.7818608E-02  0.1299710E+00
         -2   -1    0    0    0  501 -0.00000000000E+00  0.00000000000E+00  0.31871681739E+01  0.31871691941E+01  0.25500000000E-02 0.  1.
          2   -1    0    0  501    0  0.00000000000E+00 -0.00000000000E+00 -0.65399043579E+03  0.65399043579E+03  0.25500000000E-02 0. -1.
         23    2    1    2    0    0  0.00000000000E+00  0.00000000000E+00 -0.65080326762E+03  0.65717760499E+03  0.91309974041E+02 0.  0.
    9000005    2    3    3    0    0 -0.84242632285E+01 -0.26224909663E+02 -0.58667444820E+03  0.58738348219E+03  0.85867851855E+01 0.  0.
         22    1    3    3    0    0  0.84242632285E+01  0.26224909663E+02 -0.64128819419E+02  0.69794122803E+02  0.00000000000E+00 0.  1.
         22    1    4    4    0    0 -0.28880882434E+01 -0.19160231929E+02 -0.34647291156E+03  0.34701431380E+03  0.00000000000E+00 0.  1.
         22    1    4    4    0    0 -0.55361749851E+01 -0.70646777339E+01 -0.24020153664E+03  0.24036916838E+03  0.00000000000E+00 0.  1.
<mgrwt>
<rscale>  0 0.91309974E+02</rscale>
<asrwt>0</asrwt>
<pdfrwt beam="2">  1        2 0.10061381E+00 0.91309974E+02</pdfrwt>
<pdfrwt beam="1">  1       -2 0.49033416E-03 0.91309974E+02</pdfrwt>
<totfact> 0.23232609E+05</totfact>
</mgrwt>
</event>
<event>
 7    1  0.3337990E-009  0.9101457E+02  0.7818608E-02  0.1300413E+00
         -2   -1    0    0    0  501 -0.00000000000E+00  0.00000000000E+00  0.49138563403E+01  0.49138570020E+01  0.25500000000E-02 0.  1.
          2   -1    0    0  501    0  0.00000000000E+00 -0.00000000000E+00 -0.42144350157E+03  0.42144350158E+03  0.25500000000E-02 0. -1.
         23    2    1    2    0    0  0.00000000000E+00  0.00000000000E+00 -0.41652964523E+03  0.42635735858E+03  0.91014569492E+02 0.  0.
    9000005    2    3    3    0    0 -0.33706981000E+02 -0.28768498752E+02 -0.21977548711E+03  0.22467447427E+03  0.14613950960E+02 0.  0.
         22    1    3    3    0    0  0.33706981000E+02  0.28768498752E+02 -0.19675415812E+03  0.20168288431E+03  0.00000000000E+00 0. -1.
         22    1    4    4    0    0 -0.25833703931E+02 -0.15851515749E+02 -0.12051637317E+03  0.12426925208E+03  0.00000000000E+00 0.  1.
         22    1    4    4    0    0 -0.78732770689E+01 -0.12916983003E+02 -0.99259113944E+02  0.10040522219E+03  0.00000000000E+00 0.  1.
<mgrwt>
<rscale>  0 0.91014569E+02</rscale>
<asrwt>0</asrwt>
<pdfrwt beam="2">  1        2 0.64837433E-01 0.91014569E+02</pdfrwt>
<pdfrwt beam="1">  1       -2 0.75597829E-03 0.91014569E+02</pdfrwt>
<totfact> 0.20431989E+05</totfact>
</mgrwt>
</event>
<event>
 7    1  0.3337990E-009  0.1133735E+03  0.7818608E-02  0.1254447E+00
         -2   -1    0    0    0  501 -0.00000000000E+00  0.00000000000E+00  0.72349726613E+01  0.72349731107E+01  0.25500000000E-02 0.  1.
          2   -1    0    0  501    0  0.00000000000E+00 -0.00000000000E+00 -0.44414673774E+03  0.44414673774E+03  0.25500000000E-02 0. -1.
         23    2    1    2    0    0  0.00000000000E+00  0.00000000000E+00 -0.43691176508E+03  0.45138171086E+03  0.11337353498E+03 0.  0.
    9000005    2    3    3    0    0  0.24628455406E+02  0.47561867876E+02 -0.14967689916E+03  0.15919587908E+03  0.84535012149E+01 0.  0.
         22    1    3    3    0    0 -0.24628455406E+02 -0.47561867876E+02 -0.28723486591E+03  0.29218583177E+03  0.00000000000E+00 0. -1.
         22    1    4    4    0    0  0.17856739583E+02  0.29403415329E+02 -0.85652985320E+02  0.92303076199E+02  0.00000000000E+00 0. -1.
         22    1    4    4    0    0  0.67717158235E+01  0.18158452548E+02 -0.64023913841E+02  0.66892802884E+02  0.00000000000E+00 0. -1.
<mgrwt>
<rscale>  0 0.11337353E+03</rscale>
<asrwt>0</asrwt>
<pdfrwt beam="2">  1        2 0.68330246E-01 0.11337353E+03</pdfrwt>
<pdfrwt beam="1">  1       -2 0.11130731E-02 0.11337353E+03</pdfrwt>
<totfact> 0.11545267E+05</totfact>
</mgrwt>
</event>
<event>
 7    1  0.3337990E-009  0.8989352E+02  0.7818608E-02  0.1303110E+00
          2   -1    0    0  501    0  0.00000000000E+00  0.00000000000E+00  0.15756470100E+03  0.15756470102E+03  0.25500000000E-02 0. -1.
         -2   -1    0    0    0  501 -0.00000000000E+00 -0.00000000000E+00 -0.12821470189E+02  0.12821470443E+02  0.25500000000E-02 0.  1.
         23    2    1    2    0    0  0.00000000000E+00  0.17763568394E-14  0.14474323081E+03  0.17038617146E+03  0.89893517900E+02 0.  0.
    9000005    2    3    3    0    0  0.20381166092E+02  0.15921075129E+02  0.61338793142E+01  0.29384664781E+02  0.12528427048E+02 0.  0.
         22    1    3    3    0    0 -0.20381166092E+02 -0.15921075129E+02  0.13860935150E+03  0.14100150668E+03  0.00000000000E+00 0. -1.
         22    1    4    4    0    0  0.16668596057E+02  0.17930395560E+02  0.57365715673E+01  0.25144570642E+02  0.00000000000E+00 0.  1.
         22    1    4    4    0    0  0.37125700352E+01 -0.20093204303E+01  0.39730774693E+00  0.42400941385E+01  0.00000000000E+00 0.  1.
<mgrwt>
<rscale>  0 0.89893518E+02</rscale>
<asrwt>0</asrwt>
<pdfrwt beam="1">  1        2 0.24240723E-01 0.89893518E+02</pdfrwt>
<pdfrwt beam="2">  1       -2 0.19725339E-02 0.89893518E+02</pdfrwt>
<totfact> 0.14774213E+05</totfact>
</mgrwt>
</event>
<event>
 7    1  0.3337990E-009  0.9659425E+02  0.7818608E-02  0.1287625E+00
          2   -1    0    0  501    0  0.00000000000E+00  0.00000000000E+00  0.74208333657E+03  0.74208333658E+03  0.25500000000E-02 0. -1.
         -2   -1    0    0    0  501 -0.00000000000E+00 -0.00000000000E+00 -0.31433286226E+01  0.31433296570E+01  0.25500000000E-02 0.  1.
         23    2    1    2    0    0  0.71054273576E-14  0.00000000000E+00  0.73894000795E+03  0.74522666623E+03  0.96594247846E+02 0.  0.
    9000005    2    3    3    0    0 -0.38350092715E+02 -0.20371166310E+02  0.52312559858E+03  0.52508677135E+03  0.13038846889E+02 0.  0.
         22    1    3    3    0    0  0.38350092715E+02  0.20371166310E+02  0.21581440937E+03  0.22013989488E+03  0.00000000000E+00 0. -1.
         22    1    4    4    0    0 -0.38723628886E+02 -0.17874280053E+02  0.50263412435E+03  0.50444035553E+03  0.00000000000E+00 0. -1.
         22    1    4    4    0    0  0.37353617037E+00 -0.24968862574E+01  0.20491474229E+02  0.20646415823E+02  0.00000000000E+00 0. -1.
<mgrwt>
<rscale>  0 0.96594248E+02</rscale>
<asrwt>0</asrwt>
<pdfrwt beam="1">  1        2 0.11416665E+00 0.96594248E+02</pdfrwt>
<pdfrwt beam="2">  1       -2 0.48358915E-03 0.96594248E+02</pdfrwt>
<totfact> 0.20622045E+05</totfact>
</mgrwt>
</event>
<event>
 7    1  0.3337990E-009  0.1068714E+03  0.7818608E-02  0.1266476E+00
          2   -1    0    0  501    0  0.00000000000E+00  0.00000000000E+00  0.10019988666E+03  0.10019988669E+03  0.25500000000E-02 0. -1.
         -2   -1    0    0    0  501 -0.00000000000E+00 -0.00000000000E+00 -0.28496801480E+02  0.28496801594E+02  0.25500000000E-02 0.  1.
         23    2    1    2    0    0  0.35527136788E-14  0.00000000000E+00  0.71703085180E+02  0.12869668829E+03  0.10687144217E+03 0.  0.
    9000005    2    3    3    0    0 -0.19414425949E+02  0.84128330341E+01 -0.22964008096E+02  0.31693831401E+02  0.54274843571E+01 0.  0.
         22    1    3    3    0    0  0.19414425949E+02 -0.84128330341E+01  0.94667093276E+02  0.97002856886E+02  0.00000000000E+00 0. -1.
         22    1    4    4    0    0 -0.18152211107E-01  0.10191755740E+01 -0.60795133617E+00  0.11868669600E+01  0.00000000000E+00 0. -1.
         22    1    4    4    0    0 -0.19396273738E+02  0.73936574600E+01 -0.22356056760E+02  0.30506964441E+02  0.00000000000E+00 0. -1.
<mgrwt>
<rscale>  0 0.10687144E+03</rscale>
<asrwt>0</asrwt>
<pdfrwt beam="1">  1        2 0.15415367E-01 0.10687144E+03</pdfrwt>
<pdfrwt beam="2">  1       -2 0.43841233E-02 0.10687144E+03</pdfrwt>
<totfact> 0.78841620E+04</totfact>
</mgrwt>
</event>
<event>
 7    1  0.3337990E-009  0.8606576E+02  0.7818608E-02  0.1312669E+00
          2   -1    0    0  501    0  0.00000000000E+00  0.00000000000E+00  0.34190008693E+03  0.34190008694E+03  0.25500000000E-02 0.  1.
         -2   -1    0    0    0  501 -0.00000000000E+00 -0.00000000000E+00 -0.54162865397E+01  0.54162871400E+01  0.25500000000E-02 0. -1.
         23    2    1    2    0    0  0.00000000000E+00  0.00000000000E+00  0.33648380039E+03  0.34731637408E+03  0.86065764266E+02 0.  0.
    9000005    2    3    3    0    0  0.66151500819E+01 -0.15125576237E+02  0.32841577655E+03  0.32894149243E+03  0.85463375656E+01 0.  0.
         22    1    3    3    0    0 -0.66151500819E+01  0.15125576237E+02  0.80680238425E+01  0.18374881655E+02  0.00000000000E+00 0. -1.
         22    1    4    4    0    0  0.43921595895E+01 -0.45260704899E+01  0.65549045139E+02  0.65851755471E+02  0.00000000000E+00 0.  1.
         22    1    4    4    0    0  0.22229904923E+01 -0.10599505747E+02  0.26286673141E+03  0.26308973696E+03  0.00000000000E+00 0.  1.
<mgrwt>
<rscale>  0 0.86065764E+02</rscale>
<asrwt>0</asrwt>
<pdfrwt beam="1">  1        2 0.52600010E-01 0.86065764E+02</pdfrwt>
<pdfrwt beam="2">  1       -2 0.83327495E-03 0.86065764E+02</pdfrwt>
<totfact> 0.21974534E+05</totfact>
</mgrwt>
</event>
<event>
 7    1  0.3337990E-009  0.9407214E+02  0.7818608E-02  0.1293280E+00
          2   -1    0    0  501    0  0.00000000000E+00  0.00000000000E+00  0.28368642091E+03  0.28368642092E+03  0.25500000000E-02 0. -1.
         -2   -1    0    0    0  501 -0.00000000000E+00 -0.00000000000E+00 -0.77987229802E+01  0.77987233971E+01  0.25500000000E-02 0.  1.
         23    2    1    2    0    0  0.00000000000E+00  0.00000000000E+00  0.27588769793E+03  0.29148514431E+03  0.94072139814E+02 0.  0.
    9000005    2    3    3    0    0  0.43322210475E+02 -0.15365256362E+02  0.15428261690E+03  0.16148244913E+03  0.12670851451E+02 0.  0.
         22    1    3    3    0    0 -0.43322210475E+02  0.15365256362E+02  0.12160508102E+03  0.13000269518E+03  0.00000000000E+00 0.  1.
         22    1    4    4    0    0  0.53900835484E+01  0.22008223171E+01  0.21580466955E+02  0.22352028399E+02  0.00000000000E+00 0.  1.
         22    1    4    4    0    0  0.37932126927E+02 -0.17566078679E+02  0.13270214995E+03  0.13913042074E+03  0.00000000000E+00 0.  1.
<mgrwt>
<rscale>  0 0.94072140E+02</rscale>
<asrwt>0</asrwt>
<pdfrwt beam="1">  1        2 0.43644068E-01 0.94072140E+02</pdfrwt>
<pdfrwt beam="2">  1       -2 0.11998035E-02 0.94072140E+02</pdfrwt>
<totfact> 0.16182633E+05</totfact>
</mgrwt>
</event>
<event>
 7    1  0.3337990E-009  0.9034818E+02  0.7818608E-02  0.1302011E+00
          2   -1    0    0  501    0  0.00000000000E+00  0.00000000000E+00  0.11645366108E+04  0.11645366108E+04  0.25500000000E-02 0. -1.
         -2   -1    0    0    0  501 -0.00000000000E+00 -0.00000000000E+00 -0.17523683615E+01  0.17523702169E+01  0.25500000000E-02 0.  1.
         23    2    1    2    0    0 -0.44408920985E-15  0.00000000000E+00  0.11627842425E+04  0.11662889811E+04  0.90348175327E+02 0.  0.
    9000005    2    3    3    0    0  0.27329696905E+01 -0.21366401246E+02  0.10925508703E+04  0.10928266180E+04  0.11773720163E+02 0.  0.
         22    1    3    3    0    0 -0.27329696905E+01  0.21366401246E+02  0.70233372144E+02  0.73462363073E+02  0.00000000000E+00 0.  1.
         22    1    4    4    0    0 -0.25576339007E+00  0.12014350354E+01  0.13329505718E+03  0.13330071692E+03  0.00000000000E+00 0.  1.
         22    1    4    4    0    0  0.29887330806E+01 -0.22567836281E+02  0.95925581315E+03  0.95952590107E+03  0.00000000000E+00 0.  1.
<mgrwt>
<rscale>  0 0.90348175E+02</rscale>
<asrwt>0</asrwt>
<pdfrwt beam="1">  1        2 0.17916016E+00 0.90348175E+02</pdfrwt>
<pdfrwt beam="2">  1       -2 0.26959425E-03 0.90348175E+02</pdfrwt>
<totfact> 0.25546294E+05</totfact>
</mgrwt>
</event>
<event>
 7    1  0.3337990E-009  0.9259895E+02  0.7818608E-02  0.1296677E+00
          2   -1    0    0  501    0  0.00000000000E+00  0.00000000000E+00  0.27355263521E+03  0.27355263522E+03  0.25500000000E-02 0. -1.
         -2   -1    0    0    0  501 -0.00000000000E+00 -0.00000000000E+00 -0.78363037609E+01  0.78363041758E+01  0.25500000000E-02 0.  1.
         23    2    1    2    0    0  0.00000000000E+00  0.00000000000E+00  0.26571633145E+03  0.28138893940E+03  0.92598954727E+02 0.  0.
    9000005    2    3    3    0    0 -0.37889866435E+02 -0.14726400082E+02  0.67529758958E+02  0.79076244903E+02  0.63462843670E+01 0.  0.
         22    1    3    3    0    0  0.37889866435E+02  0.14726400082E+02  0.19818657249E+03  0.20231269449E+03  0.00000000000E+00 0. -1.
         22    1    4    4    0    0 -0.11343560174E+02 -0.17873538330E+01  0.21801997417E+02  0.24641389622E+02  0.00000000000E+00 0. -1.
         22    1    4    4    0    0 -0.26546306261E+02 -0.12939046249E+02  0.45727761541E+02  0.54434855281E+02  0.00000000000E+00 0. -1.
<mgrwt>
<rscale>  0 0.92598955E+02</rscale>
<asrwt>0</asrwt>
<pdfrwt beam="1">  1        2 0.42085020E-01 0.92598955E+02</pdfrwt>
<pdfrwt beam="2">  1       -2 0.12055852E-02 0.92598955E+02</pdfrwt>
<totfact> 0.16653614E+05</totfact>
</mgrwt>
</event>
<event>
 7    1  0.3337990E-009  0.7412382E+02  0.7818608E-02  0.1346606E+00
          2   -1    0    0  501    0  0.00000000000E+00  0.00000000000E+00  0.49398685650E+02  0.49398685716E+02  0.25500000000E-02 0. -1.
         -2   -1    0    0    0  501 -0.00000000000E+00 -0.00000000000E+00 -0.27806110797E+02  0.27806110913E+02  0.25500000000E-02 0.  1.
         23    2    1    2    0    0  0.00000000000E+00 -0.17763568394E-14  0.21592574854E+02  0.77204796629E+02  0.74123824333E+02 0.  0.
    9000005    2    3    3    0    0  0.28732507345E+02 -0.15348385535E+02 -0.63910899950E+01  0.34260467374E+02  0.84737050055E+01 0.  0.
         22    1    3    3    0    0 -0.28732507345E+02  0.15348385535E+02  0.27983664849E+02  0.42944329255E+02  0.00000000000E+00 0. -1.
         22    1    4    4    0    0  0.16331563368E+01 -0.12316579049E+01 -0.28386269598E+01  0.34988546457E+01  0.00000000000E+00 0.  1.
         22    1    4    4    0    0  0.27099351008E+02 -0.14116727630E+02 -0.35524630352E+01  0.30761612728E+02  0.00000000000E+00 0.  1.
<mgrwt>
<rscale>  0 0.74123824E+02</rscale>
<asrwt>0</asrwt>
<pdfrwt beam="1">  1        2 0.75997978E-02 0.74123824E+02</pdfrwt>
<pdfrwt beam="2">  1       -2 0.42778632E-02 0.74123824E+02</pdfrwt>
<totfact> 0.17983628E+05</totfact>
</mgrwt>
</event>
<event>
 7    1  0.3337990E-009  0.9199802E+02  0.7818608E-02  0.1298084E+00
         -2   -1    0    0    0  501 -0.00000000000E+00  0.00000000000E+00  0.77122664457E+01  0.77122668673E+01  0.25500000000E-02 0.  1.
          2   -1    0    0  501    0  0.00000000000E+00 -0.00000000000E+00 -0.27435629495E+03  0.27435629496E+03  0.25500000000E-02 0. -1.
         23    2    1    2    0    0  0.35527136788E-14 -0.71054273576E-14 -0.26664402850E+03  0.28206856183E+03  0.91998019736E+02 0.  0.
    9000005    2    3    3    0    0 -0.25251027360E+02  0.35731338821E+02 -0.17231613729E+03  0.17808734229E+03  0.10387846513E+02 0.  0.
         22    1    3    3    0    0  0.25251027360E+02 -0.35731338821E+02 -0.94327891209E+02  0.10398121954E+03  0.00000000000E+00 0. -1.
         22    1    4    4    0    0 -0.73158030403E+01  0.14679534481E+02 -0.47758650279E+02  0.50496518525E+02  0.00000000000E+00 0. -1.
         22    1    4    4    0    0 -0.17935224320E+02  0.21051804340E+02 -0.12455748701E+03  0.12759082376E+03  0.00000000000E+00 0. -1.
<mgrwt>
<rscale>  0 0.91998020E+02</rscale>
<asrwt>0</asrwt>
<pdfrwt beam="2">  1        2 0.42208653E-01 0.91998020E+02</pdfrwt>
<pdfrwt beam="1">  1       -2 0.11865028E-02 0.91998020E+02</pdfrwt>
<totfact> 0.16965164E+05</totfact>
</mgrwt>
</event>
<event>
 7    1  0.3337990E-009  0.9184862E+02  0.7818608E-02  0.1298436E+00
         -2   -1    0    0    0  501 -0.00000000000E+00  0.00000000000E+00  0.22261158271E+02  0.22261158417E+02  0.25500000000E-02 0. -1.
          2   -1    0    0  501    0  0.00000000000E+00 -0.00000000000E+00 -0.94740912231E+02  0.94740912265E+02  0.25500000000E-02 0.  1.
         23    2    1    2    0    0  0.35527136788E-14  0.00000000000E+00 -0.72479753959E+02  0.11700207068E+03  0.91848624432E+02 0.  0.
    9000005    2    3    3    0    0 -0.26692854599E+02 -0.36693151276E+02 -0.35686662417E+02  0.58584372830E+02  0.99847397629E+01 0.  0.
         22    1    3    3    0    0  0.26692854599E+02  0.36693151276E+02 -0.36793091542E+02  0.58417697853E+02  0.00000000000E+00 0.  1.
         22    1    4    4    0    0 -0.25902752085E+02 -0.34609207625E+02 -0.36096982648E+02  0.56318220625E+02  0.00000000000E+00 0. -1.
         22    1    4    4    0    0 -0.79010251353E+00 -0.20839436511E+01  0.41032023112E+00  0.22661522047E+01  0.00000000000E+00 0. -1.
<mgrwt>
<rscale>  0 0.91848624E+02</rscale>
<asrwt>0</asrwt>
<pdfrwt beam="2">  1        2 0.14575525E-01 0.91848624E+02</pdfrwt>
<pdfrwt beam="1">  1       -2 0.34247936E-02 0.91848624E+02</pdfrwt>
<totfact> 0.11826616E+05</totfact>
</mgrwt>
</event>
<event>
 7    1  0.4074190E-009  0.8984756E+02  0.7818608E-02  0.1303221E+00
         -2   -1    0    0    0  501 -0.00000000000E+00  0.00000000000E+00  0.79384889026E+01  0.79384893121E+01  0.25500000000E-02 0.  1.
          2   -1    0    0  501    0  0.00000000000E+00 -0.00000000000E+00 -0.25422292607E+03  0.25422292608E+03  0.25500000000E-02 0. -1.
         23    2    1    2    0    0  0.88817841970E-15  0.00000000000E+00 -0.24628443717E+03  0.26216141539E+03  0.89847558292E+02 0.  0.
    9000005    2    3    3    0    0  0.54689357755E+01 -0.43262102426E+02 -0.12328100782E+03  0.13165715341E+03  0.15293148473E+02 0.  0.
         22    1    3    3    0    0 -0.54689357755E+01  0.43262102426E+02 -0.12300342935E+03  0.13050426198E+03  0.00000000000E+00 0. -1.
         22    1    4    4    0    0  0.41694855217E+01 -0.28241370640E+02 -0.57833837981E+02  0.64495832740E+02  0.00000000000E+00 0.  1.
         22    1    4    4    0    0  0.12994502538E+01 -0.15020731786E+02 -0.65447169839E+02  0.67161320671E+02  0.00000000000E+00 0.  1.
<mgrwt>
<rscale>  0 0.89847558E+02</rscale>
<asrwt>0</asrwt>
<pdfrwt beam="2">  1        2 0.39111213E-01 0.89847558E+02</pdfrwt>
<pdfrwt beam="1">  1       -2 0.12213062E-02 0.89847558E+02</pdfrwt>
<totfact> 0.17566815E+05</totfact>
</mgrwt>
</event>
<event>
 7    1  0.3337990E-009  0.8872788E+02  0.7818608E-02  0.1305962E+00
          2   -1    0    0  501    0  0.00000000000E+00  0.00000000000E+00  0.93595529805E+01  0.93595533279E+01  0.25500000000E-02 0. -1.
         -2   -1    0    0    0  501 -0.00000000000E+00 -0.00000000000E+00 -0.21028344017E+03  0.21028344018E+03  0.25500000000E-02 0.  1.
         23    2    1    2    0    0 -0.17763568394E-14  0.00000000000E+00 -0.20092388719E+03  0.21964299351E+03  0.88727876995E+02 0.  0.
    9000005    2    3    3    0    0  0.11188260525E+02  0.17874755223E+02 -0.19669282274E+03  0.19813518204E+03  0.11171382972E+02 0.  0.
         22    1    3    3    0    0 -0.11188260525E+02 -0.17874755223E+02 -0.42310644479E+01  0.21507811470E+02  0.00000000000E+00 0. -1.
         22    1    4    4    0    0 -0.86553170295E+00  0.48848221969E+01 -0.74385586890E+02  0.74550829439E+02  0.00000000000E+00 0. -1.
         22    1    4    4    0    0  0.12053792228E+02  0.12989933026E+02 -0.12230723585E+03  0.12358435260E+03  0.00000000000E+00 0. -1.
<mgrwt>
<rscale>  0 0.88727877E+02</rscale>
<asrwt>0</asrwt>
<pdfrwt beam="1">  1        2 0.14399314E-02 0.88727877E+02</pdfrwt>
<pdfrwt beam="2">  1       -2 0.32351295E-01 0.88727877E+02</pdfrwt>
<totfact> 0.65349619E+04</totfact>
</mgrwt>
</event>
<event>
 7    1  0.3337990E-009  0.9119479E+02  0.7818608E-02  0.1299984E+00
         -2   -1    0    0    0  501 -0.00000000000E+00  0.00000000000E+00  0.29686658753E+01  0.29686669705E+01  0.25500000000E-02 0.  1.
          2   -1    0    0  501    0  0.00000000000E+00 -0.00000000000E+00 -0.70035566520E+03  0.70035566520E+03  0.25500000000E-02 0. -1.
         23    2    1    2    0    0  0.00000000000E+00  0.00000000000E+00 -0.69738699932E+03  0.70332433217E+03  0.91194788241E+02 0.  0.
    9000005    2    3    3    0    0  0.10816023331E+02 -0.23250388704E+02 -0.63946862218E+03  0.63998315010E+03  0.86413196648E+00 0.  0.
         22    1    3    3    0    0 -0.10816023331E+02  0.23250388704E+02 -0.57918377148E+02  0.63341182078E+02  0.00000000000E+00 0.  1.
         22    1    4    4    0    0  0.14123713332E+01 -0.35971741370E+01 -0.10140164455E+03  0.10147525793E+03  0.00000000000E+00 0.  1.
         22    1    4    4    0    0  0.94036519976E+01 -0.19653214567E+02 -0.53806697762E+03  0.53850789216E+03  0.00000000000E+00 0.  1.
<mgrwt>
<rscale>  0 0.91194788E+02</rscale>
<asrwt>0</asrwt>
<pdfrwt beam="2">  1        2 0.10774689E+00 0.91194788E+02</pdfrwt>
<pdfrwt beam="1">  1       -2 0.45671847E-03 0.91194788E+02</pdfrwt>
<totfact> 0.23704810E+05</totfact>
</mgrwt>
</event>
<event>
 7    1  0.3337990E-009  0.9115600E+02  0.7818608E-02  0.1300076E+00
         -2   -1    0    0    0  501 -0.00000000000E+00  0.00000000000E+00  0.29131857936E+01  0.29131869097E+01  0.25500000000E-02 0.  1.
          2   -1    0    0  501    0  0.00000000000E+00 -0.00000000000E+00 -0.71308651324E+03  0.71308651325E+03  0.25500000000E-02 0. -1.
         23    2    1    2    0    0  0.00000000000E+00  0.00000000000E+00 -0.71017332745E+03  0.71599970016E+03  0.91155995989E+02 0.  0.
    9000005    2    3    3    0    0  0.66856695784E+01 -0.12711322489E+02 -0.69433976526E+03  0.69462266601E+03  0.13662453051E+02 0.  0.
         22    1    3    3    0    0 -0.66856695784E+01  0.12711322489E+02 -0.15833562191E+02  0.21377034144E+02  0.00000000000E+00 0.  1.
         22    1    4    4    0    0 -0.28542663649E+01 -0.91933902625E+01 -0.35630666288E+03  0.35643667498E+03  0.00000000000E+00 0. -1.
         22    1    4    4    0    0  0.95399359433E+01 -0.35179322263E+01 -0.33803310238E+03  0.33818599103E+03  0.00000000000E+00 0. -1.
<mgrwt>
<rscale>  0 0.91155996E+02</rscale>
<asrwt>0</asrwt>
<pdfrwt beam="2">  1        2 0.10970548E+00 0.91155996E+02</pdfrwt>
<pdfrwt beam="1">  1       -2 0.44818308E-03 0.91155996E+02</pdfrwt>
<totfact> 0.23829646E+05</totfact>
</mgrwt>
</event>
<event>
 7    1  0.3337990E-009  0.9246242E+02  0.7818608E-02  0.1296996E+00
          2   -1    0    0  501    0  0.00000000000E+00  0.00000000000E+00  0.17222358755E+03  0.17222358757E+03  0.25500000000E-02 0.  1.
         -2   -1    0    0    0  501 -0.00000000000E+00 -0.00000000000E+00 -0.12410173938E+02  0.12410174200E+02  0.25500000000E-02 0. -1.
         23    2    1    2    0    0  0.00000000000E+00  0.00000000000E+00  0.15981341361E+03  0.18463376177E+03  0.92462418392E+02 0.  0.
    9000005    2    3    3    0    0 -0.32094110249E+02 -0.28315862029E+02  0.46151726321E+02  0.63180893903E+02  0.54793755882E+01 0.  0.
         22    1    3    3    0    0  0.32094110249E+02  0.28315862029E+02  0.11366168729E+03  0.12145286787E+03  0.00000000000E+00 0. -1.
         22    1    4    4    0    0 -0.23934023405E+02 -0.18942210592E+02  0.35455035080E+02  0.46783590403E+02  0.00000000000E+00 0.  1.
         22    1    4    4    0    0 -0.81600868442E+01 -0.93736514369E+01  0.10696691240E+02  0.16397303500E+02  0.00000000000E+00 0.  1.
<mgrwt>
<rscale>  0 0.92462418E+02</rscale>
<asrwt>0</asrwt>
<pdfrwt beam="1">  1        2 0.26495936E-01 0.92462418E+02</pdfrwt>
<pdfrwt beam="2">  1       -2 0.19092576E-02 0.92462418E+02</pdfrwt>
<totfact> 0.14118913E+05</totfact>
</mgrwt>
</event>
<event>
 7    1  0.3337990E-009  0.9140180E+02  0.7818608E-02  0.1299492E+00
          2   -1    0    0  501    0  0.00000000000E+00  0.00000000000E+00  0.60255609852E+03  0.60255609853E+03  0.25500000000E-02 0. -1.
         -2   -1    0    0    0  501 -0.00000000000E+00 -0.00000000000E+00 -0.34661868295E+01  0.34661877675E+01  0.25500000000E-02 0.  1.
         23    2    1    2    0    0  0.00000000000E+00  0.00000000000E+00  0.59908991170E+03  0.60602228630E+03  0.91401800827E+02 0.  0.
    9000005    2    3    3    0    0  0.22736780915E+02  0.48971463225E+01  0.55941127278E+03  0.56002948648E+03  0.12292695815E+02 0.  0.
         22    1    3    3    0    0 -0.22736780915E+02 -0.48971463225E+01  0.39678638917E+02  0.45992799815E+02  0.00000000000E+00 0.  1.
         22    1    4    4    0    0  0.18118665048E+02  0.63632023432E+01  0.32415837518E+03  0.32472669827E+03  0.00000000000E+00 0.  1.
         22    1    4    4    0    0  0.46181158668E+01 -0.14660560207E+01  0.23525289760E+03  0.23530278822E+03  0.00000000000E+00 0.  1.
<mgrwt>
<rscale>  0 0.91401801E+02</rscale>
<asrwt>0</asrwt>
<pdfrwt beam="1">  1        2 0.92700929E-01 0.91401801E+02</pdfrwt>
<pdfrwt beam="2">  1       -2 0.53325964E-03 0.91401801E+02</pdfrwt>
<totfact> 0.22664323E+05</totfact>
</mgrwt>
</event>
<event>
 7    1  0.3337990E-009  0.8709302E+02  0.7818608E-02  0.1310048E+00
         -2   -1    0    0    0  501 -0.00000000000E+00  0.00000000000E+00  0.86862312477E+03  0.86862312478E+03  0.25500000000E-02 0.  1.
          2   -1    0    0  501    0  0.00000000000E+00 -0.00000000000E+00 -0.21831076040E+01  0.21831090933E+01  0.25500000000E-02 0. -1.
         23    2    1    2    0    0  0.00000000000E+00  0.00000000000E+00  0.86644001717E+03  0.87080623387E+03  0.87093016914E+02 0.  0.
    9000005    2    3    3    0    0 -0.17918357323E+02  0.16734530110E+02  0.79154535602E+03  0.79200063575E+03  0.10947344748E+02 0.  0.
         22    1    3    3    0    0  0.17918357323E+02 -0.16734530110E+02  0.74894661145E+02  0.78805598121E+02  0.00000000000E+00 0. -1.
         22    1    4    4    0    0 -0.66691813041E+01  0.29463914597E+01  0.38106697057E+03  0.38113671466E+03  0.00000000000E+00 0. -1.
         22    1    4    4    0    0 -0.11249176019E+02  0.13788138650E+02  0.41047838546E+03  0.41086392109E+03  0.00000000000E+00 0. -1.
<mgrwt>
<rscale>  0 0.87093017E+02</rscale>
<asrwt>0</asrwt>
<pdfrwt beam="2">  1        2 0.33586234E-03 0.87093017E+02</pdfrwt>
<pdfrwt beam="1">  1       -2 0.13363452E+00 0.87093017E+02</pdfrwt>
<totfact> 0.24639492E+04</totfact>
</mgrwt>
</event>
<event>
 7    1  0.3337990E-009  0.9234121E+02  0.7818608E-02  0.1297279E+00
         -2   -1    0    0    0  501 -0.00000000000E+00  0.00000000000E+00  0.91534344452E+02  0.91534344487E+02  0.25500000000E-02 0.  1.
          2   -1    0    0  501    0  0.00000000000E+00 -0.00000000000E+00 -0.23288795825E+02  0.23288795964E+02  0.25500000000E-02 0. -1.
         23    2    1    2    0    0  0.00000000000E+00  0.00000000000E+00  0.68245548627E+02  0.11482314045E+03  0.92341207897E+02 0.  0.
    9000005    2    3    3    0    0 -0.36912527976E+02  0.60954958254E+01  0.67489395059E+02  0.77403071516E+02  0.60603006357E+01 0.  0.
         22    1    3    3    0    0  0.36912527976E+02 -0.60954958254E+01  0.75615356798E+00  0.37420068936E+02  0.00000000000E+00 0. -1.
         22    1    4    4    0    0 -0.15841698020E+02  0.53803356591E+00  0.24040300324E+02  0.28795571116E+02  0.00000000000E+00 0. -1.
         22    1    4    4    0    0 -0.21070829956E+02  0.55574622595E+01  0.43449094735E+02  0.48607500400E+02  0.00000000000E+00 0. -1.
<mgrwt>
<rscale>  0 0.92341208E+02</rscale>
<asrwt>0</asrwt>
<pdfrwt beam="2">  1        2 0.35828917E-02 0.92341208E+02</pdfrwt>
<pdfrwt beam="1">  1       -2 0.14082207E-01 0.92341208E+02</pdfrwt>
<totfact> 0.79368770E+04</totfact>
</mgrwt>
</event>
<event>
 7    1  0.3337990E-009  0.9144942E+02  0.7818608E-02  0.1299379E+00
          2   -1    0    0  501    0  0.00000000000E+00  0.00000000000E+00  0.29945781377E+03  0.29945781378E+03  0.25500000000E-02 0. -1.
         -2   -1    0    0    0  501 -0.00000000000E+00 -0.00000000000E+00 -0.69817816435E+01  0.69817821092E+01  0.25500000000E-02 0.  1.
         23    2    1    2    0    0  0.88817841970E-15  0.00000000000E+00  0.29247603212E+03  0.30643959589E+03  0.91449420778E+02 0.  0.
    9000005    2    3    3    0    0  0.67115876849E+01 -0.24964983748E+02  0.27254208779E+03  0.27379517891E+03  0.40391282113E+01 0.  0.
         22    1    3    3    0    0 -0.67115876849E+01  0.24964983748E+02  0.19933944332E+02  0.32644416972E+02  0.00000000000E+00 0.  1.
         22    1    4    4    0    0  0.69620515003E+01 -0.24743394049E+02  0.26447258633E+03  0.26571875099E+03  0.00000000000E+00 0. -1.
         22    1    4    4    0    0 -0.25046381534E+00 -0.22158969912E+00  0.80695014634E+01  0.80764279224E+01  0.00000000000E+00 0. -1.
<mgrwt>
<rscale>  0 0.91449421E+02</rscale>
<asrwt>0</asrwt>
<pdfrwt beam="1">  1        2 0.46070425E-01 0.91449421E+02</pdfrwt>
<pdfrwt beam="2">  1       -2 0.10741205E-02 0.91449421E+02</pdfrwt>
<totfact> 0.17811362E+05</totfact>
</mgrwt>
</event>
<event>
 7    1  0.3337990E-009  0.8983473E+02  0.7818608E-02  0.1303252E+00
         -2   -1    0    0    0  501 -0.00000000000E+00  0.00000000000E+00  0.16211707244E+02  0.16211707445E+02  0.25500000000E-02 0.  1.
          2   -1    0    0  501    0  0.00000000000E+00 -0.00000000000E+00 -0.12445140116E+03  0.12445140119E+03  0.25500000000E-02 0. -1.
         23    2    1    2    0    0  0.00000000000E+00  0.00000000000E+00 -0.10823969392E+03  0.14066310863E+03  0.89834730427E+02 0.  0.
    9000005    2    3    3    0    0  0.20139567202E+02  0.89325277655E+01 -0.11539340373E+03  0.11749917582E+03  0.22419801842E+01 0.  0.
         22    1    3    3    0    0 -0.20139567202E+02 -0.89325277655E+01  0.71537098092E+01  0.23163932813E+02  0.00000000000E+00 0.  1.
         22    1    4    4    0    0  0.23541311809E+01  0.10031644122E+01 -0.17689417841E+02  0.17873549620E+02  0.00000000000E+00 0.  1.
         22    1    4    4    0    0  0.17785436021E+02  0.79293633533E+01 -0.97703985887E+02  0.99625626200E+02  0.00000000000E+00 0.  1.
<mgrwt>
<rscale>  0 0.89834730E+02</rscale>
<asrwt>0</asrwt>
<pdfrwt beam="2">  1        2 0.19146369E-01 0.89834730E+02</pdfrwt>
<pdfrwt beam="1">  1       -2 0.24941089E-02 0.89834730E+02</pdfrwt>
<totfact> 0.13681791E+05</totfact>
</mgrwt>
</event>
<event>
 7    1  0.3337990E-009  0.8694014E+02  0.7818608E-02  0.1310435E+00
         -2   -1    0    0    0  501 -0.00000000000E+00  0.00000000000E+00  0.54827677422E+01  0.54827683352E+01  0.25500000000E-02 0.  1.
          2   -1    0    0  501    0  0.00000000000E+00 -0.00000000000E+00 -0.34465201452E+03  0.34465201452E+03  0.25500000000E-02 0. -1.
         23    2    1    2    0    0  0.00000000000E+00  0.35527136788E-14 -0.33916924677E+03  0.35013478286E+03  0.86940141544E+02 0.  0.
    9000005    2    3    3    0    0 -0.27123017725E+02  0.17871680545E+02 -0.28475445941E+03  0.28676267432E+03  0.96267428748E+01 0.  0.
         22    1    3    3    0    0  0.27123017725E+02 -0.17871680545E+02 -0.54414787368E+02  0.63372108536E+02  0.00000000000E+00 0.  1.
         22    1    4    4    0    0 -0.27161610497E+01  0.36286294010E+01 -0.20148535503E+02  0.20652069269E+02  0.00000000000E+00 0.  1.
         22    1    4    4    0    0 -0.24406856675E+02  0.14243051144E+02 -0.26460592390E+03  0.26611060506E+03  0.00000000000E+00 0.  1.
<mgrwt>
<rscale>  0 0.86940142E+02</rscale>
<asrwt>0</asrwt>
<pdfrwt beam="2">  1        2 0.53023370E-01 0.86940142E+02</pdfrwt>
<pdfrwt beam="1">  1       -2 0.84350304E-03 0.86940142E+02</pdfrwt>
<totfact> 0.21457402E+05</totfact>
</mgrwt>
</event>
<event>
 7    1  0.3337990E-009  0.9244841E+02  0.7818608E-02  0.1297029E+00
         -2   -1    0    0    0  501 -0.00000000000E+00  0.00000000000E+00  0.11774903858E+02  0.11774904134E+02  0.25500000000E-02 0. -1.
          2   -1    0    0  501    0  0.00000000000E+00 -0.00000000000E+00 -0.18146025840E+03  0.18146025841E+03  0.25500000000E-02 0.  1.
         23    2    1    2    0    0 -0.35527136788E-14  0.00000000000E+00 -0.16968535454E+03  0.19323516255E+03  0.92448409939E+02 0.  0.
    9000005    2    3    3    0    0 -0.20882842201E+02  0.31567255428E+02 -0.13872104196E+03  0.14433349216E+03  0.12491787768E+02 0.  0.
         22    1    3    3    0    0  0.20882842201E+02 -0.31567255428E+02 -0.30964312574E+02  0.48901670389E+02  0.00000000000E+00 0.  1.
         22    1    4    4    0    0 -0.33304227331E+01  0.14693273334E+02 -0.42944360902E+02  0.45510461766E+02  0.00000000000E+00 0. -1.
         22    1    4    4    0    0 -0.17552419467E+02  0.16873982094E+02 -0.95776681062E+02  0.98823030394E+02  0.00000000000E+00 0. -1.
<mgrwt>
<rscale>  0 0.92448410E+02</rscale>
<asrwt>0</asrwt>
<pdfrwt beam="2">  1        2 0.27916961E-01 0.92448410E+02</pdfrwt>
<pdfrwt beam="1">  1       -2 0.18115238E-02 0.92448410E+02</pdfrwt>
<totfact> 0.14388502E+05</totfact>
</mgrwt>
</event>
<event>
 7    1  0.3337990E-009  0.9286053E+02  0.7818608E-02  0.1296069E+00
         -2   -1    0    0    0  501 -0.00000000000E+00  0.00000000000E+00  0.35065952435E+01  0.35065961707E+01  0.25500000000E-02 0.  1.
          2   -1    0    0  501    0  0.00000000000E+00 -0.00000000000E+00 -0.61477558050E+03  0.61477558050E+03  0.25500000000E-02 0. -1.
         23    2    1    2    0    0  0.00000000000E+00  0.00000000000E+00 -0.61126898525E+03  0.61828217667E+03  0.92860527990E+02 0.  0.
    9000005    2    3    3    0    0 -0.37809910833E+02  0.18004358187E+02 -0.43847934621E+03  0.44049014751E+03  0.36995587608E+01 0.  0.
         22    1    3    3    0    0  0.37809910833E+02 -0.18004358187E+02 -0.17278963905E+03  0.17779202916E+03  0.00000000000E+00 0.  1.
         22    1    4    4    0    0 -0.23793717901E+02  0.11464074509E+02 -0.25742356279E+03  0.25877491512E+03  0.00000000000E+00 0.  1.
         22    1    4    4    0    0 -0.14016192932E+02  0.65402836785E+01 -0.18105578341E+03  0.18171523239E+03  0.00000000000E+00 0.  1.
<mgrwt>
<rscale>  0 0.92860528E+02</rscale>
<asrwt>0</asrwt>
<pdfrwt beam="2">  1        2 0.94580773E-01 0.92860528E+02</pdfrwt>
<pdfrwt beam="1">  1       -2 0.53947675E-03 0.92860528E+02</pdfrwt>
<totfact> 0.21857227E+05</totfact>
</mgrwt>
</event>
<event>
 7    1  0.3337990E-009  0.9333100E+02  0.7818608E-02  0.1294980E+00
          2   -1    0    0  501    0  0.00000000000E+00  0.00000000000E+00  0.18008284264E+03  0.18008284266E+03  0.25500000000E-02 0. -1.
         -2   -1    0    0    0  501 -0.00000000000E+00 -0.00000000000E+00 -0.12092595117E+02  0.12092595386E+02  0.25500000000E-02 0.  1.
         23    2    1    2    0    0  0.00000000000E+00  0.17763568394E-14  0.16799024752E+03  0.19217543804E+03  0.93331000875E+02 0.  0.
    9000005    2    3    3    0    0  0.35983241569E+02  0.11657687589E+02  0.33434722255E+02  0.52404608705E+02  0.14059409930E+02 0.  0.
         22    1    3    3    0    0 -0.35983241569E+02 -0.11657687589E+02  0.13455552527E+03  0.13977082934E+03  0.00000000000E+00 0. -1.
         22    1    4    4    0    0  0.10880413477E+02 -0.20172813191E+01  0.52042196136E+01  0.12228520889E+02  0.00000000000E+00 0.  1.
         22    1    4    4    0    0  0.25102828092E+02  0.13674968908E+02  0.28230502641E+02  0.40176087817E+02  0.00000000000E+00 0.  1.
<mgrwt>
<rscale>  0 0.93331001E+02</rscale>
<asrwt>0</asrwt>
<pdfrwt beam="1">  1        2 0.27705052E-01 0.93331001E+02</pdfrwt>
<pdfrwt beam="2">  1       -2 0.18603993E-02 0.93331001E+02</pdfrwt>
<totfact> 0.13984995E+05</totfact>
</mgrwt>
</event>
<event>
 7    1  0.3337990E-009  0.9308833E+02  0.7818608E-02  0.1295541E+00
         -2   -1    0    0    0  501 -0.00000000000E+00  0.00000000000E+00  0.66734585263E+01  0.66734590135E+01  0.25500000000E-02 0.  1.
          2   -1    0    0  501    0  0.00000000000E+00 -0.00000000000E+00 -0.32462314567E+03  0.32462314568E+03  0.25500000000E-02 0. -1.
         23    2    1    2    0    0  0.00000000000E+00  0.00000000000E+00 -0.31794968715E+03  0.33129660470E+03  0.93088327554E+02 0.  0.
    9000005    2    3    3    0    0  0.17758981905E+02  0.38960237889E+02 -0.21650794895E+03  0.22118889460E+03  0.14681742424E+02 0.  0.
         22    1    3    3    0    0 -0.17758981905E+02 -0.38960237889E+02 -0.10144173820E+03  0.11010771010E+03  0.00000000000E+00 0.  1.
         22    1    4    4    0    0  0.13886624475E+02  0.15906390584E+02 -0.12325125721E+03  0.12504688722E+03  0.00000000000E+00 0. -1.
         22    1    4    4    0    0  0.38723574293E+01  0.23053847305E+02 -0.93256691741E+02  0.96142007375E+02  0.00000000000E+00 0. -1.
<mgrwt>
<rscale>  0 0.93088328E+02</rscale>
<asrwt>0</asrwt>
<pdfrwt beam="2">  1        2 0.49942010E-01 0.93088328E+02</pdfrwt>
<pdfrwt beam="1">  1       -2 0.10266862E-02 0.93088328E+02</pdfrwt>
<totfact> 0.17503417E+05</totfact>
</mgrwt>
</event>
<event>
 7    1  0.3337990E-009  0.9049589E+02  0.7818608E-02  0.1301655E+00
         -2   -1    0    0    0  501 -0.00000000000E+00  0.00000000000E+00  0.18750327997E+01  0.18750345337E+01  0.25500000000E-02 0.  1.
          2   -1    0    0  501    0  0.00000000000E+00 -0.00000000000E+00 -0.10919145795E+04  0.10919145795E+04  0.25500000000E-02 0. -1.
         23    2    1    2    0    0 -0.35527136788E-14  0.35527136788E-14 -0.10900395467E+04  0.10937896141E+04  0.90495891643E+02 0.  0.
    9000005    2    3    3    0    0  0.19603874996E+02 -0.21166300999E+02 -0.96124079379E+03  0.96179930014E+03  0.15546892986E+02 0.  0.
         22    1    3    3    0    0 -0.19603874996E+02  0.21166300999E+02 -0.12879875295E+03  0.13199031394E+03  0.00000000000E+00 0.  1.
         22    1    4    4    0    0  0.82344091757E+01 -0.29253035171E+01 -0.47903317939E+03  0.47911287799E+03  0.00000000000E+00 0.  1.
         22    1    4    4    0    0  0.11369465820E+02 -0.18240997481E+02 -0.48220761440E+03  0.48268642215E+03  0.00000000000E+00 0.  1.
<mgrwt>
<rscale>  0 0.90495892E+02</rscale>
<asrwt>0</asrwt>
<pdfrwt beam="2">  1        2 0.16798635E+00 0.90495892E+02</pdfrwt>
<pdfrwt beam="1">  1       -2 0.28846759E-03 0.90495892E+02</pdfrwt>
<totfact> 0.25522690E+05</totfact>
</mgrwt>
</event>
<event>
 7    1  0.3337990E-009  0.8853417E+02  0.7818608E-02  0.1306441E+00
          2   -1    0    0  501    0  0.00000000000E+00  0.00000000000E+00  0.38375697606E+02  0.38375697691E+02  0.25500000000E-02 0. -1.
         -2   -1    0    0    0  501 -0.00000000000E+00 -0.00000000000E+00 -0.51062914699E+02  0.51062914763E+02  0.25500000000E-02 0.  1.
         23    2    1    2    0    0 -0.35527136788E-14 -0.17763568394E-14 -0.12687217093E+02  0.89438612453E+02  0.88534173741E+02 0.  0.
    9000005    2    3    3    0    0  0.16182454860E+02  0.13236618081E+02  0.32988930502E+02  0.39205253391E+02  0.34208850215E+01 0.  0.
         22    1    3    3    0    0 -0.16182454860E+02 -0.13236618081E+02 -0.45676147595E+02  0.50233359062E+02  0.00000000000E+00 0.  1.
         22    1    4    4    0    0  0.12463141319E+02  0.97884512007E+01  0.22117536174E+02  0.27208988861E+02  0.00000000000E+00 0.  1.
         22    1    4    4    0    0  0.37193135408E+01  0.34481668805E+01  0.10871394328E+02  0.11996264530E+02  0.00000000000E+00 0.  1.
<mgrwt>
<rscale>  0 0.88534174E+02</rscale>
<asrwt>0</asrwt>
<pdfrwt beam="1">  1        2 0.59039535E-02 0.88534174E+02</pdfrwt>
<pdfrwt beam="2">  1       -2 0.78558330E-02 0.88534174E+02</pdfrwt>
<totfact> 0.10275443E+05</totfact>
</mgrwt>
</event>
<event>
 7    1  0.3337990E-009  0.8896907E+02  0.7818608E-02  0.1305368E+00
         -2   -1    0    0    0  501 -0.00000000000E+00  0.00000000000E+00  0.31057042906E+02  0.31057043011E+02  0.25500000000E-02 0.  1.
          2   -1    0    0  501    0  0.00000000000E+00 -0.00000000000E+00 -0.63717397860E+02  0.63717397911E+02  0.25500000000E-02 0. -1.
         23    2    1    2    0    0  0.00000000000E+00  0.00000000000E+00 -0.32660354954E+02  0.94774440922E+02  0.88969072527E+02 0.  0.
    9000005    2    3    3    0    0  0.24217443780E+02  0.36474753993E+02 -0.14487931191E+02  0.47370546066E+02  0.10824796640E+02 0.  0.
         22    1    3    3    0    0 -0.24217443780E+02 -0.36474753993E+02 -0.18172423763E+02  0.47403894856E+02  0.00000000000E+00 0.  1.
         22    1    4    4    0    0  0.16735392334E+02  0.16682982411E+02 -0.48636652757E+01  0.24125722758E+02  0.00000000000E+00 0. -1.
         22    1    4    4    0    0  0.74820514463E+01  0.19791771582E+02 -0.96242659153E+01  0.23244823308E+02  0.00000000000E+00 0. -1.
<mgrwt>
<rscale>  0 0.88969073E+02</rscale>
<asrwt>0</asrwt>
<pdfrwt beam="2">  1        2 0.98026766E-02 0.88969073E+02</pdfrwt>
<pdfrwt beam="1">  1       -2 0.47780066E-02 0.88969073E+02</pdfrwt>
<totfact> 0.11547143E+05</totfact>
</mgrwt>
</event>
<event>
 7    1  0.3337990E-009  0.1050699E+03  0.7818608E-02  0.1269982E+00
         -2   -1    0    0    0  501 -0.00000000000E+00  0.00000000000E+00  0.22692286516E+01  0.22692300844E+01  0.25500000000E-02 0. -1.
          2   -1    0    0  501    0  0.00000000000E+00 -0.00000000000E+00 -0.12162381425E+04  0.12162381425E+04  0.25500000000E-02 0.  1.
         23    2    1    2    0    0  0.00000000000E+00  0.00000000000E+00 -0.12139689139E+04  0.12185073726E+04  0.10506994460E+03 0.  0.
    9000005    2    3    3    0    0 -0.21563417927E+02  0.10800526445E+01 -0.11617237519E+04  0.11619768105E+04  0.11040146311E+02 0.  0.
         22    1    3    3    0    0  0.21563417927E+02 -0.10800526445E+01 -0.52245161940E+02  0.56530562111E+02  0.00000000000E+00 0. -1.
         22    1    4    4    0    0 -0.15042045941E+02 -0.27600194751E+01 -0.93897613623E+03  0.93910066833E+03  0.00000000000E+00 0.  1.
         22    1    4    4    0    0 -0.65213719860E+01  0.38400721197E+01 -0.22274761569E+03  0.22287614215E+03  0.00000000000E+00 0.  1.
<mgrwt>
<rscale>  0 0.10506994E+03</rscale>
<asrwt>0</asrwt>
<pdfrwt beam="2">  1        2 0.18711304E+00 0.10506994E+03</pdfrwt>
<pdfrwt beam="1">  1       -2 0.34911318E-03 0.10506994E+03</pdfrwt>
<totfact> 0.17048221E+05</totfact>
</mgrwt>
</event>
<event>
 7    1  0.3337990E-009  0.9239342E+02  0.7818608E-02  0.1297157E+00
          2   -1    0    0  501    0  0.00000000000E+00  0.00000000000E+00  0.19156000800E+02  0.19156000970E+02  0.25500000000E-02 0. -1.
         -2   -1    0    0    0  501 -0.00000000000E+00 -0.00000000000E+00 -0.11140823057E+03  0.11140823060E+03  0.25500000000E-02 0.  1.
         23    2    1    2    0    0 -0.35527136788E-14  0.00000000000E+00 -0.92252229768E+02  0.13056423157E+03  0.92393423292E+02 0.  0.
    9000005    2    3    3    0    0  0.29681702369E+02  0.43709246937E+01  0.32362732983E+00  0.33248262910E+02  0.14325983865E+02 0.  0.
         22    1    3    3    0    0 -0.29681702369E+02 -0.43709246937E+01 -0.92575857098E+02  0.97315968657E+02  0.00000000000E+00 0.  1.
         22    1    4    4    0    0  0.18128079338E+02  0.78778593758E+01 -0.44570773366E+01  0.20262119020E+02  0.00000000000E+00 0. -1.
         22    1    4    4    0    0  0.11553623032E+02 -0.35069346821E+01  0.47807046664E+01  0.12986143890E+02  0.00000000000E+00 0. -1.
<mgrwt>
<rscale>  0 0.92393423E+02</rscale>
<asrwt>0</asrwt>
<pdfrwt beam="1">  1        2 0.29470771E-02 0.92393423E+02</pdfrwt>
<pdfrwt beam="2">  1       -2 0.17139727E-01 0.92393423E+02</pdfrwt>
<totfact> 0.74697920E+04</totfact>
</mgrwt>
</event>
<event>
 7    1  0.3337990E-009  0.9161402E+02  0.7818608E-02  0.1298990E+00
          2   -1    0    0  501    0  0.00000000000E+00  0.00000000000E+00  0.10031813141E+04  0.10031813141E+04  0.25500000000E-02 0. -1.
         -2   -1    0    0    0  501 -0.00000000000E+00 -0.00000000000E+00 -0.20916272688E+01  0.20916288232E+01  0.25500000000E-02 0.  1.
         23    2    1    2    0    0  0.00000000000E+00  0.00000000000E+00  0.10010896869E+04  0.10052729430E+04  0.91614020217E+02 0.  0.
    9000005    2    3    3    0    0 -0.23691535034E+02  0.60183482083E+01  0.92518025755E+03  0.92552489718E+03  0.63495657345E+01 0.  0.
         22    1    3    3    0    0  0.23691535034E+02 -0.60183482083E+01  0.75909429313E+02  0.79748045782E+02  0.00000000000E+00 0.  1.
         22    1    4    4    0    0 -0.14403308351E+02  0.14301400910E+01  0.45363548392E+03  0.45386633811E+03  0.00000000000E+00 0.  1.
         22    1    4    4    0    0 -0.92882266839E+01  0.45882081174E+01  0.47154477363E+03  0.47165855907E+03  0.00000000000E+00 0.  1.
<mgrwt>
<rscale>  0 0.91614020E+02</rscale>
<asrwt>0</asrwt>
<pdfrwt beam="1">  1        2 0.15433553E+00 0.91614020E+02</pdfrwt>
<pdfrwt beam="2">  1       -2 0.32178904E-03 0.91614020E+02</pdfrwt>
<totfact> 0.24691720E+05</totfact>
</mgrwt>
</event>
<event>
 7    1  0.3337990E-009  0.8550963E+02  0.7818608E-02  0.1314105E+00
          2   -1    0    0  501    0  0.00000000000E+00  0.00000000000E+00  0.29498755423E+03  0.29498755424E+03  0.25500000000E-02 0. -1.
         -2   -1    0    0    0  501 -0.00000000000E+00 -0.00000000000E+00 -0.61967838008E+01  0.61967843255E+01  0.25500000000E-02 0.  1.
         23    2    1    2    0    0 -0.17763568394E-14  0.00000000000E+00  0.28879077043E+03  0.30118433857E+03  0.85509629357E+02 0.  0.
    9000005    2    3    3    0    0  0.88890682387E+01 -0.36661560484E+02  0.85587881870E+02  0.94509474420E+02  0.13552478770E+02 0.  0.
         22    1    3    3    0    0 -0.88890682387E+01  0.36661560484E+02  0.20320288856E+03  0.20667486415E+03  0.00000000000E+00 0.  1.
         22    1    4    4    0    0  0.85288699860E+01 -0.30468824442E+02  0.80472487381E+02  0.86469139648E+02  0.00000000000E+00 0.  1.
         22    1    4    4    0    0  0.36019825275E+00 -0.61927360420E+01  0.51153944885E+01  0.80403347717E+01  0.00000000000E+00 0.  1.
<mgrwt>
<rscale>  0 0.85509629E+02</rscale>
<asrwt>0</asrwt>
<pdfrwt beam="1">  1        2 0.45382711E-01 0.85509629E+02</pdfrwt>
<pdfrwt beam="2">  1       -2 0.95335118E-03 0.85509629E+02</pdfrwt>
<totfact> 0.21174319E+05</totfact>
</mgrwt>
</event>
<event>
 7    1  0.3337990E-009  0.9546482E+02  0.7818608E-02  0.1290133E+00
          2   -1    0    0  501    0  0.00000000000E+00  0.00000000000E+00  0.43749093494E+03  0.43749093495E+03  0.25500000000E-02 0.  1.
         -2   -1    0    0    0  501 -0.00000000000E+00 -0.00000000000E+00 -0.52078395343E+01  0.52078401586E+01  0.25500000000E-02 0. -1.
         23    2    1    2    0    0  0.00000000000E+00  0.00000000000E+00  0.43228309541E+03  0.44269877511E+03  0.95464815020E+02 0.  0.
    9000005    2    3    3    0    0  0.15647667612E+02  0.44145736263E+02  0.23976602138E+03  0.24456619494E+03  0.11453522041E+02 0.  0.
         22    1    3    3    0    0 -0.15647667612E+02 -0.44145736263E+02  0.19251707403E+03  0.19813258017E+03  0.00000000000E+00 0. -1.
         22    1    4    4    0    0 -0.20106889134E+00  0.14543025952E+02  0.79673287848E+02  0.80989955112E+02  0.00000000000E+00 0.  1.
         22    1    4    4    0    0  0.15848736504E+02  0.29602710311E+02  0.16009273353E+03  0.16357623983E+03  0.00000000000E+00 0.  1.
<mgrwt>
<rscale>  0 0.95464815E+02</rscale>
<asrwt>0</asrwt>
<pdfrwt beam="1">  1        2 0.67306304E-01 0.95464815E+02</pdfrwt>
<pdfrwt beam="2">  1       -2 0.80120606E-03 0.95464815E+02</pdfrwt>
<totfact> 0.18232933E+05</totfact>
</mgrwt>
</event>
<event>
 7    1  0.3337990E-009  0.9130962E+02  0.7818608E-02  0.1299711E+00
          2   -1    0    0  501    0  0.00000000000E+00  0.00000000000E+00  0.12965494618E+04  0.12965494618E+04  0.25500000000E-02 0. -1.
         -2   -1    0    0    0  501 -0.00000000000E+00 -0.00000000000E+00 -0.16076210262E+01  0.16076230486E+01  0.25500000000E-02 0.  1.
         23    2    1    2    0    0  0.00000000000E+00 -0.44408920985E-15  0.12949418408E+04  0.12981570849E+04  0.91309615937E+02 0.  0.
    9000005    2    3    3    0    0  0.30951790306E+02  0.29040468044E+01  0.11219251287E+04  0.11223696295E+04  0.55806762229E+01 0.  0.
         22    1    3    3    0    0 -0.30951790306E+02 -0.29040468044E+01  0.17301671208E+03  0.17578745539E+03  0.00000000000E+00 0.  1.
         22    1    4    4    0    0  0.18328134421E+02  0.44232592711E+01  0.68724390813E+03  0.68750249091E+03  0.00000000000E+00 0. -1.
         22    1    4    4    0    0  0.12623655885E+02 -0.15192124667E+01  0.43468122060E+03  0.43486713861E+03  0.00000000000E+00 0. -1.
<mgrwt>
<rscale>  0 0.91309616E+02</rscale>
<asrwt>0</asrwt>
<pdfrwt beam="1">  1        2 0.19946910E+00 0.91309616E+02</pdfrwt>
<pdfrwt beam="2">  1       -2 0.24732652E-03 0.91309616E+02</pdfrwt>
<totfact> 0.24487994E+05</totfact>
</mgrwt>
</event>
<event>
 7    1  0.3337990E-009  0.9454143E+02  0.7818608E-02  0.1292212E+00
         -2   -1    0    0    0  501 -0.00000000000E+00  0.00000000000E+00  0.74089476062E+02  0.74089476106E+02  0.25500000000E-02 0. -1.
          2   -1    0    0  501    0  0.00000000000E+00 -0.00000000000E+00 -0.30159754465E+02  0.30159754573E+02  0.25500000000E-02 0.  1.
         23    2    1    2    0    0  0.71054273576E-14  0.00000000000E+00  0.43929721596E+02  0.10424923068E+03  0.94541428261E+02 0.  0.
    9000005    2    3    3    0    0  0.44155456762E+02 -0.11978633138E+02  0.10437022354E+02  0.47548675865E+02  0.76650588505E+01 0.  0.
         22    1    3    3    0    0 -0.44155456762E+02  0.11978633138E+02  0.33492699242E+02  0.56700554814E+02  0.00000000000E+00 0. -1.
         22    1    4    4    0    0  0.29887011998E+01 -0.20279674515E+01 -0.86575484084E+00  0.37140972377E+01  0.00000000000E+00 0. -1.
         22    1    4    4    0    0  0.41166755562E+02 -0.99506656861E+01  0.11302777195E+02  0.43834578627E+02  0.00000000000E+00 0. -1.
<mgrwt>
<rscale>  0 0.94541428E+02</rscale>
<asrwt>0</asrwt>
<pdfrwt beam="2">  1        2 0.46399623E-02 0.94541428E+02</pdfrwt>
<pdfrwt beam="1">  1       -2 0.11398381E-01 0.94541428E+02</pdfrwt>
<totfact> 0.79516422E+04</totfact>
</mgrwt>
</event>
<event>
 7    1  0.3337990E-009  0.9389315E+02  0.7818608E-02  0.1293689E+00
         -2   -1    0    0    0  501 -0.00000000000E+00  0.00000000000E+00  0.77477728614E+01  0.77477732811E+01  0.25500000000E-02 0.  1.
          2   -1    0    0  501    0  0.00000000000E+00 -0.00000000000E+00 -0.28446640233E+03  0.28446640234E+03  0.25500000000E-02 0. -1.
         23    2    1    2    0    0  0.00000000000E+00  0.22204460493E-15 -0.27671862946E+03  0.29221417562E+03  0.93893154914E+02 0.  0.
    9000005    2    3    3    0    0  0.32627908256E+02  0.92310720065E+00 -0.24190252809E+03  0.24449003667E+03  0.13896489015E+02 0.  0.
         22    1    3    3    0    0 -0.32627908256E+02 -0.92310720065E+00 -0.34816101372E+02  0.47724138953E+02  0.00000000000E+00 0.  1.
         22    1    4    4    0    0  0.66980386407E+01  0.55590224846E+01 -0.78025935233E+02  0.78509954920E+02  0.00000000000E+00 0.  1.
         22    1    4    4    0    0  0.25929869615E+02 -0.46359152840E+01 -0.16387659286E+03  0.16598008175E+03  0.00000000000E+00 0.  1.
<mgrwt>
<rscale>  0 0.93893155E+02</rscale>
<asrwt>0</asrwt>
<pdfrwt beam="2">  1        2 0.43764054E-01 0.93893155E+02</pdfrwt>
<pdfrwt beam="1">  1       -2 0.11919653E-02 0.93893155E+02</pdfrwt>
<totfact> 0.16282231E+05</totfact>
</mgrwt>
</event>
<event>
 7    1  0.3337990E-009  0.9623235E+02  0.7818608E-02  0.1288424E+00
         -2   -1    0    0    0  501 -0.00000000000E+00  0.00000000000E+00  0.81341418796E+01  0.81341422793E+01  0.25500000000E-02 0.  1.
          2   -1    0    0  501    0  0.00000000000E+00 -0.00000000000E+00 -0.28462331180E+03  0.28462331181E+03  0.25500000000E-02 0. -1.
         23    2    1    2    0    0  0.00000000000E+00  0.00000000000E+00 -0.27648916992E+03  0.29275745409E+03  0.96232353407E+02 0.  0.
    9000005    2    3    3    0    0  0.38631202923E+02 -0.32471184639E+01 -0.22422309657E+03  0.22768321924E+03  0.77934377268E+01 0.  0.
         22    1    3    3    0    0 -0.38631202923E+02  0.32471184639E+01 -0.52266073348E+02  0.65074234846E+02  0.00000000000E+00 0.  1.
         22    1    4    4    0    0  0.93779045457E+01 -0.38220459859E+01 -0.66960118150E+02  0.67721566372E+02  0.00000000000E+00 0.  1.
         22    1    4    4    0    0  0.29253298377E+02  0.57492752198E+00 -0.15726297842E+03  0.15996165287E+03  0.00000000000E+00 0.  1.
<mgrwt>
<rscale>  0 0.96232353E+02</rscale>
<asrwt>0</asrwt>
<pdfrwt beam="2">  1        2 0.43788194E-01 0.96232353E+02</pdfrwt>
<pdfrwt beam="1">  1       -2 0.12514067E-02 0.96232353E+02</pdfrwt>
<totfact> 0.15244465E+05</totfact>
</mgrwt>
</event>
<event>
 7    1  0.3337990E-009  0.1030562E+03  0.7818608E-02  0.1273997E+00
         -2   -1    0    0    0  501 -0.00000000000E+00  0.00000000000E+00  0.23056780923E+03  0.23056780924E+03  0.25500000000E-02 0.  1.
          2   -1    0    0  501    0  0.00000000000E+00 -0.00000000000E+00 -0.11515685389E+02  0.11515685672E+02  0.25500000000E-02 0. -1.
         23    2    1    2    0    0  0.00000000000E+00  0.00000000000E+00  0.21905212384E+03  0.24208349492E+03  0.10305622519E+03 0.  0.
    9000005    2    3    3    0    0  0.25691300932E+02 -0.29826760482E+02  0.18581754443E+03  0.19056441250E+03  0.15393404699E+02 0.  0.
         22    1    3    3    0    0 -0.25691300932E+02  0.29826760482E+02  0.33234579407E+02  0.51519082414E+02  0.00000000000E+00 0. -1.
         22    1    4    4    0    0  0.15602465715E+02 -0.23137769089E+02  0.15427890408E+03  0.15678256771E+03  0.00000000000E+00 0. -1.
         22    1    4    4    0    0  0.10088835217E+02 -0.66889913926E+01  0.31538640353E+02  0.33781844787E+02  0.00000000000E+00 0. -1.
<mgrwt>
<rscale>  0 0.10305623E+03</rscale>
<asrwt>0</asrwt>
<pdfrwt beam="2">  1        2 0.17716440E-02 0.10305623E+03</pdfrwt>
<pdfrwt beam="1">  1       -2 0.35471970E-01 0.10305623E+03</pdfrwt>
<totfact> 0.42661864E+04</totfact>
</mgrwt>
</event>
<event>
 7    1  0.3337990E-009  0.9070800E+02  0.7818608E-02  0.1301146E+00
         -2   -1    0    0    0  501 -0.00000000000E+00  0.00000000000E+00  0.82828814376E+02  0.82828814416E+02  0.25500000000E-02 0.  1.
          2   -1    0    0  501    0  0.00000000000E+00 -0.00000000000E+00 -0.24834177679E+02  0.24834177810E+02  0.25500000000E-02 0. -1.
         23    2    1    2    0    0  0.35527136788E-14  0.35527136788E-14  0.57994636697E+02  0.10766299223E+03  0.90708004109E+02 0.  0.
    9000005    2    3    3    0    0 -0.19816481977E+02 -0.24745750769E+02 -0.83248271324E+01  0.34155738015E+02  0.96055480578E+01 0.  0.
         22    1    3    3    0    0  0.19816481977E+02  0.24745750769E+02  0.66319463829E+02  0.73507254211E+02  0.00000000000E+00 0.  1.
         22    1    4    4    0    0 -0.94169904060E+01 -0.15301438889E+02 -0.89928773757E+01  0.20091928327E+02  0.00000000000E+00 0.  1.
         22    1    4    4    0    0 -0.10399491571E+02 -0.94443118794E+01  0.66805024333E+00  0.14063809688E+02  0.00000000000E+00 0.  1.
<mgrwt>
<rscale>  0 0.90708004E+02</rscale>
<asrwt>0</asrwt>
<pdfrwt beam="2">  1        2 0.38206427E-02 0.90708004E+02</pdfrwt>
<pdfrwt beam="1">  1       -2 0.12742895E-01 0.90708004E+02</pdfrwt>
<totfact> 0.85338090E+04</totfact>
</mgrwt>
</event>
<event>
 7    1  0.3337990E-009  0.9261177E+02  0.7818608E-02  0.1296647E+00
         -2   -1    0    0    0  501 -0.00000000000E+00  0.00000000000E+00  0.20973106474E+02  0.20973106629E+02  0.25500000000E-02 0. -1.
          2   -1    0    0  501    0  0.00000000000E+00 -0.00000000000E+00 -0.10223735660E+03  0.10223735664E+03  0.25500000000E-02 0.  1.
         23    2    1    2    0    0  0.00000000000E+00  0.00000000000E+00 -0.81264250130E+02  0.12321046326E+03  0.92611769816E+02 0.  0.
    9000005    2    3    3    0    0  0.72752776253E+01  0.32779464115E+02  0.14487021852E+01  0.33942017479E+02  0.47475130677E+01 0.  0.
         22    1    3    3    0    0 -0.72752776253E+01 -0.32779464115E+02 -0.82712952315E+02  0.89268445785E+02  0.00000000000E+00 0.  1.
         22    1    4    4    0    0  0.49008503076E+01  0.23202701345E+02  0.31723272046E+01  0.23925871841E+02  0.00000000000E+00 0.  1.
         22    1    4    4    0    0  0.23744273177E+01  0.95767627699E+01 -0.17236250194E+01  0.10016145638E+02  0.00000000000E+00 0.  1.
<mgrwt>
<rscale>  0 0.92611770E+02</rscale>
<asrwt>0</asrwt>
<pdfrwt beam="2">  1        2 0.15728824E-01 0.92611770E+02</pdfrwt>
<pdfrwt beam="1">  1       -2 0.32266318E-02 0.92611770E+02</pdfrwt>
<totfact> 0.11830520E+05</totfact>
</mgrwt>
</event>
<event>
 7    1  0.3337990E-009  0.8977636E+02  0.7818608E-02  0.1303394E+00
         -2   -1    0    0    0  501 -0.00000000000E+00  0.00000000000E+00  0.32482224264E+01  0.32482234273E+01  0.25500000000E-02 0. -1.
          2   -1    0    0  501    0  0.00000000000E+00 -0.00000000000E+00 -0.62032345618E+03  0.62032345619E+03  0.25500000000E-02 0.  1.
         23    2    1    2    0    0  0.00000000000E+00  0.00000000000E+00 -0.61707523376E+03  0.62357167962E+03  0.89776363831E+02 0.  0.
    9000005    2    3    3    0    0  0.36937675778E+02  0.21537255318E+02 -0.37902967388E+03  0.38171648774E+03  0.14688024885E+02 0.  0.
         22    1    3    3    0    0 -0.36937675778E+02 -0.21537255318E+02 -0.23804555988E+03  0.24185519187E+03  0.00000000000E+00 0.  1.
         22    1    4    4    0    0  0.30513277655E+01  0.11156546106E+01 -0.81886551523E+02  0.81950976850E+02  0.00000000000E+00 0.  1.
         22    1    4    4    0    0  0.33886348013E+02  0.20421600707E+02 -0.29714312236E+03  0.29976551089E+03  0.00000000000E+00 0.  1.
<mgrwt>
<rscale>  0 0.89776364E+02</rscale>
<asrwt>0</asrwt>
<pdfrwt beam="2">  1        2 0.95434284E-01 0.89776364E+02</pdfrwt>
<pdfrwt beam="1">  1       -2 0.49972710E-03 0.89776364E+02</pdfrwt>
<totfact> 0.23955799E+05</totfact>
</mgrwt>
</event>
<event>
 7    1  0.3337990E-009  0.7645093E+02  0.7818608E-02  0.1339436E+00
         -2   -1    0    0    0  501 -0.00000000000E+00  0.00000000000E+00  0.27205218719E+02  0.27205218838E+02  0.25500000000E-02 0.  1.
          2   -1    0    0  501    0  0.00000000000E+00 -0.00000000000E+00 -0.53709768949E+02  0.53709769010E+02  0.25500000000E-02 0. -1.
         23    2    1    2    0    0  0.44408920985E-15  0.00000000000E+00 -0.26504550230E+02  0.80914987848E+02  0.76450925930E+02 0.  0.
    9000005    2    3    3    0    0  0.33714701981E+01  0.23397953372E+02 -0.43692126407E+02  0.51687538282E+02  0.14274756403E+02 0.  0.
         22    1    3    3    0    0 -0.33714701981E+01 -0.23397953372E+02  0.17187576177E+02  0.29227449566E+02  0.00000000000E+00 0.  1.
         22    1    4    4    0    0  0.71593601014E+01  0.90120144492E+01 -0.26869307015E+02  0.29230677394E+02  0.00000000000E+00 0.  1.
         22    1    4    4    0    0 -0.37878899033E+01  0.14385938923E+02 -0.16822819393E+02  0.22456860887E+02  0.00000000000E+00 0.  1.
<mgrwt>
<rscale>  0 0.76450926E+02</rscale>
<asrwt>0</asrwt>
<pdfrwt beam="2">  1        2 0.82630414E-02 0.76450926E+02</pdfrwt>
<pdfrwt beam="1">  1       -2 0.41854183E-02 0.76450926E+02</pdfrwt>
<totfact> 0.16844460E+05</totfact>
</mgrwt>
</event>
<event>
 7    1  0.3338173E-009  0.9102015E+02  0.7818608E-02  0.1300400E+00
          2   -1    0    0  501    0  0.00000000000E+00  0.00000000000E+00  0.19674550849E+03  0.19674550851E+03  0.25500000000E-02 0. -1.
         -2   -1    0    0    0  501 -0.00000000000E+00 -0.00000000000E+00 -0.10527135835E+02  0.10527136144E+02  0.25500000000E-02 0.  1.
         23    2    1    2    0    0  0.00000000000E+00  0.00000000000E+00  0.18621837265E+03  0.20727264465E+03  0.91020145604E+02 0.  0.
    9000005    2    3    3    0    0 -0.44186220544E+02 -0.35731688563E+01  0.92608789442E+02  0.10369685746E+03  0.14541689881E+02 0.  0.
         22    1    3    3    0    0  0.44186220544E+02  0.35731688563E+01  0.93609583212E+02  0.10357578718E+03  0.00000000000E+00 0.  1.
         22    1    4    4    0    0 -0.38203590207E+02  0.14393414487E+01  0.69719889370E+02  0.79513828874E+02  0.00000000000E+00 0. -1.
         22    1    4    4    0    0 -0.59826303362E+01 -0.50125103050E+01  0.22888900072E+02  0.24183028590E+02  0.00000000000E+00 0. -1.
<mgrwt>
<rscale>  0 0.91020146E+02</rscale>
<asrwt>0</asrwt>
<pdfrwt beam="1">  1        2 0.30268539E-01 0.91020146E+02</pdfrwt>
<pdfrwt beam="2">  1       -2 0.16195595E-02 0.91020146E+02</pdfrwt>
<totfact> 0.15448030E+05</totfact>
</mgrwt>
</event>
<event>
 7    1  0.3337990E-009  0.9077015E+02  0.7818608E-02  0.1300997E+00
          2   -1    0    0  501    0  0.00000000000E+00  0.00000000000E+00  0.32456807890E+02  0.32456807990E+02  0.25500000000E-02 0.  1.
         -2   -1    0    0    0  501 -0.00000000000E+00 -0.00000000000E+00 -0.63462962789E+02  0.63462962840E+02  0.25500000000E-02 0. -1.
         23    2    1    2    0    0  0.71054273576E-14  0.00000000000E+00 -0.31006154898E+02  0.95919770830E+02  0.90770153655E+02 0.  0.
    9000005    2    3    3    0    0 -0.42887744441E+02 -0.12391735954E+02 -0.13216735605E+02  0.47863791161E+02  0.11106154199E+02 0.  0.
         22    1    3    3    0    0  0.42887744441E+02  0.12391735954E+02 -0.17789419294E+02  0.48055979669E+02  0.00000000000E+00 0.  1.
         22    1    4    4    0    0 -0.39177515913E+02 -0.14400993922E+02 -0.11394631597E+02  0.43267817235E+02  0.00000000000E+00 0. -1.
         22    1    4    4    0    0 -0.37102285276E+01  0.20092579686E+01 -0.18221040072E+01  0.45959739255E+01  0.00000000000E+00 0. -1.
<mgrwt>
<rscale>  0 0.90770154E+02</rscale>
<asrwt>0</asrwt>
<pdfrwt beam="1">  1        2 0.49933551E-02 0.90770154E+02</pdfrwt>
<pdfrwt beam="2">  1       -2 0.97635328E-02 0.90770154E+02</pdfrwt>
<totfact> 0.91529158E+04</totfact>
</mgrwt>
</event>
<event>
 7    1  0.3337990E-009  0.8976578E+02  0.7818608E-02  0.1303420E+00
          2   -1    0    0  501    0  0.00000000000E+00  0.00000000000E+00  0.37629416592E+02  0.37629416678E+02  0.25500000000E-02 0.  1.
         -2   -1    0    0    0  501 -0.00000000000E+00 -0.00000000000E+00 -0.53534548883E+02  0.53534548944E+02  0.25500000000E-02 0. -1.
         23    2    1    2    0    0  0.00000000000E+00 -0.71054273576E-14 -0.15905132292E+02  0.91163965622E+02  0.89765780756E+02 0.  0.
    9000005    2    3    3    0    0  0.26965129821E+01  0.39224282058E+02 -0.29888288082E+02  0.49434549965E+02  0.21562654204E+01 0.  0.
         22    1    3    3    0    0 -0.26965129821E+01 -0.39224282058E+02  0.13983155790E+02  0.41729415657E+02  0.00000000000E+00 0.  1.
         22    1    4    4    0    0  0.16154118469E+01  0.34104743722E+02 -0.25829900675E+02  0.42812695181E+02  0.00000000000E+00 0.  1.
         22    1    4    4    0    0  0.10811011352E+01  0.51195383355E+01 -0.40583874068E+01  0.66218547837E+01  0.00000000000E+00 0.  1.
<mgrwt>
<rscale>  0 0.89765781E+02</rscale>
<asrwt>0</asrwt>
<pdfrwt beam="1">  1        2 0.57891410E-02 0.89765781E+02</pdfrwt>
<pdfrwt beam="2">  1       -2 0.82360845E-02 0.89765781E+02</pdfrwt>
<totfact> 0.98239442E+04</totfact>
</mgrwt>
</event>
<event>
 7    1  0.3337990E-009  0.9125620E+02  0.7818608E-02  0.1299838E+00
          2   -1    0    0  501    0  0.00000000000E+00  0.00000000000E+00  0.15319415052E+04  0.15319415052E+04  0.25500000000E-02 0. -1.
         -2   -1    0    0    0  501 -0.00000000000E+00 -0.00000000000E+00 -0.13590085998E+01  0.13590109922E+01  0.25500000000E-02 0.  1.
         23    2    1    2    0    0  0.00000000000E+00  0.35527136788E-14  0.15305824966E+04  0.15333005162E+04  0.91256200133E+02 0.  0.
    9000005    2    3    3    0    0 -0.73130093846E+01 -0.20709750225E+02  0.14348139332E+04  0.14350457881E+04  0.13528382301E+02 0.  0.
         22    1    3    3    0    0  0.73130093846E+01  0.20709750225E+02  0.95768563406E+02  0.98254728118E+02  0.00000000000E+00 0.  1.
         22    1    4    4    0    0 -0.32308812646E+01 -0.14712456833E+02  0.12482088427E+04  0.12482997276E+04  0.00000000000E+00 0. -1.
         22    1    4    4    0    0 -0.40821281200E+01 -0.59972933913E+01  0.18660509049E+03  0.18674606046E+03  0.00000000000E+00 0. -1.
<mgrwt>
<rscale>  0 0.91256200E+02</rscale>
<asrwt>0</asrwt>
<pdfrwt beam="1">  1        2 0.23568609E+00 0.91256200E+02</pdfrwt>
<pdfrwt beam="2">  1       -2 0.20907596E-03 0.91256200E+02</pdfrwt>
<totfact> 0.23347755E+05</totfact>
</mgrwt>
</event>
<event>
 7    1  0.3337990E-009  0.8735690E+02  0.7818608E-02  0.1309382E+00
          2   -1    0    0  501    0  0.00000000000E+00  0.00000000000E+00  0.47427111478E+03  0.47427111479E+03  0.25500000000E-02 0. -1.
         -2   -1    0    0    0  501 -0.00000000000E+00 -0.00000000000E+00 -0.40226079051E+01  0.40226087133E+01  0.25500000000E-02 0.  1.
         23    2    1    2    0    0 -0.17763568394E-14  0.71054273576E-14  0.47024850688E+03  0.47829372350E+03  0.87356898535E+02 0.  0.
    9000005    2    3    3    0    0 -0.10996560998E+02  0.41761967046E+02  0.27025858603E+03  0.27369422524E+03  0.19594300338E+01 0.  0.
         22    1    3    3    0    0  0.10996560998E+02 -0.41761967046E+02  0.19998992085E+03  0.20459949826E+03  0.00000000000E+00 0. -1.
         22    1    4    4    0    0 -0.47659980452E+01  0.21458986177E+02  0.14047846630E+03  0.14218791200E+03  0.00000000000E+00 0.  1.
         22    1    4    4    0    0 -0.62305629530E+01  0.20302980869E+02  0.12978011972E+03  0.13150631324E+03  0.00000000000E+00 0.  1.
<mgrwt>
<rscale>  0 0.87356899E+02</rscale>
<asrwt>0</asrwt>
<pdfrwt beam="1">  1        2 0.72964787E-01 0.87356899E+02</pdfrwt>
<pdfrwt beam="2">  1       -2 0.61886281E-03 0.87356899E+02</pdfrwt>
<totfact> 0.23712246E+05</totfact>
</mgrwt>
</event>
<event>
 7    1  0.3337990E-009  0.9228924E+02  0.7818608E-02  0.1297401E+00
         -2   -1    0    0    0  501 -0.00000000000E+00  0.00000000000E+00  0.13588599309E+02  0.13588599549E+02  0.25500000000E-02 0.  1.
          2   -1    0    0  501    0  0.00000000000E+00 -0.00000000000E+00 -0.15669945297E+03  0.15669945300E+03  0.25500000000E-02 0. -1.
         23    2    1    2    0    0  0.00000000000E+00  0.00000000000E+00 -0.14311085367E+03  0.17028805254E+03  0.92289243157E+02 0.  0.
    9000005    2    3    3    0    0 -0.38048588342E+02 -0.85686114556E+01 -0.11486896324E+03  0.12213495761E+03  0.14175788416E+02 0.  0.
         22    1    3    3    0    0  0.38048588342E+02  0.85686114556E+01 -0.28241890426E+02  0.48153094936E+02  0.00000000000E+00 0.  1.
         22    1    4    4    0    0 -0.17605652123E+02 -0.11126961268E+02 -0.61247641899E+02  0.64691899740E+02  0.00000000000E+00 0. -1.
         22    1    4    4    0    0 -0.20442936219E+02  0.25583498129E+01 -0.53621321340E+02  0.57443057868E+02  0.00000000000E+00 0. -1.
<mgrwt>
<rscale>  0 0.92289243E+02</rscale>
<asrwt>0</asrwt>
<pdfrwt beam="2">  1        2 0.24107607E-01 0.92289243E+02</pdfrwt>
<pdfrwt beam="1">  1       -2 0.20905539E-02 0.92289243E+02</pdfrwt>
<totfact> 0.13731770E+05</totfact>
</mgrwt>
</event>
<event>
 7    1  0.3337990E-009  0.9236730E+02  0.7818608E-02  0.1297218E+00
         -2   -1    0    0    0  501 -0.00000000000E+00  0.00000000000E+00  0.11977647892E+02  0.11977648164E+02  0.25500000000E-02 0.  1.
          2   -1    0    0  501    0  0.00000000000E+00 -0.00000000000E+00 -0.17807581548E+03  0.17807581550E+03  0.25500000000E-02 0. -1.
         23    2    1    2    0    0  0.88817841970E-15  0.00000000000E+00 -0.16609816759E+03  0.19005346366E+03  0.92367298184E+02 0.  0.
    9000005    2    3    3    0    0 -0.58408570881E+01  0.43921185091E+02 -0.10233314306E+03  0.11240576914E+03  0.14135015261E+02 0.  0.
         22    1    3    3    0    0  0.58408570881E+01 -0.43921185091E+02 -0.63765024524E+02  0.77647694517E+02  0.00000000000E+00 0. -1.
         22    1    4    4    0    0 -0.83459110429E+00 -0.58220694283E+00 -0.70475639427E+01  0.71206505856E+01  0.00000000000E+00 0. -1.
         22    1    4    4    0    0 -0.50062659838E+01  0.44503392033E+02 -0.95285579121E+02  0.10528511856E+03  0.00000000000E+00 0. -1.
<mgrwt>
<rscale>  0 0.92367298E+02</rscale>
<asrwt>0</asrwt>
<pdfrwt beam="2">  1        2 0.27396277E-01 0.92367298E+02</pdfrwt>
<pdfrwt beam="1">  1       -2 0.18427152E-02 0.92367298E+02</pdfrwt>
<totfact> 0.14326383E+05</totfact>
</mgrwt>
</event>
<event>
 7    1  0.3337990E-009  0.9183339E+02  0.7818608E-02  0.1298472E+00
         -2   -1    0    0    0  501 -0.00000000000E+00  0.00000000000E+00  0.10178494413E+02  0.10178494732E+02  0.25500000000E-02 0.  1.
          2   -1    0    0  501    0  0.00000000000E+00 -0.00000000000E+00 -0.20713702204E+03  0.20713702206E+03  0.25500000000E-02 0. -1.
         23    2    1    2    0    0  0.00000000000E+00  0.35527136788E-14 -0.19695852763E+03  0.21731551679E+03  0.91833393881E+02 0.  0.
    9000005    2    3    3    0    0 -0.35361804026E+02  0.28055021508E+02 -0.85544234949E+02  0.97104510516E+02  0.85981633990E+01 0.  0.
         22    1    3    3    0    0  0.35361804026E+02 -0.28055021508E+02 -0.11141429268E+03  0.12021100627E+03  0.00000000000E+00 0. -1.
         22    1    4    4    0    0 -0.23958301575E+02  0.19537534863E+02 -0.49608890408E+02  0.58453036622E+02  0.00000000000E+00 0. -1.
         22    1    4    4    0    0 -0.11403502451E+02  0.85174866457E+01 -0.35935344541E+02  0.38651473894E+02  0.00000000000E+00 0. -1.
<mgrwt>
<rscale>  0 0.91833394E+02</rscale>
<asrwt>0</asrwt>
<pdfrwt beam="2">  1        2 0.31867231E-01 0.91833394E+02</pdfrwt>
<pdfrwt beam="1">  1       -2 0.15659224E-02 0.91833394E+02</pdfrwt>
<totfact> 0.15366021E+05</totfact>
</mgrwt>
</event>
<event>
 7    1  0.3337990E-009  0.9027282E+02  0.7818608E-02  0.1302192E+00
         -2   -1    0    0    0  501 -0.00000000000E+00  0.00000000000E+00  0.20798235764E+02  0.20798235920E+02  0.25500000000E-02 0.  1.
          2   -1    0    0  501    0  0.00000000000E+00 -0.00000000000E+00 -0.97955209482E+02  0.97955209515E+02  0.25500000000E-02 0. -1.
         23    2    1    2    0    0 -0.17763568394E-14  0.00000000000E+00 -0.77156973718E+02  0.11875344544E+03  0.90272820990E+02 0.  0.
    9000005    2    3    3    0    0  0.81146136837E+01 -0.97044711205E+01 -0.94956742765E+02  0.96916424277E+02  0.14696482003E+02 0.  0.
         22    1    3    3    0    0 -0.81146136837E+01  0.97044711205E+01  0.17799769047E+02  0.21837021158E+02  0.00000000000E+00 0.  1.
         22    1    4    4    0    0  0.23581914226E+01  0.31604819170E+01 -0.39514817822E+02  0.39711088379E+02  0.00000000000E+00 0. -1.
         22    1    4    4    0    0  0.57564222611E+01 -0.12864953037E+02 -0.55441924943E+02  0.57205335898E+02  0.00000000000E+00 0. -1.
<mgrwt>
<rscale>  0 0.90272821E+02</rscale>
<asrwt>0</asrwt>
<pdfrwt beam="2">  1        2 0.15070032E-01 0.90272821E+02</pdfrwt>
<pdfrwt beam="1">  1       -2 0.31997286E-02 0.90272821E+02</pdfrwt>
<totfact> 0.12529764E+05</totfact>
</mgrwt>
</event>
<event>
 7    1  0.3337990E-009  0.9123503E+02  0.7818608E-02  0.1299888E+00
          2   -1    0    0  501    0  0.00000000000E+00  0.00000000000E+00  0.20255849119E+03  0.20255849121E+03  0.25500000000E-02 0. -1.
         -2   -1    0    0    0  501 -0.00000000000E+00 -0.00000000000E+00 -0.10273367229E+02  0.10273367546E+02  0.25500000000E-02 0.  1.
         23    2    1    2    0    0  0.35527136788E-14 -0.35527136788E-14  0.19228512396E+03  0.21283185875E+03  0.91235032763E+02 0.  0.
    9000005    2    3    3    0    0  0.23935386182E+02 -0.22197746172E+02  0.16989573696E+03  0.17324742624E+03  0.91905721459E+01 0.  0.
         22    1    3    3    0    0 -0.23935386182E+02  0.22197746172E+02  0.22389387004E+02  0.39584432511E+02  0.00000000000E+00 0.  1.
         22    1    4    4    0    0  0.13016876583E+02 -0.17090886914E+02  0.12066269863E+03  0.12256028856E+03  0.00000000000E+00 0.  1.
         22    1    4    4    0    0  0.10918509599E+02 -0.51068592573E+01  0.49233038328E+02  0.50687137682E+02  0.00000000000E+00 0.  1.
<mgrwt>
<rscale>  0 0.91235033E+02</rscale>
<asrwt>0</asrwt>
<pdfrwt beam="1">  1        2 0.31162848E-01 0.91235033E+02</pdfrwt>
<pdfrwt beam="2">  1       -2 0.15805179E-02 0.91235033E+02</pdfrwt>
<totfact> 0.15512611E+05</totfact>
</mgrwt>
</event>
<event>
 7    1  0.3337990E-009  0.9177731E+02  0.7818608E-02  0.1298604E+00
          2   -1    0    0  501    0  0.00000000000E+00  0.00000000000E+00  0.50540400593E+03  0.50540400594E+03  0.25500000000E-02 0. -1.
         -2   -1    0    0    0  501 -0.00000000000E+00 -0.00000000000E+00 -0.41665054934E+01  0.41665062737E+01  0.25500000000E-02 0.  1.
         23    2    1    2    0    0  0.00000000000E+00  0.35527136788E-14  0.50123750044E+03  0.50957051221E+03  0.91777312393E+02 0.  0.
    9000005    2    3    3    0    0 -0.41956750622E+02  0.14818095421E+02  0.26538321503E+03  0.26955553597E+03  0.15874233145E+02 0.  0.
         22    1    3    3    0    0  0.41956750622E+02 -0.14818095421E+02  0.23585428541E+03  0.24001497624E+03  0.00000000000E+00 0.  1.
         22    1    4    4    0    0 -0.16359044065E+02 -0.16381339501E+01  0.10981754590E+03  0.11104141206E+03  0.00000000000E+00 0.  1.
         22    1    4    4    0    0 -0.25597706558E+02  0.16456229371E+02  0.15556566913E+03  0.15851412391E+03  0.00000000000E+00 0.  1.
<mgrwt>
<rscale>  0 0.91777312E+02</rscale>
<asrwt>0</asrwt>
<pdfrwt beam="1">  1        2 0.77754473E-01 0.91777312E+02</pdfrwt>
<pdfrwt beam="2">  1       -2 0.64100082E-03 0.91777312E+02</pdfrwt>
<totfact> 0.21252184E+05</totfact>
</mgrwt>
</event>
<event>
 7    1  0.3337990E-009  0.9072296E+02  0.7818608E-02  0.1301110E+00
          2   -1    0    0  501    0  0.00000000000E+00  0.00000000000E+00  0.31685390556E+03  0.31685390557E+03  0.25500000000E-02 0.  1.
         -2   -1    0    0    0  501 -0.00000000000E+00 -0.00000000000E+00 -0.64940461192E+01  0.64940466198E+01  0.25500000000E-02 0. -1.
         23    2    1    2    0    0  0.00000000000E+00  0.00000000000E+00  0.31035985945E+03  0.32334795219E+03  0.90722961997E+02 0.  0.
    9000005    2    3    3    0    0  0.28507494962E+02 -0.31362126987E+02  0.20983119689E+03  0.21425041660E+03  0.88232389743E+01 0.  0.
         22    1    3    3    0    0 -0.28507494962E+02  0.31362126987E+02  0.10052866256E+03  0.10909753560E+03  0.00000000000E+00 0. -1.
         22    1    4    4    0    0  0.11120210331E+02 -0.66643437733E+01  0.55867539567E+02  0.57352022920E+02  0.00000000000E+00 0.  1.
         22    1    4    4    0    0  0.17387284630E+02 -0.24697783213E+02  0.15396365732E+03  0.15689839368E+03  0.00000000000E+00 0.  1.
<mgrwt>
<rscale>  0 0.90722962E+02</rscale>
<asrwt>0</asrwt>
<pdfrwt beam="1">  1        2 0.48746757E-01 0.90722962E+02</pdfrwt>
<pdfrwt beam="2">  1       -2 0.99908402E-03 0.90722962E+02</pdfrwt>
<totfact> 0.18580121E+05</totfact>
</mgrwt>
</event>
<event>
 7    1  0.3337990E-009  0.9133236E+02  0.7818608E-02  0.1299657E+00
          2   -1    0    0  501    0  0.00000000000E+00  0.00000000000E+00  0.40337381454E+03  0.40337381455E+03  0.25500000000E-02 0. -1.
         -2   -1    0    0    0  501 -0.00000000000E+00 -0.00000000000E+00 -0.51698940619E+01  0.51698946908E+01  0.25500000000E-02 0.  1.
         23    2    1    2    0    0  0.00000000000E+00  0.88817841970E-15  0.39820392048E+03  0.40854370924E+03  0.91332360500E+02 0.  0.
    9000005    2    3    3    0    0  0.20017304865E+02 -0.70594035840E+01  0.37977325290E+03  0.38043290739E+03  0.71376282445E+01 0.  0.
         22    1    3    3    0    0 -0.20017304865E+02  0.70594035840E+01  0.18430667579E+02  0.28110801845E+02  0.00000000000E+00 0.  1.
         22    1    4    4    0    0  0.11778032995E+01 -0.14360770623E+01  0.76769388184E+02  0.76791851782E+02  0.00000000000E+00 0. -1.
         22    1    4    4    0    0  0.18839501565E+02 -0.56233265217E+01  0.30300386472E+03  0.30364105561E+03  0.00000000000E+00 0. -1.
<mgrwt>
<rscale>  0 0.91332361E+02</rscale>
<asrwt>0</asrwt>
<pdfrwt beam="1">  1        2 0.62057512E-01 0.91332361E+02</pdfrwt>
<pdfrwt beam="2">  1       -2 0.79536834E-03 0.91332361E+02</pdfrwt>
<totfact> 0.19932017E+05</totfact>
</mgrwt>
</event>
<event>
 7    1  0.3337990E-009  0.9393523E+02  0.7818608E-02  0.1293592E+00
          2   -1    0    0  501    0  0.00000000000E+00  0.00000000000E+00  0.65728538690E+03  0.65728538690E+03  0.25500000000E-02 0. -1.
         -2   -1    0    0    0  501 -0.00000000000E+00 -0.00000000000E+00 -0.33561625415E+01  0.33561635102E+01  0.25500000000E-02 0.  1.
         23    2    1    2    0    0  0.00000000000E+00  0.00000000000E+00  0.65392922435E+03  0.66064155041E+03  0.93935231222E+02 0.  0.
    9000005    2    3    3    0    0 -0.68893055871E+01 -0.39283827783E+02  0.49452428879E+03  0.49632291137E+03  0.13837575018E+02 0.  0.
         22    1    3    3    0    0  0.68893055871E+01  0.39283827783E+02  0.15940493556E+03  0.16431863904E+03  0.00000000000E+00 0.  1.
         22    1    4    4    0    0 -0.18627974330E+01 -0.29426876836E+02  0.28880546580E+03  0.29030674841E+03  0.00000000000E+00 0.  1.
         22    1    4    4    0    0 -0.50265081541E+01 -0.98569509472E+01  0.20571882299E+03  0.20601616296E+03  0.00000000000E+00 0.  1.
<mgrwt>
<rscale>  0 0.93935231E+02</rscale>
<asrwt>0</asrwt>
<pdfrwt beam="1">  1        2 0.10112083E+00 0.93935231E+02</pdfrwt>
<pdfrwt beam="2">  1       -2 0.51633276E-03 0.93935231E+02</pdfrwt>
<totfact> 0.21582854E+05</totfact>
</mgrwt>
</event>
<event>
 7    1  0.3337990E-009  0.9112237E+02  0.7818608E-02  0.1300156E+00
         -2   -1    0    0    0  501 -0.00000000000E+00  0.00000000000E+00  0.79078303294E+02  0.79078303335E+02  0.25500000000E-02 0.  1.
          2   -1    0    0  501    0  0.00000000000E+00 -0.00000000000E+00 -0.26250202864E+02  0.26250202988E+02  0.25500000000E-02 0. -1.
         23    2    1    2    0    0  0.00000000000E+00  0.00000000000E+00  0.52828100430E+02  0.10532850632E+03  0.91122368545E+02 0.  0.
    9000005    2    3    3    0    0  0.99487533380E+01  0.13483723731E+02 -0.20933536204E+02  0.29687462323E+02  0.12741427806E+02 0.  0.
         22    1    3    3    0    0 -0.99487533380E+01 -0.13483723731E+02  0.73761636634E+02  0.75641044001E+02  0.00000000000E+00 0.  1.
         22    1    4    4    0    0  0.29923019184E+01 -0.21343537511E+01 -0.57334502101E+01  0.68104176096E+01  0.00000000000E+00 0.  1.
         22    1    4    4    0    0  0.69564514196E+01  0.15618077482E+02 -0.15200085994E+02  0.22877044713E+02  0.00000000000E+00 0.  1.
<mgrwt>
<rscale>  0 0.91122369E+02</rscale>
<asrwt>0</asrwt>
<pdfrwt beam="2">  1        2 0.40384927E-02 0.91122369E+02</pdfrwt>
<pdfrwt beam="1">  1       -2 0.12165893E-01 0.91122369E+02</pdfrwt>
<totfact> 0.85476471E+04</totfact>
</mgrwt>
</event>
<event>
 7    1  0.3337990E-009  0.9079033E+02  0.7818608E-02  0.1300949E+00
          2   -1    0    0  501    0  0.00000000000E+00  0.00000000000E+00  0.81813274750E+02  0.81813274789E+02  0.25500000000E-02 0. -1.
         -2   -1    0    0    0  501 -0.00000000000E+00 -0.00000000000E+00 -0.25188102830E+02  0.25188102959E+02  0.25500000000E-02 0.  1.
         23    2    1    2    0    0  0.00000000000E+00  0.44408920985E-15  0.56625171920E+02  0.10700137775E+03  0.90790333985E+02 0.  0.
    9000005    2    3    3    0    0 -0.20417733432E+02 -0.36576301710E+01  0.75592320623E+02  0.78894175346E+02  0.89347562531E+01 0.  0.
         22    1    3    3    0    0  0.20417733432E+02  0.36576301710E+01 -0.18967148704E+02  0.28107202403E+02  0.00000000000E+00 0.  1.
         22    1    4    4    0    0 -0.98757278896E+01  0.76777773669E+00  0.22486662185E+02  0.24571720742E+02  0.00000000000E+00 0.  1.
         22    1    4    4    0    0 -0.10542005542E+02 -0.44254079077E+01  0.53105658438E+02  0.54322454604E+02  0.00000000000E+00 0.  1.
<mgrwt>
<rscale>  0 0.90790334E+02</rscale>
<asrwt>0</asrwt>
<pdfrwt beam="1">  1        2 0.12586658E-01 0.90790334E+02</pdfrwt>
<pdfrwt beam="2">  1       -2 0.38750927E-02 0.90790334E+02</pdfrwt>
<totfact> 0.11696725E+05</totfact>
</mgrwt>
</event>
<event>
 7    1  0.3337990E-009  0.9093083E+02  0.7818608E-02  0.1300613E+00
         -2   -1    0    0    0  501 -0.00000000000E+00  0.00000000000E+00  0.10175589363E+02  0.10175589682E+02  0.25500000000E-02 0.  1.
          2   -1    0    0  501    0  0.00000000000E+00 -0.00000000000E+00 -0.20314338879E+03  0.20314338880E+03  0.25500000000E-02 0. -1.
         23    2    1    2    0    0  0.00000000000E+00  0.00000000000E+00 -0.19296779942E+03  0.21331897849E+03  0.90930825178E+02 0.  0.
    9000005    2    3    3    0    0 -0.49775174630E+01 -0.21105873770E+02 -0.18961898452E+03  0.19137705175E+03  0.14127386802E+02 0.  0.
         22    1    3    3    0    0  0.49775174630E+01  0.21105873770E+02 -0.33488149052E+01  0.21941926738E+02  0.00000000000E+00 0.  1.
         22    1    4    4    0    0 -0.42547128799E+01 -0.22864759607E+02 -0.15818103459E+03  0.15988164222E+03  0.00000000000E+00 0. -1.
         22    1    4    4    0    0 -0.72280458312E+00  0.17588858367E+01 -0.31437949927E+02  0.31495409530E+02  0.00000000000E+00 0. -1.
<mgrwt>
<rscale>  0 0.90930825E+02</rscale>
<asrwt>0</asrwt>
<pdfrwt beam="2">  1        2 0.31252826E-01 0.90930825E+02</pdfrwt>
<pdfrwt beam="1">  1       -2 0.15654755E-02 0.90930825E+02</pdfrwt>
<totfact> 0.15669063E+05</totfact>
</mgrwt>
</event>
<event>
 7    1  0.3337990E-009  0.9658482E+02  0.7818608E-02  0.1287646E+00
         -2   -1    0    0    0  501 -0.00000000000E+00  0.00000000000E+00  0.72503718628E+01  0.72503723112E+01  0.25500000000E-02 0.  1.
          2   -1    0    0  501    0  0.00000000000E+00 -0.00000000000E+00 -0.32166029417E+03  0.32166029418E+03  0.25500000000E-02 0. -1.
         23    2    1    2    0    0  0.00000000000E+00  0.00000000000E+00 -0.31440992231E+03  0.32891066649E+03  0.96584819131E+02 0.  0.
    9000005    2    3    3    0    0 -0.19364924258E+02 -0.39798196642E+02 -0.22247830576E+03  0.22687969635E+03  0.43477963748E+01 0.  0.
         22    1    3    3    0    0  0.19364924258E+02  0.39798196642E+02 -0.91931616546E+02  0.10203097014E+03  0.00000000000E+00 0.  1.
         22    1    4    4    0    0 -0.37267848967E+01 -0.49074727358E+01 -0.26579421257E+02  0.27284388369E+02  0.00000000000E+00 0.  1.
         22    1    4    4    0    0 -0.15638139362E+02 -0.34890723907E+02 -0.19589888451E+03  0.19959530798E+03  0.00000000000E+00 0.  1.
<mgrwt>
<rscale>  0 0.96584819E+02</rscale>
<asrwt>0</asrwt>
<pdfrwt beam="2">  1        2 0.49486188E-01 0.96584819E+02</pdfrwt>
<pdfrwt beam="1">  1       -2 0.11154421E-02 0.96584819E+02</pdfrwt>
<totfact> 0.15804090E+05</totfact>
</mgrwt>
</event>
<event>
 7    1  0.3337990E-009  0.9123625E+02  0.7818608E-02  0.1299885E+00
         -2   -1    0    0    0  501 -0.00000000000E+00  0.00000000000E+00  0.77648533868E+02  0.77648533910E+02  0.25500000000E-02 0.  1.
          2   -1    0    0  501    0  0.00000000000E+00 -0.00000000000E+00 -0.26800419006E+02  0.26800419128E+02  0.25500000000E-02 0. -1.
         23    2    1    2    0    0 -0.17763568394E-14  0.00000000000E+00  0.50848114862E+02  0.10444895304E+03  0.91236248310E+02 0.  0.
    9000005    2    3    3    0    0  0.89291707730E+01 -0.42241447310E+02  0.87349142112E+01  0.44136502991E+02  0.27680694430E+01 0.  0.
         22    1    3    3    0    0 -0.89291707730E+01  0.42241447310E+02  0.42113200650E+02  0.60312450046E+02  0.00000000000E+00 0.  1.
         22    1    4    4    0    0  0.75013992186E+01 -0.29659579025E+02  0.58055641502E+01  0.31139463600E+02  0.00000000000E+00 0.  1.
         22    1    4    4    0    0  0.14277715544E+01 -0.12581868285E+02  0.29293500610E+01  0.12997039391E+02  0.00000000000E+00 0.  1.
<mgrwt>
<rscale>  0 0.91236248E+02</rscale>
<asrwt>0</asrwt>
<pdfrwt beam="2">  1        2 0.41231414E-02 0.91236248E+02</pdfrwt>
<pdfrwt beam="1">  1       -2 0.11945928E-01 0.91236248E+02</pdfrwt>
<totfact> 0.85642768E+04</totfact>
</mgrwt>
</event>
<event>
 7    1  0.3337990E-009  0.8914409E+02  0.7818608E-02  0.1304938E+00
          2   -1    0    0  501    0  0.00000000000E+00  0.00000000000E+00  0.21768250967E+02  0.21768251116E+02  0.25500000000E-02 0. -1.
         -2   -1    0    0    0  501 -0.00000000000E+00 -0.00000000000E+00 -0.91264445098E+02  0.91264445133E+02  0.25500000000E-02 0.  1.
         23    2    1    2    0    0  0.00000000000E+00  0.00000000000E+00 -0.69496194131E+02  0.11303269625E+03  0.89144093594E+02 0.  0.
    9000005    2    3    3    0    0 -0.36311475213E+02  0.18184337158E+02 -0.56542608354E+02  0.70406545420E+02  0.10527189962E+02 0.  0.
         22    1    3    3    0    0  0.36311475213E+02 -0.18184337158E+02 -0.12953585777E+02  0.42626150829E+02  0.00000000000E+00 0.  1.
         22    1    4    4    0    0 -0.33548407901E+02  0.19465077008E+02 -0.50890258698E+02  0.63985961944E+02  0.00000000000E+00 0.  1.
         22    1    4    4    0    0 -0.27630673125E+01 -0.12807398500E+01 -0.56523496556E+01  0.64205834755E+01  0.00000000000E+00 0.  1.
<mgrwt>
<rscale>  0 0.89144094E+02</rscale>
<asrwt>0</asrwt>
<pdfrwt beam="1">  1        2 0.33489618E-02 0.89144094E+02</pdfrwt>
<pdfrwt beam="2">  1       -2 0.14040684E-01 0.89144094E+02</pdfrwt>
<totfact> 0.86678542E+04</totfact>
</mgrwt>
</event>
<event>
 7    1  0.3337990E-009  0.9251514E+02  0.7818608E-02  0.1296873E+00
          2   -1    0    0  501    0  0.00000000000E+00  0.00000000000E+00  0.41987138068E+03  0.41987138069E+03  0.25500000000E-02 0. -1.
         -2   -1    0    0    0  501 -0.00000000000E+00 -0.00000000000E+00 -0.50962337835E+01  0.50962344215E+01  0.25500000000E-02 0.  1.
         23    2    1    2    0    0  0.44408920985E-15  0.00000000000E+00  0.41477514690E+03  0.42496761511E+03  0.92515141510E+02 0.  0.
    9000005    2    3    3    0    0  0.26526571996E+01  0.15348537956E+02  0.40693697880E+03  0.40753055439E+03  0.15518821954E+02 0.  0.
         22    1    3    3    0    0 -0.26526571996E+01 -0.15348537956E+02  0.78381680967E+01  0.17437060724E+02  0.00000000000E+00 0.  1.
         22    1    4    4    0    0 -0.30621213057E+01  0.28211107113E+01  0.23702544852E+03  0.23706201404E+03  0.00000000000E+00 0. -1.
         22    1    4    4    0    0  0.57147785054E+01  0.12527427244E+02  0.16991153028E+03  0.17046854035E+03  0.00000000000E+00 0. -1.
<mgrwt>
<rscale>  0 0.92515142E+02</rscale>
<asrwt>0</asrwt>
<pdfrwt beam="1">  1        2 0.64595596E-01 0.92515142E+02</pdfrwt>
<pdfrwt beam="2">  1       -2 0.78403603E-03 0.92515142E+02</pdfrwt>
<totfact> 0.19537844E+05</totfact>
</mgrwt>
</event>
<event>
 7    1  0.3337990E-009  0.9405024E+02  0.7818608E-02  0.1293330E+00
         -2   -1    0    0    0  501 -0.00000000000E+00  0.00000000000E+00  0.89265458742E+01  0.89265462384E+01  0.25500000000E-02 0.  1.
          2   -1    0    0  501    0  0.00000000000E+00 -0.00000000000E+00 -0.24772874834E+03  0.24772874835E+03  0.25500000000E-02 0. -1.
         23    2    1    2    0    0  0.00000000000E+00  0.00000000000E+00 -0.23880220246E+03  0.25665529459E+03  0.94050243696E+02 0.  0.
    9000005    2    3    3    0    0  0.32126843874E+02  0.32680008589E+02 -0.13433244117E+03  0.14257616379E+03  0.13514461596E+02 0.  0.
         22    1    3    3    0    0 -0.32126843874E+02 -0.32680008589E+02 -0.10446976129E+03  0.11407913079E+03  0.00000000000E+00 0. -1.
         22    1    4    4    0    0  0.20540803690E+02  0.17511529104E+02 -0.59302633721E+02  0.65156585500E+02  0.00000000000E+00 0. -1.
         22    1    4    4    0    0  0.11586040184E+02  0.15168479486E+02 -0.75029807451E+02  0.77419578294E+02  0.00000000000E+00 0. -1.
<mgrwt>
<rscale>  0 0.94050244E+02</rscale>
<asrwt>0</asrwt>
<pdfrwt beam="2">  1        2 0.38112110E-01 0.94050244E+02</pdfrwt>
<pdfrwt beam="1">  1       -2 0.13733150E-02 0.94050244E+02</pdfrwt>
<totfact> 0.15392136E+05</totfact>
</mgrwt>
</event>
<event>
 7    1  0.3337990E-009  0.9711440E+02  0.7818608E-02  0.1286484E+00
          2   -1    0    0  501    0  0.00000000000E+00  0.00000000000E+00  0.52329501116E+03  0.52329501116E+03  0.25500000000E-02 0. -1.
         -2   -1    0    0    0  501 -0.00000000000E+00 -0.00000000000E+00 -0.45056827323E+01  0.45056834539E+01  0.25500000000E-02 0.  1.
         23    2    1    2    0    0  0.00000000000E+00  0.00000000000E+00  0.51878932843E+03  0.52780069462E+03  0.97114396209E+02 0.  0.
    9000005    2    3    3    0    0  0.36388224053E+02  0.24246841096E+01  0.43298891502E+03  0.43457144554E+03  0.65542968776E+01 0.  0.
         22    1    3    3    0    0 -0.36388224053E+02 -0.24246841096E+01  0.85800413410E+02  0.93229249080E+02  0.00000000000E+00 0.  1.
         22    1    4    4    0    0  0.22357302857E+02 -0.51204228942E+00  0.29224873544E+03  0.29310311248E+03  0.00000000000E+00 0. -1.
         22    1    4    4    0    0  0.14030921196E+02  0.29367263990E+01  0.14074017957E+03  0.14146833306E+03  0.00000000000E+00 0. -1.
<mgrwt>
<rscale>  0 0.97114396E+02</rscale>
<asrwt>0</asrwt>
<pdfrwt beam="1">  1        2 0.80506894E-01 0.97114396E+02</pdfrwt>
<pdfrwt beam="2">  1       -2 0.69318228E-03 0.97114396E+02</pdfrwt>
<totfact> 0.18494551E+05</totfact>
</mgrwt>
</event>
<event>
 7    1  0.3337990E-009  0.9089043E+02  0.7818608E-02  0.1300710E+00
         -2   -1    0    0    0  501 -0.00000000000E+00  0.00000000000E+00  0.73516593926E+01  0.73516598348E+01  0.25500000000E-02 0.  1.
          2   -1    0    0  501    0  0.00000000000E+00 -0.00000000000E+00 -0.28092532795E+03  0.28092532797E+03  0.25500000000E-02 0. -1.
         23    2    1    2    0    0  0.00000000000E+00  0.00000000000E+00 -0.27357366856E+03  0.28827698780E+03  0.90890426147E+02 0.  0.
    9000005    2    3    3    0    0  0.16368180435E+02  0.34385260191E+02 -0.67635837560E+02  0.78847635305E+02  0.13859279259E+02 0.  0.
         22    1    3    3    0    0 -0.16368180435E+02 -0.34385260191E+02 -0.20593783100E+03  0.20942935250E+03  0.00000000000E+00 0. -1.
         22    1    4    4    0    0  0.88923679219E+01  0.23603271144E+02 -0.31191561889E+02  0.40113615507E+02  0.00000000000E+00 0.  1.
         22    1    4    4    0    0  0.74758125126E+01  0.10781989047E+02 -0.36444275671E+02  0.38734019798E+02  0.00000000000E+00 0.  1.
<mgrwt>
<rscale>  0 0.90890426E+02</rscale>
<asrwt>0</asrwt>
<pdfrwt beam="2">  1        2 0.43219273E-01 0.90890426E+02</pdfrwt>
<pdfrwt beam="1">  1       -2 0.11310248E-02 0.90890426E+02</pdfrwt>
<totfact> 0.17679231E+05</totfact>
</mgrwt>
</event>
<event>
 7    1  0.3337990E-009  0.9470506E+02  0.7818608E-02  0.1291842E+00
          2   -1    0    0  501    0  0.00000000000E+00  0.00000000000E+00  0.31376617020E+03  0.31376617021E+03  0.25500000000E-02 0. -1.
         -2   -1    0    0    0  501 -0.00000000000E+00 -0.00000000000E+00 -0.71462828642E+01  0.71462833191E+01  0.25500000000E-02 0.  1.
         23    2    1    2    0    0 -0.35527136788E-14  0.00000000000E+00  0.30661988733E+03  0.32091245353E+03  0.94705055411E+02 0.  0.
    9000005    2    3    3    0    0 -0.31686308649E+02 -0.32542582820E+02  0.19213539607E+03  0.19774695271E+03  0.11171617134E+02 0.  0.
         22    1    3    3    0    0  0.31686308649E+02  0.32542582820E+02  0.11448449126E+03  0.12316550081E+03  0.00000000000E+00 0. -1.
         22    1    4    4    0    0 -0.10936149398E+02 -0.90304676367E+01  0.40745536246E+02  0.43143335909E+02  0.00000000000E+00 0.  1.
         22    1    4    4    0    0 -0.20750159251E+02 -0.23512115184E+02  0.15138985983E+03  0.15460361680E+03  0.00000000000E+00 0.  1.
<mgrwt>
<rscale>  0 0.94705055E+02</rscale>
<asrwt>0</asrwt>
<pdfrwt beam="1">  1        2 0.48271710E-01 0.94705055E+02</pdfrwt>
<pdfrwt beam="2">  1       -2 0.10994284E-02 0.94705055E+02</pdfrwt>
<totfact> 0.16505254E+05</totfact>
</mgrwt>
</event>
<event>
 7    1  0.3337990E-009  0.9246160E+02  0.7818608E-02  0.1296998E+00
          2   -1    0    0  501    0  0.00000000000E+00  0.00000000000E+00  0.10446285642E+03  0.10446285645E+03  0.25500000000E-02 0. -1.
         -2   -1    0    0    0  501 -0.00000000000E+00 -0.00000000000E+00 -0.20459780044E+02  0.20459780203E+02  0.25500000000E-02 0.  1.
         23    2    1    2    0    0  0.00000000000E+00  0.00000000000E+00  0.84003076377E+02  0.12492263666E+03  0.92461604507E+02 0.  0.
    9000005    2    3    3    0    0  0.97131537480E+01 -0.34325000164E+02  0.63862142630E+01  0.39500576996E+02  0.15714988336E+02 0.  0.
         22    1    3    3    0    0 -0.97131537480E+01  0.34325000164E+02  0.77616862114E+02  0.85422059660E+02  0.00000000000E+00 0. -1.
         22    1    4    4    0    0  0.20740342055E+01 -0.23206875916E+02 -0.23679646017E+01  0.23419392904E+02  0.00000000000E+00 0.  1.
         22    1    4    4    0    0  0.76391195425E+01 -0.11118124248E+02  0.87541788647E+01  0.16081184091E+02  0.00000000000E+00 0.  1.
<mgrwt>
<rscale>  0 0.92461605E+02</rscale>
<asrwt>0</asrwt>
<pdfrwt beam="1">  1        2 0.16071209E-01 0.92461605E+02</pdfrwt>
<pdfrwt beam="2">  1       -2 0.31476585E-02 0.92461605E+02</pdfrwt>
<totfact> 0.11962902E+05</totfact>
</mgrwt>
</event>
<event>
 7    1  0.3337990E-009  0.9039832E+02  0.7818608E-02  0.1301890E+00
          2   -1    0    0  501    0  0.00000000000E+00  0.00000000000E+00  0.39893964442E+02  0.39893964523E+02  0.25500000000E-02 0. -1.
         -2   -1    0    0    0  501 -0.00000000000E+00 -0.00000000000E+00 -0.51209852062E+02  0.51209852126E+02  0.25500000000E-02 0.  1.
         23    2    1    2    0    0  0.00000000000E+00  0.00000000000E+00 -0.11315887621E+02  0.91103816649E+02  0.90398319096E+02 0.  0.
    9000005    2    3    3    0    0  0.18565239886E+02  0.10438129967E+02  0.34293500862E+02  0.40766563972E+02  0.56785427250E+01 0.  0.
         22    1    3    3    0    0 -0.18565239886E+02 -0.10438129967E+02 -0.45609388483E+02  0.50337252677E+02  0.00000000000E+00 0.  1.
         22    1    4    4    0    0  0.18743290705E+02  0.10687227116E+02  0.32928731315E+02  0.39367869080E+02  0.00000000000E+00 0. -1.
         22    1    4    4    0    0 -0.17805081936E+00 -0.24909714901E+00  0.13647695476E+01  0.13986948924E+01  0.00000000000E+00 0. -1.
<mgrwt>
<rscale>  0 0.90398319E+02</rscale>
<asrwt>0</asrwt>
<pdfrwt beam="1">  1        2 0.61375330E-02 0.90398319E+02</pdfrwt>
<pdfrwt beam="2">  1       -2 0.78784388E-02 0.90398319E+02</pdfrwt>
<totfact> 0.97717072E+04</totfact>
</mgrwt>
</event>
<event>
 7    1  0.3337990E-009  0.9098455E+02  0.7818608E-02  0.1300485E+00
          2   -1    0    0  501    0  0.00000000000E+00  0.00000000000E+00  0.87470627678E+02  0.87470627715E+02  0.25500000000E-02 0.  1.
         -2   -1    0    0    0  501 -0.00000000000E+00 -0.00000000000E+00 -0.23659911113E+02  0.23659911250E+02  0.25500000000E-02 0. -1.
         23    2    1    2    0    0  0.00000000000E+00  0.00000000000E+00  0.63810716565E+02  0.11113053897E+03  0.90984554415E+02 0.  0.
    9000005    2    3    3    0    0 -0.40043187628E+02  0.16963364801E+02  0.18819087567E+02  0.48556907932E+02  0.10602010669E+02 0.  0.
         22    1    3    3    0    0  0.40043187628E+02 -0.16963364801E+02  0.44991628998E+02  0.62573631033E+02  0.00000000000E+00 0.  1.
         22    1    4    4    0    0 -0.18471867283E+02  0.30156552113E+01  0.10981161283E+02  0.21699999087E+02  0.00000000000E+00 0. -1.
         22    1    4    4    0    0 -0.21571320345E+02  0.13947709589E+02  0.78379262841E+01  0.26856908844E+02  0.00000000000E+00 0. -1.
<mgrwt>
<rscale>  0 0.90984554E+02</rscale>
<asrwt>0</asrwt>
<pdfrwt beam="1">  1        2 0.13457020E-01 0.90984554E+02</pdfrwt>
<pdfrwt beam="2">  1       -2 0.36399863E-02 0.90984554E+02</pdfrwt>
<totfact> 0.11855562E+05</totfact>
</mgrwt>
</event>
<event>
 7    1  0.3337990E-009  0.9139644E+02  0.7818608E-02  0.1299505E+00
          2   -1    0    0  501    0  0.00000000000E+00  0.00000000000E+00  0.21762494112E+02  0.21762494261E+02  0.25500000000E-02 0. -1.
         -2   -1    0    0    0  501 -0.00000000000E+00 -0.00000000000E+00 -0.95959921813E+02  0.95959921847E+02  0.25500000000E-02 0.  1.
         23    2    1    2    0    0 -0.17763568394E-14 -0.88817841970E-15 -0.74197427701E+02  0.11772241611E+03  0.91396438534E+02 0.  0.
    9000005    2    3    3    0    0  0.10411772150E+02  0.78061294194E+01 -0.92999957985E+02  0.94855938441E+02  0.13390900509E+02 0.  0.
         22    1    3    3    0    0 -0.10411772150E+02 -0.78061294194E+01  0.18802530284E+02  0.22866477667E+02  0.00000000000E+00 0. -1.
         22    1    4    4    0    0  0.12175704374E+02  0.72235072160E+01 -0.91119124217E+02  0.92212372443E+02  0.00000000000E+00 0. -1.
         22    1    4    4    0    0 -0.17639322238E+01  0.58262220337E+00 -0.18808337685E+01  0.26435659982E+01  0.00000000000E+00 0. -1.
<mgrwt>
<rscale>  0 0.91396439E+02</rscale>
<asrwt>0</asrwt>
<pdfrwt beam="1">  1        2 0.33480761E-02 0.91396439E+02</pdfrwt>
<pdfrwt beam="2">  1       -2 0.14763065E-01 0.91396439E+02</pdfrwt>
<totfact> 0.80304864E+04</totfact>
</mgrwt>
</event>
<event>
 7    1  0.3337990E-009  0.9157330E+02  0.7818608E-02  0.1299086E+00
         -2   -1    0    0    0  501 -0.00000000000E+00  0.00000000000E+00  0.21396704751E+01  0.21396719946E+01  0.25500000000E-02 0. -1.
          2   -1    0    0  501    0  0.00000000000E+00 -0.00000000000E+00 -0.97978475523E+03  0.97978475523E+03  0.25500000000E-02 0.  1.
         23    2    1    2    0    0  0.35527136788E-14 -0.17763568394E-14 -0.97764508475E+03  0.98192442722E+03  0.91573298736E+02 0.  0.
    9000005    2    3    3    0    0  0.19735523764E+02 -0.11845060305E+02 -0.91113453232E+03  0.91154367746E+03  0.14695019210E+02 0.  0.
         22    1    3    3    0    0 -0.19735523764E+02  0.11845060305E+02 -0.66510552432E+02  0.70380749759E+02  0.00000000000E+00 0. -1.
         22    1    4    4    0    0  0.14256488441E+02 -0.23725446598E+01 -0.67619692059E+03  0.67635135236E+03  0.00000000000E+00 0.  1.
         22    1    4    4    0    0  0.54790353231E+01 -0.94725156454E+01 -0.23493761173E+03  0.23519232510E+03  0.00000000000E+00 0.  1.
<mgrwt>
<rscale>  0 0.91573299E+02</rscale>
<asrwt>0</asrwt>
<pdfrwt beam="2">  1        2 0.15073576E+00 0.91573299E+02</pdfrwt>
<pdfrwt beam="1">  1       -2 0.32918097E-03 0.91573299E+02</pdfrwt>
<totfact> 0.24691727E+05</totfact>
</mgrwt>
</event>
<event>
 7    1  0.3337990E-009  0.9082322E+02  0.7818608E-02  0.1300870E+00
         -2   -1    0    0    0  501 -0.00000000000E+00  0.00000000000E+00  0.17260284465E+01  0.17260303302E+01  0.25500000000E-02 0.  1.
          2   -1    0    0  501    0  0.00000000000E+00 -0.00000000000E+00 -0.11947736762E+04  0.11947736763E+04  0.25500000000E-02 0. -1.
         23    2    1    2    0    0  0.00000000000E+00  0.00000000000E+00 -0.11930476478E+04  0.11964997066E+04  0.90823223481E+02 0.  0.
    9000005    2    3    3    0    0  0.26508498909E+02 -0.14264257966E+01 -0.10789235776E+04  0.10793287263E+04  0.13026052962E+02 0.  0.
         22    1    3    3    0    0 -0.26508498909E+02  0.14264257966E+01 -0.11412407022E+03  0.11717098024E+03  0.00000000000E+00 0.  1.
         22    1    4    4    0    0  0.77573137445E+01  0.54186886002E+01 -0.39902957789E+03  0.39914175694E+03  0.00000000000E+00 0.  1.
         22    1    4    4    0    0  0.18751185165E+02 -0.68451143968E+01 -0.67989399969E+03  0.68018696940E+03  0.00000000000E+00 0.  1.
<mgrwt>
<rscale>  0 0.90823223E+02</rscale>
<asrwt>0</asrwt>
<pdfrwt beam="2">  1        2 0.18381067E+00 0.90823223E+02</pdfrwt>
<pdfrwt beam="1">  1       -2 0.26554394E-03 0.90823223E+02</pdfrwt>
<totfact> 0.25135963E+05</totfact>
</mgrwt>
</event>
<event>
 7    1  0.3337990E-009  0.9355364E+02  0.7818608E-02  0.1294467E+00
         -2   -1    0    0    0  501 -0.00000000000E+00  0.00000000000E+00  0.37285154687E+01  0.37285163407E+01  0.25500000000E-02 0.  1.
          2   -1    0    0  501    0  0.00000000000E+00 -0.00000000000E+00 -0.58684766893E+03  0.58684766894E+03  0.25500000000E-02 0. -1.
         23    2    1    2    0    0  0.00000000000E+00  0.00000000000E+00 -0.58311915346E+03  0.59057618528E+03  0.93553639598E+02 0.  0.
    9000005    2    3    3    0    0  0.13199372405E+02 -0.25421428584E+02 -0.52440635533E+03  0.52524881637E+03  0.79888128283E+01 0.  0.
         22    1    3    3    0    0 -0.13199372405E+02  0.25421428584E+02 -0.58712798137E+02  0.65327368906E+02  0.00000000000E+00 0.  1.
         22    1    4    4    0    0  0.89496054208E+01 -0.87325741410E+01 -0.21341660251E+03  0.21378259872E+03  0.00000000000E+00 0.  1.
         22    1    4    4    0    0  0.42497669837E+01 -0.16688854443E+02 -0.31098975282E+03  0.31146621766E+03  0.00000000000E+00 0.  1.
<mgrwt>
<rscale>  0 0.93553640E+02</rscale>
<asrwt>0</asrwt>
<pdfrwt beam="2">  1        2 0.90284184E-01 0.93553640E+02</pdfrwt>
<pdfrwt beam="1">  1       -2 0.57361830E-03 0.93553640E+02</pdfrwt>
<totfact> 0.21150287E+05</totfact>
</mgrwt>
</event>
<event>
 7    1  0.3337990E-009  0.8625947E+02  0.7818608E-02  0.1312171E+00
         -2   -1    0    0    0  501 -0.00000000000E+00  0.00000000000E+00  0.97928013395E+00  0.97928345398E+00  0.25500000000E-02 0.  1.
          2   -1    0    0  501    0  0.00000000000E+00 -0.00000000000E+00 -0.18995289924E+04  0.18995289924E+04  0.25500000000E-02 0. -1.
         23    2    1    2    0    0  0.00000000000E+00  0.00000000000E+00 -0.18985497123E+04  0.19005082759E+04  0.86259472817E+02 0.  0.
    9000005    2    3    3    0    0 -0.16979465572E+02  0.82210098141E+01 -0.18036386531E+04  0.18037405312E+04  0.34096466449E+01 0.  0.
         22    1    3    3    0    0  0.16979465572E+02 -0.82210098141E+01 -0.94911059194E+02  0.96767744682E+02  0.00000000000E+00 0.  1.
         22    1    4    4    0    0 -0.46562982397E+01  0.36527085415E+01 -0.65322981603E+03  0.65325662335E+03  0.00000000000E+00 0. -1.
         22    1    4    4    0    0 -0.12323167333E+02  0.45683012727E+01 -0.11504088371E+04  0.11504839079E+04  0.00000000000E+00 0. -1.
<mgrwt>
<rscale>  0 0.86259473E+02</rscale>
<asrwt>0</asrwt>
<pdfrwt beam="2">  1        2 0.29223228E+00 0.86259473E+02</pdfrwt>
<pdfrwt beam="1">  1       -2 0.15066026E-03 0.86259473E+02</pdfrwt>
<totfact> 0.23822732E+05</totfact>
</mgrwt>
</event>
<event>
 7    1  0.3337990E-009  0.9151988E+02  0.7818608E-02  0.1299212E+00
          2   -1    0    0  501    0  0.00000000000E+00  0.00000000000E+00  0.20477676690E+02  0.20477676849E+02  0.25500000000E-02 0. -1.
         -2   -1    0    0    0  501 -0.00000000000E+00 -0.00000000000E+00 -0.10225633562E+03  0.10225633565E+03  0.25500000000E-02 0.  1.
         23    2    1    2    0    0  0.00000000000E+00  0.00000000000E+00 -0.81778658929E+02  0.12273401250E+03  0.91519881818E+02 0.  0.
    9000005    2    3    3    0    0  0.41494228970E+02 -0.11048396636E+02 -0.60549089702E+02  0.74832731560E+02  0.94819482745E+01 0.  0.
         22    1    3    3    0    0 -0.41494228970E+02  0.11048396636E+02 -0.21229569228E+02  0.47901280939E+02  0.00000000000E+00 0. -1.
         22    1    4    4    0    0  0.66366725437E+00 -0.31059573256E+00  0.28307983427E+00  0.78553047438E+00  0.00000000000E+00 0.  1.
         22    1    4    4    0    0  0.40830561715E+02 -0.10737800904E+02 -0.60832169536E+02  0.74047201086E+02  0.00000000000E+00 0.  1.
<mgrwt>
<rscale>  0 0.91519882E+02</rscale>
<asrwt>0</asrwt>
<pdfrwt beam="1">  1        2 0.31504119E-02 0.91519882E+02</pdfrwt>
<pdfrwt beam="2">  1       -2 0.15731744E-01 0.91519882E+02</pdfrwt>
<totfact> 0.78535432E+04</totfact>
</mgrwt>
</event>
<event>
 7    1  0.3337990E-009  0.9386052E+02  0.7818608E-02  0.1293763E+00
          2   -1    0    0  501    0  0.00000000000E+00  0.00000000000E+00  0.74498712465E+02  0.74498712509E+02  0.25500000000E-02 0. -1.
         -2   -1    0    0    0  501 -0.00000000000E+00 -0.00000000000E+00 -0.29563589555E+02  0.29563589665E+02  0.25500000000E-02 0.  1.
         23    2    1    2    0    0 -0.35527136788E-14  0.71054273576E-14  0.44935122910E+02  0.10406230217E+03  0.93860521321E+02 0.  0.
    9000005    2    3    3    0    0 -0.18501278648E+02  0.40570743435E+02  0.34067158812E+02  0.58166821153E+02  0.15314216895E+02 0.  0.
         22    1    3    3    0    0  0.18501278648E+02 -0.40570743435E+02  0.10867964099E+02  0.45895481021E+02  0.00000000000E+00 0.  1.
         22    1    4    4    0    0 -0.18014903559E+02  0.24005363692E+02  0.17544539489E+02  0.34764998232E+02  0.00000000000E+00 0.  1.
         22    1    4    4    0    0 -0.48637508979E+00  0.16565379743E+02  0.16522619322E+02  0.23401822921E+02  0.00000000000E+00 0.  1.
<mgrwt>
<rscale>  0 0.93860521E+02</rscale>
<asrwt>0</asrwt>
<pdfrwt beam="1">  1        2 0.11461340E-01 0.93860521E+02</pdfrwt>
<pdfrwt beam="2">  1       -2 0.45482446E-02 0.93860521E+02</pdfrwt>
<totfact> 0.10378322E+05</totfact>
</mgrwt>
</event>
<event>
 7    1  0.3337990E-009  0.9053887E+02  0.7818608E-02  0.1301552E+00
          2   -1    0    0  501    0  0.00000000000E+00  0.00000000000E+00  0.46177189508E+02  0.46177189579E+02  0.25500000000E-02 0. -1.
         -2   -1    0    0    0  501 -0.00000000000E+00 -0.00000000000E+00 -0.44379522743E+02  0.44379522817E+02  0.25500000000E-02 0.  1.
         23    2    1    2    0    0  0.35527136788E-14  0.00000000000E+00  0.17976667647E+01  0.90556712395E+02  0.90538867643E+02 0.  0.
    9000005    2    3    3    0    0  0.26501878730E+02  0.13424251771E+02  0.34850811234E+02  0.46114947453E+02  0.54267138371E+01 0.  0.
         22    1    3    3    0    0 -0.26501878730E+02 -0.13424251771E+02 -0.33053144470E+02  0.44441764942E+02  0.00000000000E+00 0.  1.
         22    1    4    4    0    0  0.25684124473E+02  0.11578313424E+02  0.32766269662E+02  0.43212961241E+02  0.00000000000E+00 0. -1.
         22    1    4    4    0    0  0.81775425756E+00  0.18459383473E+01  0.20845415722E+01  0.29019862119E+01  0.00000000000E+00 0. -1.
<mgrwt>
<rscale>  0 0.90538868E+02</rscale>
<asrwt>0</asrwt>
<pdfrwt beam="1">  1        2 0.71041830E-02 0.90538868E+02</pdfrwt>
<pdfrwt beam="2">  1       -2 0.68276189E-02 0.90538868E+02</pdfrwt>
<totfact> 0.10101484E+05</totfact>
</mgrwt>
</event>
<event>
 7    1  0.3337990E-009  0.9185579E+02  0.7818608E-02  0.1298419E+00
          2   -1    0    0  501    0  0.00000000000E+00  0.00000000000E+00  0.12207873780E+03  0.12207873783E+03  0.25500000000E-02 0.  1.
         -2   -1    0    0    0  501 -0.00000000000E+00 -0.00000000000E+00 -0.17278780672E+02  0.17278780860E+02  0.25500000000E-02 0. -1.
         23    2    1    2    0    0  0.00000000000E+00  0.35527136788E-14  0.10479995713E+03  0.13935751869E+03  0.91855794593E+02 0.  0.
    9000005    2    3    3    0    0  0.23093880763E+02  0.18848979927E+02  0.10442798298E+03  0.10954561271E+03  0.14367541956E+02 0.  0.
         22    1    3    3    0    0 -0.23093880763E+02 -0.18848979927E+02  0.37197414521E+00  0.29811905973E+02  0.00000000000E+00 0. -1.
         22    1    4    4    0    0  0.16499419734E+02  0.12101381955E+02  0.90071542773E+02  0.92366428502E+02  0.00000000000E+00 0. -1.
         22    1    4    4    0    0  0.65944610288E+01  0.67475979722E+01  0.14356440211E+02  0.17179184212E+02  0.00000000000E+00 0. -1.
<mgrwt>
<rscale>  0 0.91855795E+02</rscale>
<asrwt>0</asrwt>
<pdfrwt beam="1">  1        2 0.18781345E-01 0.91855795E+02</pdfrwt>
<pdfrwt beam="2">  1       -2 0.26582739E-02 0.91855795E+02</pdfrwt>
<totfact> 0.12795823E+05</totfact>
</mgrwt>
</event>
<event>
 7    1  0.3337990E-009  0.8915929E+02  0.7818608E-02  0.1304900E+00
          2   -1    0    0  501    0  0.00000000000E+00  0.00000000000E+00  0.24776349351E+03  0.24776349352E+03  0.25500000000E-02 0. -1.
         -2   -1    0    0    0  501 -0.00000000000E+00 -0.00000000000E+00 -0.80211355496E+01  0.80211359550E+01  0.25500000000E-02 0.  1.
         23    2    1    2    0    0  0.00000000000E+00  0.00000000000E+00  0.23974235796E+03  0.25578462948E+03  0.89159287103E+02 0.  0.
    9000005    2    3    3    0    0  0.36332759989E+02  0.18985743959E+02  0.16969292874E+03  0.17462151929E+03  0.40567241516E+01 0.  0.
         22    1    3    3    0    0 -0.36332759989E+02 -0.18985743959E+02  0.70049429217E+02  0.81163110190E+02  0.00000000000E+00 0.  1.
         22    1    4    4    0    0  0.23932741426E+02  0.13136570784E+02  0.10495117608E+03  0.10844397154E+03  0.00000000000E+00 0. -1.
         22    1    4    4    0    0  0.12400018563E+02  0.58491731743E+01  0.64741752664E+02  0.66177547742E+02  0.00000000000E+00 0. -1.
<mgrwt>
<rscale>  0 0.89159287E+02</rscale>
<asrwt>0</asrwt>
<pdfrwt beam="1">  1        2 0.38117456E-01 0.89159287E+02</pdfrwt>
<pdfrwt beam="2">  1       -2 0.12340210E-02 0.89159287E+02</pdfrwt>
<totfact> 0.17761748E+05</totfact>
</mgrwt>
</event>
<event>
 7    1  0.3337990E-009  0.9077196E+02  0.7818608E-02  0.1300993E+00
         -2   -1    0    0    0  501 -0.00000000000E+00  0.00000000000E+00  0.29185309392E+02  0.29185309504E+02  0.25500000000E-02 0.  1.
          2   -1    0    0  501    0  0.00000000000E+00 -0.00000000000E+00 -0.70579597330E+02  0.70579597376E+02  0.25500000000E-02 0. -1.
         23    2    1    2    0    0  0.00000000000E+00  0.00000000000E+00 -0.41394287937E+02  0.99764906879E+02  0.90771964674E+02 0.  0.
    9000005    2    3    3    0    0  0.30514020558E+02  0.29067249779E+02 -0.37943401964E+02  0.57481114780E+02  0.94003374072E+01 0.  0.
         22    1    3    3    0    0 -0.30514020558E+02 -0.29067249779E+02 -0.34508859734E+01  0.42283792100E+02  0.00000000000E+00 0.  1.
         22    1    4    4    0    0  0.19409537134E+02  0.12775741242E+02 -0.17586490717E+02  0.29141625757E+02  0.00000000000E+00 0. -1.
         22    1    4    4    0    0  0.11104483424E+02  0.16291508537E+02 -0.20356911247E+02  0.28339489022E+02  0.00000000000E+00 0. -1.
<mgrwt>
<rscale>  0 0.90771965E+02</rscale>
<asrwt>0</asrwt>
<pdfrwt beam="2">  1        2 0.10858400E-01 0.90771965E+02</pdfrwt>
<pdfrwt beam="1">  1       -2 0.44900476E-02 0.90771965E+02</pdfrwt>
<totfact> 0.11226032E+05</totfact>
</mgrwt>
</event>
<event>
 7    1  0.3337990E-009  0.9203675E+02  0.7818608E-02  0.1297993E+00
         -2   -1    0    0    0  501 -0.00000000000E+00  0.00000000000E+00  0.70077075378E+02  0.70077075425E+02  0.25500000000E-02 0.  1.
          2   -1    0    0  501    0  0.00000000000E+00 -0.00000000000E+00 -0.30219450749E+02  0.30219450857E+02  0.25500000000E-02 0. -1.
         23    2    1    2    0    0  0.00000000000E+00  0.00000000000E+00  0.39857624629E+02  0.10029652628E+03  0.92036747786E+02 0.  0.
    9000005    2    3    3    0    0  0.28903231703E+02 -0.13408874655E+02  0.55775501799E+02  0.64679486314E+02  0.75719631876E+01 0.  0.
         22    1    3    3    0    0 -0.28903231703E+02  0.13408874655E+02 -0.15917877171E+02  0.35617039967E+02  0.00000000000E+00 0.  1.
         22    1    4    4    0    0  0.64765901422E+01 -0.32536494673E+01  0.71717598632E+01  0.10196401045E+02  0.00000000000E+00 0.  1.
         22    1    4    4    0    0  0.22426641561E+02 -0.10155225187E+02  0.48603741936E+02  0.54483085270E+02  0.00000000000E+00 0.  1.
<mgrwt>
<rscale>  0 0.92036748E+02</rscale>
<asrwt>0</asrwt>
<pdfrwt beam="2">  1        2 0.46491463E-02 0.92036748E+02</pdfrwt>
<pdfrwt beam="1">  1       -2 0.10781088E-01 0.92036748E+02</pdfrwt>
<totfact> 0.86199574E+04</totfact>
</mgrwt>
</event>
<event>
 7    1  0.3337990E-009  0.8749153E+02  0.7818608E-02  0.1309043E+00
          2   -1    0    0  501    0  0.00000000000E+00  0.00000000000E+00  0.82545504619E+02  0.82545504659E+02  0.25500000000E-02 0. -1.
         -2   -1    0    0    0  501 -0.00000000000E+00 -0.00000000000E+00 -0.23183479688E+02  0.23183479828E+02  0.25500000000E-02 0.  1.
         23    2    1    2    0    0 -0.35527136788E-14  0.00000000000E+00  0.59362024931E+02  0.10572898449E+03  0.87491531914E+02 0.  0.
    9000005    2    3    3    0    0 -0.23957675431E+02  0.32729441917E+02  0.15208893891E+02  0.45773287836E+02  0.14788402406E+02 0.  0.
         22    1    3    3    0    0  0.23957675431E+02 -0.32729441917E+02  0.44153131040E+02  0.59955696651E+02  0.00000000000E+00 0.  1.
         22    1    4    4    0    0 -0.14208269047E+02  0.14248093502E+02  0.33442254608E+00  0.20124485489E+02  0.00000000000E+00 0. -1.
         22    1    4    4    0    0 -0.97494063839E+01  0.18481348414E+02  0.14874471345E+02  0.25648802347E+02  0.00000000000E+00 0. -1.
<mgrwt>
<rscale>  0 0.87491532E+02</rscale>
<asrwt>0</asrwt>
<pdfrwt beam="1">  1        2 0.12699308E-01 0.87491532E+02</pdfrwt>
<pdfrwt beam="2">  1       -2 0.35666892E-02 0.87491532E+02</pdfrwt>
<totfact> 0.12989385E+05</totfact>
</mgrwt>
</event>
<event>
 7    1  0.3337990E-009  0.9116318E+02  0.7818608E-02  0.1300059E+00
          2   -1    0    0  501    0  0.00000000000E+00  0.00000000000E+00  0.34635351097E+02  0.34635351191E+02  0.25500000000E-02 0. -1.
         -2   -1    0    0    0  501 -0.00000000000E+00 -0.00000000000E+00 -0.59987303801E+02  0.59987303855E+02  0.25500000000E-02 0.  1.
         23    2    1    2    0    0  0.35527136788E-14 -0.35527136788E-14 -0.25351952703E+02  0.94622655046E+02  0.91163179750E+02 0.  0.
    9000005    2    3    3    0    0 -0.22490158256E+02  0.25493482232E+02  0.17909006649E+02  0.39602336446E+02  0.95858060744E+01 0.  0.
         22    1    3    3    0    0  0.22490158256E+02 -0.25493482232E+02 -0.43260959353E+02  0.55020318600E+02  0.00000000000E+00 0.  1.
         22    1    4    4    0    0  0.85710016180E+00  0.18146329733E+00  0.59703504387E+00  0.10601888790E+01  0.00000000000E+00 0.  1.
         22    1    4    4    0    0 -0.23347258418E+02  0.25312018935E+02  0.17311971606E+02  0.38542147567E+02  0.00000000000E+00 0.  1.
<mgrwt>
<rscale>  0 0.91163180E+02</rscale>
<asrwt>0</asrwt>
<pdfrwt beam="1">  1        2 0.53285156E-02 0.91163180E+02</pdfrwt>
<pdfrwt beam="2">  1       -2 0.92288160E-02 0.91163180E+02</pdfrwt>
<totfact> 0.91926216E+04</totfact>
</mgrwt>
</event>
<event>
 7    1  0.3337990E-009  0.9426519E+02  0.7818608E-02  0.1292840E+00
          2   -1    0    0  501    0  0.00000000000E+00  0.00000000000E+00  0.28013853644E+04  0.28013853644E+04  0.25500000000E-02 0.  1.
         -2   -1    0    0    0  501 -0.00000000000E+00 -0.00000000000E+00 -0.79299183530E+00  0.79299593527E+00  0.25500000000E-02 0. -1.
         23    2    1    2    0    0  0.00000000000E+00  0.44408920985E-15  0.28005923726E+04  0.28021783603E+04  0.94265189069E+02 0.  0.
    9000005    2    3    3    0    0  0.16079096941E+02  0.25665817250E+01  0.27146505541E+04  0.27147076746E+04  0.67084290422E+01 0.  0.
         22    1    3    3    0    0 -0.16079096941E+02 -0.25665817250E+01  0.85941818483E+02  0.87470685743E+02  0.00000000000E+00 0. -1.
         22    1    4    4    0    0  0.19273700263E+01  0.19675169113E+01  0.22549334248E+03  0.22551016248E+03  0.00000000000E+00 0. -1.
         22    1    4    4    0    0  0.14151726915E+02  0.59906481370E+00  0.24891572116E+04  0.24891975121E+04  0.00000000000E+00 0. -1.
<mgrwt>
<rscale>  0 0.94265189E+02</rscale>
<asrwt>0</asrwt>
<pdfrwt beam="1">  1        2 0.43097600E+00 0.94265189E+02</pdfrwt>
<pdfrwt beam="2">  1       -2 0.12200086E-03 0.94265189E+02</pdfrwt>
<totfact> 0.10958968E+05</totfact>
</mgrwt>
</event>
<event>
 7    1  0.3337990E-009  0.8990348E+02  0.7818608E-02  0.1303086E+00
         -2   -1    0    0    0  501 -0.00000000000E+00  0.00000000000E+00  0.15529270887E+02  0.15529271096E+02  0.25500000000E-02 0.  1.
          2   -1    0    0  501    0  0.00000000000E+00 -0.00000000000E+00 -0.13011937011E+03  0.13011937013E+03  0.25500000000E-02 0. -1.
         23    2    1    2    0    0  0.00000000000E+00  0.00000000000E+00 -0.11459009922E+03  0.14564864123E+03  0.89903480757E+02 0.  0.
    9000005    2    3    3    0    0  0.46643568319E+01  0.38947584280E+02 -0.26696506739E+02  0.49399204112E+02  0.13744356984E+02 0.  0.
         22    1    3    3    0    0 -0.46643568319E+01 -0.38947584280E+02 -0.87893592479E+02  0.96249437114E+02  0.00000000000E+00 0. -1.
         22    1    4    4    0    0  0.38159330225E+01  0.15040383458E+01 -0.29523789411E+01  0.50537132476E+01  0.00000000000E+00 0. -1.
         22    1    4    4    0    0  0.84842380940E+00  0.37443545935E+02 -0.23744127798E+02  0.44345490865E+02  0.00000000000E+00 0. -1.
<mgrwt>
<rscale>  0 0.89903481E+02</rscale>
<asrwt>0</asrwt>
<pdfrwt beam="2">  1        2 0.20018364E-01 0.89903481E+02</pdfrwt>
<pdfrwt beam="1">  1       -2 0.23891187E-02 0.89903481E+02</pdfrwt>
<totfact> 0.13852360E+05</totfact>
</mgrwt>
</event>
<event>
 7    1  0.3337990E-009  0.9182094E+02  0.7818608E-02  0.1298501E+00
         -2   -1    0    0    0  501 -0.00000000000E+00  0.00000000000E+00  0.10084499164E+03  0.10084499167E+03  0.25500000000E-02 0.  1.
          2   -1    0    0  501    0  0.00000000000E+00 -0.00000000000E+00 -0.20901098658E+02  0.20901098813E+02  0.25500000000E-02 0. -1.
         23    2    1    2    0    0  0.00000000000E+00  0.00000000000E+00  0.79943892985E+02  0.12174609049E+03  0.91820937283E+02 0.  0.
    9000005    2    3    3    0    0 -0.22505506507E+02  0.35594439906E+02  0.62248140779E+02  0.76066755756E+02  0.11741308510E+02 0.  0.
         22    1    3    3    0    0  0.22505506507E+02 -0.35594439906E+02  0.17695752206E+02  0.45679334732E+02  0.00000000000E+00 0. -1.
         22    1    4    4    0    0 -0.11315370903E+02  0.78000421201E+01  0.20439134334E+02  0.24629991637E+02  0.00000000000E+00 0.  1.
         22    1    4    4    0    0 -0.11190135605E+02  0.27794397786E+02  0.41809006445E+02  0.51436764119E+02  0.00000000000E+00 0.  1.
<mgrwt>
<rscale>  0 0.91820937E+02</rscale>
<asrwt>0</asrwt>
<pdfrwt beam="2">  1        2 0.32155536E-02 0.91820937E+02</pdfrwt>
<pdfrwt beam="1">  1       -2 0.15514614E-01 0.91820937E+02</pdfrwt>
<totfact> 0.78221593E+04</totfact>
</mgrwt>
</event>
<event>
 7    1  0.3337990E-009  0.9221939E+02  0.7818608E-02  0.1297564E+00
          2   -1    0    0  501    0  0.00000000000E+00  0.00000000000E+00  0.59304456347E+03  0.59304456347E+03  0.25500000000E-02 0. -1.
         -2   -1    0    0    0  501 -0.00000000000E+00 -0.00000000000E+00 -0.35850660511E+01  0.35850669579E+01  0.25500000000E-02 0.  1.
         23    2    1    2    0    0 -0.35527136788E-14  0.00000000000E+00  0.58945949742E+03  0.59662963043E+03  0.92219394997E+02 0.  0.
    9000005    2    3    3    0    0 -0.20518323032E+02  0.53657112349E+01  0.55865923487E+03  0.55923379363E+03  0.13874537674E+02 0.  0.
         22    1    3    3    0    0  0.20518323032E+02 -0.53657112349E+01  0.30800262549E+02  0.37395836803E+02  0.00000000000E+00 0.  1.
         22    1    4    4    0    0 -0.20661820216E+02  0.53231847438E+01  0.55867591533E+03  0.55908320086E+03  0.00000000000E+00 0. -1.
         22    1    4    4    0    0  0.14349718407E+00  0.42526491121E-01 -0.16680464337E-01  0.15059276933E+00  0.00000000000E+00 0. -1.
<mgrwt>
<rscale>  0 0.92219395E+02</rscale>
<asrwt>0</asrwt>
<pdfrwt beam="1">  1        2 0.91237494E-01 0.92219395E+02</pdfrwt>
<pdfrwt beam="2">  1       -2 0.55154949E-03 0.92219395E+02</pdfrwt>
<totfact> 0.22036847E+05</totfact>
</mgrwt>
</event>
<event>
 7    1  0.3337990E-009  0.9088453E+02  0.7818608E-02  0.1300724E+00
          2   -1    0    0  501    0  0.00000000000E+00  0.00000000000E+00  0.11900442152E+03  0.11900442155E+03  0.25500000000E-02 0. -1.
         -2   -1    0    0    0  501 -0.00000000000E+00 -0.00000000000E+00 -0.17352290677E+02  0.17352290865E+02  0.25500000000E-02 0.  1.
         23    2    1    2    0    0  0.00000000000E+00 -0.22204460493E-15  0.10165213084E+03  0.13635671241E+03  0.90884527368E+02 0.  0.
    9000005    2    3    3    0    0 -0.44799475945E+02  0.76450333664E+00  0.59251253033E+02  0.74668691295E+02  0.75581058087E+01 0.  0.
         22    1    3    3    0    0  0.44799475945E+02 -0.76450333664E+00  0.42400877809E+02  0.61688021117E+02  0.00000000000E+00 0. -1.
         22    1    4    4    0    0 -0.24310485687E+02 -0.23103083284E+01  0.27750325105E+02  0.36965088696E+02  0.00000000000E+00 0. -1.
         22    1    4    4    0    0 -0.20488990258E+02  0.30748116651E+01  0.31500927929E+02  0.37703602599E+02  0.00000000000E+00 0. -1.
<mgrwt>
<rscale>  0 0.90884527E+02</rscale>
<asrwt>0</asrwt>
<pdfrwt beam="1">  1        2 0.18308372E-01 0.90884527E+02</pdfrwt>
<pdfrwt beam="2">  1       -2 0.26695832E-02 0.90884527E+02</pdfrwt>
<totfact> 0.13066068E+05</totfact>
</mgrwt>
</event>
<event>
 7    1  0.4908057E-009  0.1174374E+03  0.7818608E-02  0.1247385E+00
         -2   -1    0    0    0  501 -0.00000000000E+00  0.00000000000E+00  0.94835882013E+01  0.94835885441E+01  0.25500000000E-02 0.  1.
          2   -1    0    0  501    0  0.00000000000E+00 -0.00000000000E+00 -0.36356316742E+03  0.36356316743E+03  0.25500000000E-02 0. -1.
         23    2    1    2    0    0 -0.17763568394E-14  0.71054273576E-14 -0.35407957922E+03  0.37304675597E+03  0.11743736085E+03 0.  0.
    9000005    2    3    3    0    0 -0.13174960002E+02 -0.55576399363E+02 -0.15511596863E+03  0.16604715676E+03  0.15760038253E+02 0.  0.
         22    1    3    3    0    0  0.13174960002E+02  0.55576399363E+02 -0.19896361059E+03  0.20699959922E+03  0.00000000000E+00 0.  1.
         22    1    4    4    0    0  0.30071954318E+01 -0.15851507455E+02 -0.36248079070E+02  0.39676652444E+02  0.00000000000E+00 0.  1.
         22    1    4    4    0    0 -0.16182155433E+02 -0.39724891909E+02 -0.11886788956E+03  0.12637050431E+03  0.00000000000E+00 0.  1.
<mgrwt>
<rscale>  0 0.11743736E+03</rscale>
<asrwt>0</asrwt>
<pdfrwt beam="2">  1        2 0.55932784E-01 0.11743736E+03</pdfrwt>
<pdfrwt beam="1">  1       -2 0.14590139E-02 0.11743736E+03</pdfrwt>
<totfact> 0.97453813E+04</totfact>
</mgrwt>
</event>
<event>
 7    1  0.3337990E-009  0.9268470E+02  0.7818608E-02  0.1296478E+00
          2   -1    0    0  501    0  0.00000000000E+00  0.00000000000E+00  0.12728697374E+03  0.12728697377E+03  0.25500000000E-02 0. -1.
         -2   -1    0    0    0  501 -0.00000000000E+00 -0.00000000000E+00 -0.16872217828E+02  0.16872218021E+02  0.25500000000E-02 0.  1.
         23    2    1    2    0    0  0.00000000000E+00 -0.35527136788E-14  0.11041475592E+03  0.14415919179E+03  0.92684703450E+02 0.  0.
    9000005    2    3    3    0    0 -0.20361656004E+01 -0.28256067624E+02  0.11218766258E+03  0.11577443310E+03  0.38854082451E+01 0.  0.
         22    1    3    3    0    0  0.20361656004E+01  0.28256067624E+02 -0.17729066604E+01  0.28384758691E+02  0.00000000000E+00 0.  1.
         22    1    4    4    0    0 -0.11158232871E+01 -0.20735577271E+02  0.88547060673E+02  0.90949388014E+02  0.00000000000E+00 0. -1.
         22    1    4    4    0    0 -0.92034231336E+00 -0.75204903526E+01  0.23640601904E+02  0.24825045086E+02  0.00000000000E+00 0. -1.
<mgrwt>
<rscale>  0 0.92684703E+02</rscale>
<asrwt>0</asrwt>
<pdfrwt beam="1">  1        2 0.19582610E-01 0.92684703E+02</pdfrwt>
<pdfrwt beam="2">  1       -2 0.25957260E-02 0.92684703E+02</pdfrwt>
<totfact> 0.12655978E+05</totfact>
</mgrwt>
</event>
<event>
 7    1  0.3337990E-009  0.9391808E+02  0.7818608E-02  0.1293632E+00
         -2   -1    0    0    0  501 -0.00000000000E+00  0.00000000000E+00  0.14059291845E+01  0.14059314970E+01  0.25500000000E-02 0.  1.
          2   -1    0    0  501    0  0.00000000000E+00 -0.00000000000E+00 -0.15684642309E+04  0.15684642309E+04  0.25500000000E-02 0. -1.
         23    2    1    2    0    0  0.00000000000E+00 -0.17763568394E-14 -0.15670583017E+04  0.15698701624E+04  0.93918080344E+02 0.  0.
    9000005    2    3    3    0    0 -0.13099500701E+02 -0.14897649970E+02 -0.14932136932E+04  0.14934073407E+04  0.13594662473E+02 0.  0.
         22    1    3    3    0    0  0.13099500701E+02  0.14897649970E+02 -0.73844608542E+02  0.76462821711E+02  0.00000000000E+00 0.  1.
         22    1    4    4    0    0 -0.13079027232E+02 -0.50627665152E+01 -0.96773823865E+03  0.96783985819E+03  0.00000000000E+00 0. -1.
         22    1    4    4    0    0 -0.20473469155E-01 -0.98348834544E+01 -0.52547545455E+03  0.52556748252E+03  0.00000000000E+00 0. -1.
<mgrwt>
<rscale>  0 0.93918080E+02</rscale>
<asrwt>0</asrwt>
<pdfrwt beam="2">  1        2 0.24130079E+00 0.93918080E+02</pdfrwt>
<pdfrwt beam="1">  1       -2 0.21629823E-03 0.93918080E+02</pdfrwt>
<totfact> 0.21425030E+05</totfact>
</mgrwt>
</event>
<event>
 7    1  0.3337990E-009  0.8869165E+02  0.7818608E-02  0.1306051E+00
         -2   -1    0    0    0  501 -0.00000000000E+00  0.00000000000E+00  0.35527737485E+03  0.35527737486E+03  0.25500000000E-02 0. -1.
          2   -1    0    0  501    0  0.00000000000E+00 -0.00000000000E+00 -0.55352583272E+01  0.55352589146E+01  0.25500000000E-02 0.  1.
         23    2    1    2    0    0  0.00000000000E+00  0.00000000000E+00  0.34974211652E+03  0.36081263377E+03  0.88691649104E+02 0.  0.
    9000005    2    3    3    0    0  0.11960213390E+02  0.93815414309E+01  0.34429930504E+03  0.34466691543E+03  0.47128672303E+01 0.  0.
         22    1    3    3    0    0 -0.11960213390E+02 -0.93815414309E+01  0.54428114816E+01  0.16145718342E+02  0.00000000000E+00 0.  1.
         22    1    4    4    0    0  0.13305957348E+01  0.13913416631E+01  0.19326040417E+02  0.19421692893E+02  0.00000000000E+00 0. -1.
         22    1    4    4    0    0  0.10629617655E+02  0.79901997678E+01  0.32497326462E+03  0.32524522254E+03  0.00000000000E+00 0. -1.
<mgrwt>
<rscale>  0 0.88691649E+02</rscale>
<asrwt>0</asrwt>
<pdfrwt beam="2">  1        2 0.85157817E-03 0.88691649E+02</pdfrwt>
<pdfrwt beam="1">  1       -2 0.54658063E-01 0.88691649E+02</pdfrwt>
<totfact> 0.49528250E+04</totfact>
</mgrwt>
</event>
<event>
 7    1  0.3337990E-009  0.9375836E+02  0.7818608E-02  0.1293997E+00
          2   -1    0    0  501    0  0.00000000000E+00  0.00000000000E+00  0.53020885102E+03  0.53020885103E+03  0.25500000000E-02 0. -1.
         -2   -1    0    0    0  501 -0.00000000000E+00 -0.00000000000E+00 -0.41448895719E+01  0.41448903563E+01  0.25500000000E-02 0.  1.
         23    2    1    2    0    0  0.00000000000E+00  0.00000000000E+00  0.52606396145E+03  0.53435374138E+03  0.93758356401E+02 0.  0.
    9000005    2    3    3    0    0 -0.45303690473E+02  0.65555132000E+01  0.30712439845E+03  0.31068002507E+03  0.10063932121E+02 0.  0.
         22    1    3    3    0    0  0.45303690473E+02 -0.65555132000E+01  0.21893956300E+03  0.22367371632E+03  0.00000000000E+00 0. -1.
         22    1    4    4    0    0 -0.10820406842E+02  0.52171543731E+01  0.96951817037E+02  0.97693166244E+02  0.00000000000E+00 0. -1.
         22    1    4    4    0    0 -0.34483283631E+02  0.13383588269E+01  0.21017258141E+03  0.21298685882E+03  0.00000000000E+00 0. -1.
<mgrwt>
<rscale>  0 0.93758356E+02</rscale>
<asrwt>0</asrwt>
<pdfrwt beam="1">  1        2 0.81570625E-01 0.93758356E+02</pdfrwt>
<pdfrwt beam="2">  1       -2 0.63767513E-03 0.93758356E+02</pdfrwt>
<totfact> 0.20391329E+05</totfact>
</mgrwt>
</event>
<event>
 7    1  0.3337990E-009  0.9000481E+02  0.7818608E-02  0.1302840E+00
         -2   -1    0    0    0  501 -0.00000000000E+00  0.00000000000E+00  0.62852273441E+02  0.62852273492E+02  0.25500000000E-02 0. -1.
          2   -1    0    0  501    0  0.00000000000E+00 -0.00000000000E+00 -0.32221848210E+02  0.32221848311E+02  0.25500000000E-02 0.  1.
         23    2    1    2    0    0  0.00000000000E+00  0.00000000000E+00  0.30630425231E+02  0.95074121803E+02  0.90004809243E+02 0.  0.
    9000005    2    3    3    0    0 -0.26067182688E+02  0.22586708370E+02  0.45759271118E+02  0.57410619760E+02  0.35229192101E+01 0.  0.
         22    1    3    3    0    0  0.26067182688E+02 -0.22586708370E+02 -0.15128845887E+02  0.37663502043E+02  0.00000000000E+00 0. -1.
         22    1    4    4    0    0 -0.43467363143E+01  0.56431541674E+01  0.93120369380E+01  0.11724049534E+02  0.00000000000E+00 0.  1.
         22    1    4    4    0    0 -0.21720446373E+02  0.16943554203E+02  0.36447234180E+02  0.45686570226E+02  0.00000000000E+00 0.  1.
<mgrwt>
<rscale>  0 0.90004809E+02</rscale>
<asrwt>0</asrwt>
<pdfrwt beam="2">  1        2 0.49572075E-02 0.90004809E+02</pdfrwt>
<pdfrwt beam="1">  1       -2 0.96695804E-02 0.90004809E+02</pdfrwt>
<totfact> 0.93657347E+04</totfact>
</mgrwt>
</event>
<event>
 7    1  0.3337990E-009  0.9273637E+02  0.7818608E-02  0.1296357E+00
         -2   -1    0    0    0  501 -0.00000000000E+00  0.00000000000E+00  0.82109898768E+01  0.82109902728E+01  0.25500000000E-02 0.  1.
          2   -1    0    0  501    0  0.00000000000E+00 -0.00000000000E+00 -0.26184520232E+03  0.26184520233E+03  0.25500000000E-02 0. -1.
         23    2    1    2    0    0  0.00000000000E+00  0.00000000000E+00 -0.25363421244E+03  0.27005619260E+03  0.92736365266E+02 0.  0.
    9000005    2    3    3    0    0 -0.13835489207E+02  0.19287709329E+02 -0.24272737213E+03  0.24393348872E+03  0.48511075907E+01 0.  0.
         22    1    3    3    0    0  0.13835489207E+02 -0.19287709329E+02 -0.10906840316E+02  0.26122703888E+02  0.00000000000E+00 0.  1.
         22    1    4    4    0    0 -0.13309482703E+02  0.18680893177E+02 -0.23990712491E+03  0.24100113419E+03  0.00000000000E+00 0.  1.
         22    1    4    4    0    0 -0.52600650428E+00  0.60681615252E+00 -0.28202472159E+01  0.29323545223E+01  0.00000000000E+00 0.  1.
<mgrwt>
<rscale>  0 0.92736365E+02</rscale>
<asrwt>0</asrwt>
<pdfrwt beam="2">  1        2 0.40283871E-01 0.92736365E+02</pdfrwt>
<pdfrwt beam="1">  1       -2 0.12632294E-02 0.92736365E+02</pdfrwt>
<totfact> 0.16318394E+05</totfact>
</mgrwt>
</event>
<event>
 7    1  0.3337990E-009  0.9343499E+02  0.7818608E-02  0.1294740E+00
         -2   -1    0    0    0  501 -0.00000000000E+00  0.00000000000E+00  0.55761272308E+02  0.55761272367E+02  0.25500000000E-02 0.  1.
          2   -1    0    0  501    0  0.00000000000E+00 -0.00000000000E+00 -0.39140502228E+02  0.39140502311E+02  0.25500000000E-02 0. -1.
         23    2    1    2    0    0  0.35527136788E-14  0.00000000000E+00  0.16620770080E+02  0.94901774678E+02  0.93434987231E+02 0.  0.
    9000005    2    3    3    0    0  0.30390339815E+02  0.33349737197E+02  0.14931356746E+02  0.49750563812E+02  0.14710386133E+02 0.  0.
         22    1    3    3    0    0 -0.30390339815E+02 -0.33349737197E+02  0.16894133345E+01  0.45151210865E+02  0.00000000000E+00 0.  1.
         22    1    4    4    0    0  0.30679703513E+02  0.27103169329E+02  0.14689529202E+02  0.43492623093E+02  0.00000000000E+00 0.  1.
         22    1    4    4    0    0 -0.28936369855E+00  0.62465678685E+01  0.24182754373E+00  0.62579407194E+01  0.00000000000E+00 0.  1.
<mgrwt>
<rscale>  0 0.93434987E+02</rscale>
<asrwt>0</asrwt>
<pdfrwt beam="2">  1        2 0.60216158E-02 0.93434987E+02</pdfrwt>
<pdfrwt beam="1">  1       -2 0.85786573E-02 0.93434987E+02</pdfrwt>
<totfact> 0.88331274E+04</totfact>
</mgrwt>
</event>
<event>
 7    1  0.3337990E-009  0.9341190E+02  0.7818608E-02  0.1294793E+00
          2   -1    0    0  501    0  0.00000000000E+00  0.00000000000E+00  0.76835115262E+02  0.76835115304E+02  0.25500000000E-02 0.  1.
         -2   -1    0    0    0  501 -0.00000000000E+00 -0.00000000000E+00 -0.28391258002E+02  0.28391258117E+02  0.25500000000E-02 0. -1.
         23    2    1    2    0    0  0.71054273576E-14  0.00000000000E+00  0.48443857259E+02  0.10522637342E+03  0.93411896229E+02 0.  0.
    9000005    2    3    3    0    0  0.45097517849E+02  0.56107962447E+01  0.26826507511E+02  0.54901658213E+02  0.15141447046E+02 0.  0.
         22    1    3    3    0    0 -0.45097517849E+02 -0.56107962447E+01  0.21617349748E+02  0.50324715208E+02  0.00000000000E+00 0. -1.
         22    1    4    4    0    0  0.42521178209E+02  0.82933742009E+01  0.27216050844E+02  0.51161939715E+02  0.00000000000E+00 0.  1.
         22    1    4    4    0    0  0.25763396400E+01 -0.26825779562E+01 -0.38954333283E+00  0.37397184974E+01  0.00000000000E+00 0.  1.
<mgrwt>
<rscale>  0 0.93411896E+02</rscale>
<asrwt>0</asrwt>
<pdfrwt beam="1">  1        2 0.11820787E-01 0.93411896E+02</pdfrwt>
<pdfrwt beam="2">  1       -2 0.43678858E-02 0.93411896E+02</pdfrwt>
<totfact> 0.10611832E+05</totfact>
</mgrwt>
</event>
<event>
 7    1  0.3337990E-009  0.9010168E+02  0.7818608E-02  0.1302606E+00
          2   -1    0    0  501    0  0.00000000000E+00  0.00000000000E+00  0.26577722906E+03  0.26577722907E+03  0.25500000000E-02 0. -1.
         -2   -1    0    0    0  501 -0.00000000000E+00 -0.00000000000E+00 -0.76363887881E+01  0.76363892139E+01  0.25500000000E-02 0.  1.
         23    2    1    2    0    0  0.35527136788E-14  0.00000000000E+00  0.25814084027E+03  0.27341361828E+03  0.90101682825E+02 0.  0.
    9000005    2    3    3    0    0  0.18221900882E+02  0.17063317790E+02  0.24214732748E+03  0.24376590442E+03  0.12778633276E+02 0.  0.
         22    1    3    3    0    0 -0.18221900882E+02 -0.17063317790E+02  0.15993512791E+02  0.29647713860E+02  0.00000000000E+00 0.  1.
         22    1    4    4    0    0  0.19792265539E+02  0.17287261191E+02  0.22047476066E+03  0.22203536489E+03  0.00000000000E+00 0. -1.
         22    1    4    4    0    0 -0.15703646569E+01 -0.22394340069E+00  0.21672566822E+02  0.21730539535E+02  0.00000000000E+00 0. -1.
<mgrwt>
<rscale>  0 0.90101683E+02</rscale>
<asrwt>0</asrwt>
<pdfrwt beam="1">  1        2 0.40888807E-01 0.90101683E+02</pdfrwt>
<pdfrwt beam="2">  1       -2 0.11748290E-02 0.90101683E+02</pdfrwt>
<totfact> 0.17725236E+05</totfact>
</mgrwt>
</event>
<event>
 7    1  0.3337990E-009  0.9183953E+02  0.7818608E-02  0.1298457E+00
         -2   -1    0    0    0  501 -0.00000000000E+00  0.00000000000E+00  0.68762612368E+01  0.68762617096E+01  0.25500000000E-02 0.  1.
          2   -1    0    0  501    0  0.00000000000E+00 -0.00000000000E+00 -0.30665277267E+03  0.30665277268E+03  0.25500000000E-02 0. -1.
         23    2    1    2    0    0  0.35527136788E-14  0.00000000000E+00 -0.29977651143E+03  0.31352903439E+03  0.91839526341E+02 0.  0.
    9000005    2    3    3    0    0 -0.29146383735E+02 -0.33519240118E+02 -0.14287845516E+03  0.15046447292E+03  0.15882491029E+02 0.  0.
         22    1    3    3    0    0  0.29146383735E+02  0.33519240118E+02 -0.15689805628E+03  0.16306456147E+03  0.00000000000E+00 0. -1.
         22    1    4    4    0    0 -0.89272834644E+01 -0.14664192095E+02 -0.79269280373E+02  0.81107051054E+02  0.00000000000E+00 0.  1.
         22    1    4    4    0    0 -0.20219100271E+02 -0.18855048023E+02 -0.63609174783E+02  0.69357421869E+02  0.00000000000E+00 0.  1.
<mgrwt>
<rscale>  0 0.91839526E+02</rscale>
<asrwt>0</asrwt>
<pdfrwt beam="2">  1        2 0.47177339E-01 0.91839526E+02</pdfrwt>
<pdfrwt beam="1">  1       -2 0.10578866E-02 0.91839526E+02</pdfrwt>
<totfact> 0.17766402E+05</totfact>
</mgrwt>
</event>
<event>
 7    1  0.3337990E-009  0.9090812E+02  0.7818608E-02  0.1300667E+00
          2   -1    0    0  501    0  0.00000000000E+00  0.00000000000E+00  0.10554498374E+03  0.10554498377E+03  0.25500000000E-02 0. -1.
         -2   -1    0    0    0  501 -0.00000000000E+00 -0.00000000000E+00 -0.19575270080E+02  0.19575270246E+02  0.25500000000E-02 0.  1.
         23    2    1    2    0    0  0.00000000000E+00  0.00000000000E+00  0.85969713655E+02  0.12512025401E+03  0.90908120089E+02 0.  0.
    9000005    2    3    3    0    0  0.26802259740E+02  0.32237670581E+02  0.24451101874E+02  0.50674514529E+02  0.14574687242E+02 0.  0.
         22    1    3    3    0    0 -0.26802259740E+02 -0.32237670581E+02  0.61518611781E+02  0.74445739483E+02  0.00000000000E+00 0. -1.
         22    1    4    4    0    0  0.20972886383E+02  0.24621818804E+02  0.25275896875E+02  0.41048348167E+02  0.00000000000E+00 0.  1.
         22    1    4    4    0    0  0.58293733574E+01  0.76158517778E+01 -0.82479500020E+00  0.96261663623E+01  0.00000000000E+00 0.  1.
<mgrwt>
<rscale>  0 0.90908120E+02</rscale>
<asrwt>0</asrwt>
<pdfrwt beam="1">  1        2 0.16237690E-01 0.90908120E+02</pdfrwt>
<pdfrwt beam="2">  1       -2 0.30115800E-02 0.90908120E+02</pdfrwt>
<totfact> 0.12573971E+05</totfact>
</mgrwt>
</event>
<event>
 7    1  0.3337990E-009  0.9342449E+02  0.7818608E-02  0.1294764E+00
         -2   -1    0    0    0  501 -0.00000000000E+00  0.00000000000E+00  0.26448006977E+01  0.26448019270E+01  0.25500000000E-02 0.  1.
          2   -1    0    0  501    0  0.00000000000E+00 -0.00000000000E+00 -0.82502749929E+03  0.82502749930E+03  0.25500000000E-02 0. -1.
         23    2    1    2    0    0  0.00000000000E+00  0.00000000000E+00 -0.82238269860E+03  0.82767230122E+03  0.93424489639E+02 0.  0.
    9000005    2    3    3    0    0 -0.83752704495E+01  0.13260734008E+02 -0.80085565635E+03  0.80103762891E+03  0.67459913582E+01 0.  0.
         22    1    3    3    0    0  0.83752704495E+01 -0.13260734008E+02 -0.21527042250E+02  0.26634672320E+02  0.00000000000E+00 0.  1.
         22    1    4    4    0    0  0.75577823806E+00  0.38032201612E+01 -0.15804195570E+03  0.15808951719E+03  0.00000000000E+00 0.  1.
         22    1    4    4    0    0 -0.91310486876E+01  0.94575138463E+01 -0.64281370065E+03  0.64294811171E+03  0.00000000000E+00 0.  1.
<mgrwt>
<rscale>  0 0.93424490E+02</rscale>
<asrwt>0</asrwt>
<pdfrwt beam="2">  1        2 0.12692710E+00 0.93424490E+02</pdfrwt>
<pdfrwt beam="1">  1       -2 0.40689317E-03 0.93424490E+02</pdfrwt>
<totfact> 0.22975743E+05</totfact>
</mgrwt>
</event>
<event>
 7    1  0.3337990E-009  0.9127582E+02  0.7818608E-02  0.1299791E+00
         -2   -1    0    0    0  501 -0.00000000000E+00  0.00000000000E+00  0.55608508644E+01  0.55608514491E+01  0.25500000000E-02 0. -1.
          2   -1    0    0  501    0  0.00000000000E+00 -0.00000000000E+00 -0.37455035930E+03  0.37455035931E+03  0.25500000000E-02 0.  1.
         23    2    1    2    0    0 -0.35527136788E-14  0.35527136788E-14 -0.36898950844E+03  0.38011121076E+03  0.91275819406E+02 0.  0.
    9000005    2    3    3    0    0 -0.29904539440E+02  0.27054404455E+02 -0.26628797456E+03  0.26977614226E+03  0.15609588697E+02 0.  0.
         22    1    3    3    0    0  0.29904539440E+02 -0.27054404455E+02 -0.10270153388E+03  0.11033506850E+03  0.00000000000E+00 0. -1.
         22    1    4    4    0    0  0.25212450075E+00  0.80167246302E+00 -0.45989630359E+00  0.95799275149E+00  0.00000000000E+00 0.  1.
         22    1    4    4    0    0 -0.30156663941E+02  0.26252731992E+02 -0.26582807825E+03  0.26881814951E+03  0.00000000000E+00 0.  1.
<mgrwt>
<rscale>  0 0.91275819E+02</rscale>
<asrwt>0</asrwt>
<pdfrwt beam="2">  1        2 0.57623113E-01 0.91275819E+02</pdfrwt>
<pdfrwt beam="1">  1       -2 0.85551585E-03 0.91275819E+02</pdfrwt>
<totfact> 0.19438650E+05</totfact>
</mgrwt>
</event>
<event>
 7    1  0.3337990E-009  0.7930449E+02  0.7818608E-02  0.1331037E+00
         -2   -1    0    0    0  501 -0.00000000000E+00  0.00000000000E+00  0.32524749351E+01  0.32524759348E+01  0.25500000000E-02 0.  1.
          2   -1    0    0  501    0  0.00000000000E+00 -0.00000000000E+00 -0.48341660331E+03  0.48341660332E+03  0.25500000000E-02 0. -1.
         23    2    1    2    0    0  0.00000000000E+00  0.00000000000E+00 -0.48016412837E+03  0.48666907925E+03  0.79304492442E+02 0.  0.
    9000005    2    3    3    0    0  0.36642096251E+02 -0.14427241514E+02 -0.25317874643E+03  0.25629296909E+03  0.59849684180E+01 0.  0.
         22    1    3    3    0    0 -0.36642096251E+02  0.14427241514E+02 -0.22698538194E+03  0.23037611016E+03  0.00000000000E+00 0.  1.
         22    1    4    4    0    0  0.33514485187E+02 -0.11571616070E+02 -0.21876538668E+03  0.22161998427E+03  0.00000000000E+00 0.  1.
         22    1    4    4    0    0  0.31276110640E+01 -0.28556254448E+01 -0.34413359747E+02  0.34672984826E+02  0.00000000000E+00 0.  1.
<mgrwt>
<rscale>  0 0.79304492E+02</rscale>
<asrwt>0</asrwt>
<pdfrwt beam="2">  1        2 0.74371728E-01 0.79304492E+02</pdfrwt>
<pdfrwt beam="1">  1       -2 0.50038122E-03 0.79304492E+02</pdfrwt>
<totfact> 0.30750902E+05</totfact>
</mgrwt>
</event>
<event>
 7    1  0.3337990E-009  0.9080198E+02  0.7818608E-02  0.1300921E+00
          2   -1    0    0  501    0  0.00000000000E+00  0.00000000000E+00  0.11217306663E+02  0.11217306953E+02  0.25500000000E-02 0. -1.
         -2   -1    0    0    0  501 -0.00000000000E+00 -0.00000000000E+00 -0.18375620250E+03  0.18375620252E+03  0.25500000000E-02 0.  1.
         23    2    1    2    0    0  0.00000000000E+00 -0.35527136788E-14 -0.17253889584E+03  0.19497350948E+03  0.90801975853E+02 0.  0.
    9000005    2    3    3    0    0  0.16277914481E+02 -0.26103672199E+02 -0.21029686405E+02  0.40372692058E+02  0.15534939703E+02 0.  0.
         22    1    3    3    0    0 -0.16277914481E+02  0.26103672199E+02 -0.15150920944E+03  0.15460081742E+03  0.00000000000E+00 0.  1.
         22    1    4    4    0    0 -0.27857959433E+01 -0.16245689239E+01 -0.76459454928E+00  0.33142854510E+01  0.00000000000E+00 0.  1.
         22    1    4    4    0    0  0.19063710424E+02 -0.24479103275E+02 -0.20265091856E+02  0.37058406607E+02  0.00000000000E+00 0.  1.
<mgrwt>
<rscale>  0 0.90801976E+02</rscale>
<asrwt>0</asrwt>
<pdfrwt beam="1">  1        2 0.17257396E-02 0.90801976E+02</pdfrwt>
<pdfrwt beam="2">  1       -2 0.28270183E-01 0.90801976E+02</pdfrwt>
<totfact> 0.65267757E+04</totfact>
</mgrwt>
</event>
<event>
 7    1  0.3337990E-009  0.9472122E+02  0.7818608E-02  0.1291805E+00
          2   -1    0    0  501    0  0.00000000000E+00  0.00000000000E+00  0.11922463692E+03  0.11922463695E+03  0.25500000000E-02 0. -1.
         -2   -1    0    0    0  501 -0.00000000000E+00 -0.00000000000E+00 -0.18813456430E+02  0.18813456603E+02  0.25500000000E-02 0.  1.
         23    2    1    2    0    0  0.00000000000E+00  0.00000000000E+00  0.10041118049E+03  0.13803809355E+03  0.94721223092E+02 0.  0.
    9000005    2    3    3    0    0  0.39575538644E+02 -0.44232143692E+01  0.14155942881E+02  0.43034124691E+02  0.81090742185E+01 0.  0.
         22    1    3    3    0    0 -0.39575538644E+02  0.44232143692E+01  0.86255237613E+02  0.95003968864E+02  0.00000000000E+00 0. -1.
         22    1    4    4    0    0  0.19255797062E+02  0.67354918477E+00  0.98798673457E+01  0.21652971338E+02  0.00000000000E+00 0. -1.
         22    1    4    4    0    0  0.20319741583E+02 -0.50967635540E+01  0.42760755355E+01  0.21381153353E+02  0.00000000000E+00 0. -1.
<mgrwt>
<rscale>  0 0.94721223E+02</rscale>
<asrwt>0</asrwt>
<pdfrwt beam="1">  1        2 0.18342251E-01 0.94721223E+02</pdfrwt>
<pdfrwt beam="2">  1       -2 0.28943780E-02 0.94721223E+02</pdfrwt>
<totfact> 0.11671841E+05</totfact>
</mgrwt>
</event>
<event>
 7    1  0.3337990E-009  0.9366622E+02  0.7818608E-02  0.1294209E+00
          2   -1    0    0  501    0  0.00000000000E+00  0.00000000000E+00  0.15657581857E+03  0.15657581859E+03  0.25500000000E-02 0. -1.
         -2   -1    0    0    0  501 -0.00000000000E+00 -0.00000000000E+00 -0.14008167696E+02  0.14008167928E+02  0.25500000000E-02 0.  1.
         23    2    1    2    0    0  0.00000000000E+00  0.17763568394E-14  0.14256765087E+03  0.17058398652E+03  0.93666223266E+02 0.  0.
    9000005    2    3    3    0    0 -0.19135878526E+02  0.88256939548E+01  0.14701508441E+03  0.14904670754E+03  0.12546364543E+02 0.  0.
         22    1    3    3    0    0  0.19135878526E+02 -0.88256939548E+01 -0.44474335375E+01  0.21537278979E+02  0.00000000000E+00 0.  1.
         22    1    4    4    0    0 -0.66847540558E+01 -0.27679521106E+01  0.54775460283E+02  0.55251231162E+02  0.00000000000E+00 0. -1.
         22    1    4    4    0    0 -0.12451124470E+02  0.11593646065E+02  0.92239624128E+02  0.93795476378E+02  0.00000000000E+00 0. -1.
<mgrwt>
<rscale>  0 0.93666223E+02</rscale>
<asrwt>0</asrwt>
<pdfrwt beam="1">  1        2 0.24088588E-01 0.93666223E+02</pdfrwt>
<pdfrwt beam="2">  1       -2 0.21551027E-02 0.93666223E+02</pdfrwt>
<totfact> 0.13186104E+05</totfact>
</mgrwt>
</event>
<event>
 7    1  0.3337990E-009  0.9061438E+02  0.7818608E-02  0.1301371E+00
          2   -1    0    0  501    0  0.00000000000E+00  0.00000000000E+00  0.18105566724E+02  0.18105566903E+02  0.25500000000E-02 0. -1.
         -2   -1    0    0    0  501 -0.00000000000E+00 -0.00000000000E+00 -0.11337626402E+03  0.11337626405E+03  0.25500000000E-02 0.  1.
         23    2    1    2    0    0  0.00000000000E+00  0.00000000000E+00 -0.95270697297E+02  0.13148183095E+03  0.90614381349E+02 0.  0.
    9000005    2    3    3    0    0 -0.17342630529E+02  0.35059106105E+02 -0.19876145366E+02  0.46545112065E+02  0.15539580047E+02 0.  0.
         22    1    3    3    0    0  0.17342630529E+02 -0.35059106105E+02 -0.75394551930E+02  0.84936718887E+02  0.00000000000E+00 0.  1.
         22    1    4    4    0    0 -0.69168993524E+01  0.33598655700E+01 -0.80735747363E+01  0.11149654807E+02  0.00000000000E+00 0.  1.
         22    1    4    4    0    0 -0.10425731176E+02  0.31699240535E+02 -0.11802570630E+02  0.35395457258E+02  0.00000000000E+00 0.  1.
<mgrwt>
<rscale>  0 0.90614381E+02</rscale>
<asrwt>0</asrwt>
<pdfrwt beam="1">  1        2 0.27854719E-02 0.90614381E+02</pdfrwt>
<pdfrwt beam="2">  1       -2 0.17442502E-01 0.90614381E+02</pdfrwt>
<totfact> 0.77993628E+04</totfact>
</mgrwt>
</event>
<event>
 7    1  0.3337990E-009  0.9003219E+02  0.7818608E-02  0.1302774E+00
         -2   -1    0    0    0  501 -0.00000000000E+00  0.00000000000E+00  0.36238903481E+02  0.36238903571E+02  0.25500000000E-02 0.  1.
          2   -1    0    0  501    0  0.00000000000E+00 -0.00000000000E+00 -0.55919158151E+02  0.55919158209E+02  0.25500000000E-02 0. -1.
         23    2    1    2    0    0  0.00000000000E+00  0.00000000000E+00 -0.19680254670E+02  0.92158061780E+02  0.90032193837E+02 0.  0.
    9000005    2    3    3    0    0 -0.14935811223E+02 -0.19927820458E+02 -0.47352712001E+02  0.54929559529E+02  0.12441088825E+02 0.  0.
         22    1    3    3    0    0  0.14935811223E+02  0.19927820458E+02  0.27672457331E+02  0.37228502251E+02  0.00000000000E+00 0.  1.
         22    1    4    4    0    0 -0.58067569703E+01 -0.10522669630E+02 -0.34657442941E+02  0.36682193962E+02  0.00000000000E+00 0.  1.
         22    1    4    4    0    0 -0.91290542527E+01 -0.94051508280E+01 -0.12695269060E+02  0.18247365568E+02  0.00000000000E+00 0.  1.
<mgrwt>
<rscale>  0 0.90032194E+02</rscale>
<asrwt>0</asrwt>
<pdfrwt beam="2">  1        2 0.86029475E-02 0.90032194E+02</pdfrwt>
<pdfrwt beam="1">  1       -2 0.55752159E-02 0.90032194E+02</pdfrwt>
<totfact> 0.10788073E+05</totfact>
</mgrwt>
</event>
<event>
 7    1  0.3337990E-009  0.8782612E+02  0.7818608E-02  0.1308203E+00
         -2   -1    0    0    0  501 -0.00000000000E+00  0.00000000000E+00  0.21954297814E+02  0.21954297962E+02  0.25500000000E-02 0.  1.
          2   -1    0    0  501    0  0.00000000000E+00 -0.00000000000E+00 -0.87835048568E+02  0.87835048605E+02  0.25500000000E-02 0. -1.
         23    2    1    2    0    0  0.00000000000E+00  0.00000000000E+00 -0.65880750754E+02  0.10978934657E+03  0.87826119689E+02 0.  0.
    9000005    2    3    3    0    0 -0.13967917376E+02 -0.14078198631E+02 -0.81396470836E+02  0.84609275832E+02  0.11834090577E+02 0.  0.
         22    1    3    3    0    0  0.13967917376E+02  0.14078198631E+02  0.15515720082E+02  0.25180070734E+02  0.00000000000E+00 0.  1.
         22    1    4    4    0    0 -0.72167570181E+01  0.16110334091E+00 -0.21772804796E+02  0.22938233691E+02  0.00000000000E+00 0.  1.
         22    1    4    4    0    0 -0.67511603582E+01 -0.14239301972E+02 -0.59623666040E+02  0.61671042142E+02  0.00000000000E+00 0.  1.
<mgrwt>
<rscale>  0 0.87826120E+02</rscale>
<asrwt>0</asrwt>
<pdfrwt beam="2">  1        2 0.13513084E-01 0.87826120E+02</pdfrwt>
<pdfrwt beam="1">  1       -2 0.33775843E-02 0.87826120E+02</pdfrwt>
<totfact> 0.13084409E+05</totfact>
</mgrwt>
</event>
<event>
 7    1  0.3374253E-009  0.9129033E+02  0.7818608E-02  0.1299757E+00
         -2   -1    0    0    0  501 -0.00000000000E+00  0.00000000000E+00  0.26094778067E+01  0.26094790527E+01  0.25500000000E-02 0.  1.
          2   -1    0    0  501    0  0.00000000000E+00 -0.00000000000E+00 -0.79842824862E+03  0.79842824862E+03  0.25500000000E-02 0. -1.
         23    2    1    2    0    0  0.00000000000E+00 -0.17763568394E-14 -0.79581877081E+03  0.80103772767E+03  0.91290334553E+02 0.  0.
    9000005    2    3    3    0    0 -0.37180525215E+02 -0.13821271969E+02 -0.58641787697E+03  0.58791299107E+03  0.13503318743E+02 0.  0.
         22    1    3    3    0    0  0.37180525215E+02  0.13821271969E+02 -0.20940089384E+03  0.21312473661E+03  0.00000000000E+00 0.  1.
         22    1    4    4    0    0 -0.36366471511E+02 -0.12219261556E+02 -0.57939855906E+03  0.58066730651E+03  0.00000000000E+00 0. -1.
         22    1    4    4    0    0 -0.81405370416E+00 -0.16020104128E+01 -0.70193179077E+01  0.72456845560E+01  0.00000000000E+00 0. -1.
<mgrwt>
<rscale>  0 0.91290335E+02</rscale>
<asrwt>0</asrwt>
<pdfrwt beam="2">  1        2 0.12283492E+00 0.91290335E+02</pdfrwt>
<pdfrwt beam="1">  1       -2 0.40145886E-03 0.91290335E+02</pdfrwt>
<totfact> 0.24285742E+05</totfact>
</mgrwt>
</event>
<event>
 7    1  0.3337990E-009  0.9066654E+02  0.7818608E-02  0.1301246E+00
         -2   -1    0    0    0  501 -0.00000000000E+00  0.00000000000E+00  0.76910077771E+01  0.76910081998E+01  0.25500000000E-02 0.  1.
          2   -1    0    0  501    0  0.00000000000E+00 -0.00000000000E+00 -0.26720883205E+03  0.26720883206E+03  0.25500000000E-02 0. -1.
         23    2    1    2    0    0  0.00000000000E+00  0.00000000000E+00 -0.25951782427E+03  0.27489984026E+03  0.90666537712E+02 0.  0.
    9000005    2    3    3    0    0 -0.38867311675E+02 -0.14181515766E+02 -0.18004365308E+03  0.18530113942E+03  0.14457245537E+02 0.  0.
         22    1    3    3    0    0  0.38867311675E+02  0.14181515766E+02 -0.79474171189E+02  0.89598700841E+02  0.00000000000E+00 0. -1.
         22    1    4    4    0    0 -0.85080594700E+01 -0.79891560531E+01 -0.32311218258E+02  0.34354454089E+02  0.00000000000E+00 0.  1.
         22    1    4    4    0    0 -0.30359252205E+02 -0.61923597132E+01 -0.14773243482E+03  0.15094668533E+03  0.00000000000E+00 0.  1.
<mgrwt>
<rscale>  0 0.90666538E+02</rscale>
<asrwt>0</asrwt>
<pdfrwt beam="2">  1        2 0.41109044E-01 0.90666538E+02</pdfrwt>
<pdfrwt beam="1">  1       -2 0.11832322E-02 0.90666538E+02</pdfrwt>
<totfact> 0.17466856E+05</totfact>
</mgrwt>
</event>
<event>
 7    1  0.3337990E-009  0.9266602E+02  0.7818608E-02  0.1296521E+00
         -2   -1    0    0    0  501 -0.00000000000E+00  0.00000000000E+00  0.54132503537E+01  0.54132509543E+01  0.25500000000E-02 0.  1.
          2   -1    0    0  501    0  0.00000000000E+00 -0.00000000000E+00 -0.39657279983E+03  0.39657279983E+03  0.25500000000E-02 0. -1.
         23    2    1    2    0    0  0.00000000000E+00  0.00000000000E+00 -0.39115954947E+03  0.40198605079E+03  0.92666023359E+02 0.  0.
    9000005    2    3    3    0    0  0.36317213775E+02  0.40125803123E+01 -0.31893977910E+03  0.32104943331E+03  0.38878162681E+01 0.  0.
         22    1    3    3    0    0 -0.36317213775E+02 -0.40125803123E+01 -0.72219770370E+02  0.80936617482E+02  0.00000000000E+00 0.  1.
         22    1    4    4    0    0  0.21516933499E+02  0.20561319316E+01 -0.20479463256E+03  0.20593214327E+03  0.00000000000E+00 0.  1.
         22    1    4    4    0    0  0.14800280276E+02  0.19564483807E+01 -0.11414514654E+03  0.11511729004E+03  0.00000000000E+00 0.  1.
<mgrwt>
<rscale>  0 0.92666023E+02</rscale>
<asrwt>0</asrwt>
<pdfrwt beam="2">  1        2 0.61011177E-01 0.92666023E+02</pdfrwt>
<pdfrwt beam="1">  1       -2 0.83280810E-03 0.92666023E+02</pdfrwt>
<totfact> 0.19062033E+05</totfact>
</mgrwt>
</event>
<event>
 7    1  0.3337990E-009  0.8862739E+02  0.7818608E-02  0.1306210E+00
         -2   -1    0    0    0  501 -0.00000000000E+00  0.00000000000E+00  0.38127747514E+01  0.38127756041E+01  0.25500000000E-02 0.  1.
          2   -1    0    0  501    0  0.00000000000E+00 -0.00000000000E+00 -0.51503257823E+03  0.51503257823E+03  0.25500000000E-02 0. -1.
         23    2    1    2    0    0  0.00000000000E+00  0.00000000000E+00 -0.51121980348E+03  0.51884535384E+03  0.88627387037E+02 0.  0.
    9000005    2    3    3    0    0  0.18878081403E+02 -0.21105639518E+02 -0.45492136753E+03  0.45582675446E+03  0.47696408963E+01 0.  0.
         22    1    3    3    0    0 -0.18878081403E+02  0.21105639518E+02 -0.56298435950E+02  0.63018599377E+02  0.00000000000E+00 0.  1.
         22    1    4    4    0    0  0.11986841704E+02 -0.12725580425E+02 -0.24316492483E+03  0.24379254591E+03  0.00000000000E+00 0.  1.
         22    1    4    4    0    0  0.68912396990E+01 -0.83800590931E+01 -0.21175644269E+03  0.21203420855E+03  0.00000000000E+00 0.  1.
<mgrwt>
<rscale>  0 0.88627387E+02</rscale>
<asrwt>0</asrwt>
<pdfrwt beam="2">  1        2 0.79235726E-01 0.88627387E+02</pdfrwt>
<pdfrwt beam="1">  1       -2 0.58658120E-03 0.88627387E+02</pdfrwt>
<totfact> 0.23448239E+05</totfact>
</mgrwt>
</event>
<event>
 7    1  0.3337990E-009  0.9277220E+02  0.7818608E-02  0.1296274E+00
          2   -1    0    0  501    0  0.00000000000E+00  0.00000000000E+00  0.70712487811E+02  0.70712487857E+02  0.25500000000E-02 0. -1.
         -2   -1    0    0    0  501 -0.00000000000E+00 -0.00000000000E+00 -0.30428434755E+02  0.30428434862E+02  0.25500000000E-02 0.  1.
         23    2    1    2    0    0 -0.22204460493E-15  0.71054273576E-14  0.40284053056E+02  0.10114092272E+03  0.92772201212E+02 0.  0.
    9000005    2    3    3    0    0  0.57913430655E+00 -0.34578535691E+02  0.52943585908E+02  0.64313293157E+02  0.11711782990E+02 0.  0.
         22    1    3    3    0    0 -0.57913430655E+00  0.34578535691E+02 -0.12659532852E+02  0.36827629562E+02  0.00000000000E+00 0.  1.
         22    1    4    4    0    0 -0.23933488566E+01 -0.12479968742E+01  0.67770292515E+01  0.72947748713E+01  0.00000000000E+00 0. -1.
         22    1    4    4    0    0  0.29724831631E+01 -0.33330538817E+02  0.46166556656E+02  0.57018518286E+02  0.00000000000E+00 0. -1.
<mgrwt>
<rscale>  0 0.92772201E+02</rscale>
<asrwt>0</asrwt>
<pdfrwt beam="1">  1        2 0.10878844E-01 0.92772201E+02</pdfrwt>
<pdfrwt beam="2">  1       -2 0.46812977E-02 0.92772201E+02</pdfrwt>
<totfact> 0.10566621E+05</totfact>
</mgrwt>
</event>
<event>
 7    1  0.3337990E-009  0.9220449E+02  0.7818608E-02  0.1297599E+00
          2   -1    0    0  501    0  0.00000000000E+00  0.00000000000E+00  0.20094358762E+03  0.20094358764E+03  0.25500000000E-02 0.  1.
         -2   -1    0    0    0  501 -0.00000000000E+00 -0.00000000000E+00 -0.10577182702E+02  0.10577183010E+02  0.25500000000E-02 0. -1.
         23    2    1    2    0    0  0.00000000000E+00  0.00000000000E+00  0.19036640492E+03  0.21152077065E+03  0.92204491720E+02 0.  0.
    9000005    2    3    3    0    0  0.34409211044E+02  0.29678562206E+02  0.10321685850E+03  0.11323621285E+03  0.10193584444E+02 0.  0.
         22    1    3    3    0    0 -0.34409211044E+02 -0.29678562206E+02  0.87149546421E+02  0.98284557794E+02  0.00000000000E+00 0.  1.
         22    1    4    4    0    0  0.75684419811E+01  0.16254323919E+01  0.17656373916E+02  0.19278767708E+02  0.00000000000E+00 0.  1.
         22    1    4    4    0    0  0.26840769063E+02  0.28053129814E+02  0.85560484581E+02  0.93957445144E+02  0.00000000000E+00 0.  1.
<mgrwt>
<rscale>  0 0.92204492E+02</rscale>
<asrwt>0</asrwt>
<pdfrwt beam="1">  1        2 0.30914399E-01 0.92204492E+02</pdfrwt>
<pdfrwt beam="2">  1       -2 0.16272589E-02 0.92204492E+02</pdfrwt>
<totfact> 0.15033152E+05</totfact>
</mgrwt>
</event>
<event>
 7    1  0.3337990E-009  0.9071653E+02  0.7818608E-02  0.1301126E+00
         -2   -1    0    0    0  501 -0.00000000000E+00  0.00000000000E+00  0.86003539840E+02  0.86003539878E+02  0.25500000000E-02 0.  1.
          2   -1    0    0  501    0  0.00000000000E+00 -0.00000000000E+00 -0.23921947113E+02  0.23921947249E+02  0.25500000000E-02 0. -1.
         23    2    1    2    0    0  0.00000000000E+00  0.00000000000E+00  0.62081592727E+02  0.10992548713E+03  0.90716528618E+02 0.  0.
    9000005    2    3    3    0    0  0.29325202974E+02 -0.32752483483E+02  0.18165933435E+02  0.47786305970E+02  0.45647778595E+01 0.  0.
         22    1    3    3    0    0 -0.29325202974E+02  0.32752483483E+02  0.43915659292E+02  0.62139181157E+02  0.00000000000E+00 0. -1.
         22    1    4    4    0    0  0.28288534489E+02 -0.30021975479E+02  0.16530508077E+02  0.44438923170E+02  0.00000000000E+00 0. -1.
         22    1    4    4    0    0  0.10366684846E+01 -0.27305080044E+01  0.16354253580E+01  0.33473828002E+01  0.00000000000E+00 0. -1.
<mgrwt>
<rscale>  0 0.90716529E+02</rscale>
<asrwt>0</asrwt>
<pdfrwt beam="2">  1        2 0.36802996E-02 0.90716529E+02</pdfrwt>
<pdfrwt beam="1">  1       -2 0.13231314E-01 0.90716529E+02</pdfrwt>
<totfact> 0.84423952E+04</totfact>
</mgrwt>
</event>
<event>
 7    1  0.3337990E-009  0.9088765E+02  0.7818608E-02  0.1300716E+00
          2   -1    0    0  501    0  0.00000000000E+00  0.00000000000E+00  0.90638658858E+01  0.90638662445E+01  0.25500000000E-02 0. -1.
         -2   -1    0    0    0  501 -0.00000000000E+00 -0.00000000000E+00 -0.22784330990E+03  0.22784330991E+03  0.25500000000E-02 0.  1.
         23    2    1    2    0    0  0.17763568394E-14 -0.71054273576E-14 -0.21877944401E+03  0.23690717616E+03  0.90887650384E+02 0.  0.
    9000005    2    3    3    0    0  0.11373747657E+02 -0.42561753660E+02 -0.13754729960E+03  0.14449761877E+03  0.44087632058E+01 0.  0.
         22    1    3    3    0    0 -0.11373747657E+02  0.42561753660E+02 -0.81232144416E+02  0.92409557389E+02  0.00000000000E+00 0.  1.
         22    1    4    4    0    0  0.71297220484E+00 -0.95741442939E+00 -0.22484326065E+01  0.25456670915E+01  0.00000000000E+00 0.  1.
         22    1    4    4    0    0  0.10660775452E+02 -0.41604339231E+02 -0.13529886699E+03  0.14195195168E+03  0.00000000000E+00 0.  1.
<mgrwt>
<rscale>  0 0.90887650E+02</rscale>
<asrwt>0</asrwt>
<pdfrwt beam="1">  1        2 0.13944411E-02 0.90887650E+02</pdfrwt>
<pdfrwt beam="2">  1       -2 0.35052813E-01 0.90887650E+02</pdfrwt>
<totfact> 0.59240233E+04</totfact>
</mgrwt>
</event>
<event>
 7    1  0.3337990E-009  0.9002253E+02  0.7818608E-02  0.1302797E+00
          2   -1    0    0  501    0  0.00000000000E+00  0.00000000000E+00  0.35599609518E+03  0.35599609519E+03  0.25500000000E-02 0. -1.
         -2   -1    0    0    0  501 -0.00000000000E+00 -0.00000000000E+00 -0.56911129790E+01  0.56911135502E+01  0.25500000000E-02 0.  1.
         23    2    1    2    0    0  0.00000000000E+00  0.00000000000E+00  0.35030498220E+03  0.36168720874E+03  0.90022532795E+02 0.  0.
    9000005    2    3    3    0    0  0.22837819532E+02 -0.36218692672E+02  0.22784819358E+03  0.23196047757E+03  0.75831483060E+01 0.  0.
         22    1    3    3    0    0 -0.22837819532E+02  0.36218692672E+02  0.12245678862E+03  0.12972673117E+03  0.00000000000E+00 0.  1.
         22    1    4    4    0    0  0.13332593190E+02 -0.27564128500E+02  0.15820574207E+03  0.16114154041E+03  0.00000000000E+00 0.  1.
         22    1    4    4    0    0  0.95052263416E+01 -0.86545641722E+01  0.69642451509E+02  0.70818937164E+02  0.00000000000E+00 0.  1.
<mgrwt>
<rscale>  0 0.90022533E+02</rscale>
<asrwt>0</asrwt>
<pdfrwt beam="1">  1        2 0.54768646E-01 0.90022533E+02</pdfrwt>
<pdfrwt beam="2">  1       -2 0.87555564E-03 0.90022533E+02</pdfrwt>
<totfact> 0.19797034E+05</totfact>
</mgrwt>
</event>
<event>
 7    1  0.3337990E-009  0.9459300E+02  0.7818608E-02  0.1292095E+00
          2   -1    0    0  501    0  0.00000000000E+00  0.00000000000E+00  0.17282013320E+03  0.17282013322E+03  0.25500000000E-02 0. -1.
         -2   -1    0    0    0  501 -0.00000000000E+00 -0.00000000000E+00 -0.12943856782E+02  0.12943857033E+02  0.25500000000E-02 0.  1.
         23    2    1    2    0    0  0.00000000000E+00  0.35527136788E-14  0.15987627642E+03  0.18576399025E+03  0.94593003509E+02 0.  0.
    9000005    2    3    3    0    0  0.17841903232E+02 -0.19881113378E+02  0.15621253857E+03  0.15880077169E+03  0.10086411780E+02 0.  0.
         22    1    3    3    0    0 -0.17841903232E+02  0.19881113378E+02  0.36637378459E+01  0.26963218560E+02  0.00000000000E+00 0.  1.
         22    1    4    4    0    0  0.34377001709E+01  0.62100773959E+00  0.18227865823E+02  0.18559593895E+02  0.00000000000E+00 0.  1.
         22    1    4    4    0    0  0.14404203061E+02 -0.20502121118E+02  0.13798467275E+03  0.14024117780E+03  0.00000000000E+00 0.  1.
<mgrwt>
<rscale>  0 0.94593004E+02</rscale>
<asrwt>0</asrwt>
<pdfrwt beam="1">  1        2 0.26587712E-01 0.94593004E+02</pdfrwt>
<pdfrwt beam="2">  1       -2 0.19913627E-02 0.94593004E+02</pdfrwt>
<totfact> 0.13288804E+05</totfact>
</mgrwt>
</event>
<event>
 7    1  0.3337990E-009  0.9183797E+02  0.7818608E-02  0.1298461E+00
          2   -1    0    0  501    0  0.00000000000E+00  0.00000000000E+00  0.21934081166E+04  0.21934081166E+04  0.25500000000E-02 0.  1.
         -2   -1    0    0    0  501 -0.00000000000E+00 -0.00000000000E+00 -0.96131191006E+00  0.96131529215E+00  0.25500000000E-02 0. -1.
         23    2    1    2    0    0  0.00000000000E+00  0.00000000000E+00  0.21924468047E+04  0.21943694319E+04  0.91837967279E+02 0.  0.
    9000005    2    3    3    0    0 -0.12981926461E+02  0.96998340460E+01  0.21215087753E+04  0.21216039098E+04  0.11876409711E+02 0.  0.
         22    1    3    3    0    0  0.12981926461E+02 -0.96998340460E+01  0.70938029350E+02  0.72765522078E+02  0.00000000000E+00 0. -1.
         22    1    4    4    0    0 -0.33665383699E+01 -0.69231757574E+00  0.99815660539E+03  0.99816252272E+03  0.00000000000E+00 0.  1.
         22    1    4    4    0    0 -0.96153880907E+01  0.10392151622E+02  0.11233521699E+04  0.11234413871E+04  0.00000000000E+00 0.  1.
<mgrwt>
<rscale>  0 0.91837967E+02</rscale>
<asrwt>0</asrwt>
<pdfrwt beam="1">  1        2 0.33744696E+00 0.91837967E+02</pdfrwt>
<pdfrwt beam="2">  1       -2 0.14789459E-03 0.91837967E+02</pdfrwt>
<totfact> 0.17514276E+05</totfact>
</mgrwt>
</event>
<event>
 7    1  0.3337990E-009  0.9867196E+02  0.7818608E-02  0.1283114E+00
          2   -1    0    0  501    0  0.00000000000E+00  0.00000000000E+00  0.10397229859E+02  0.10397230171E+02  0.25500000000E-02 0. -1.
         -2   -1    0    0    0  501 -0.00000000000E+00 -0.00000000000E+00 -0.23410457626E+03  0.23410457627E+03  0.25500000000E-02 0.  1.
         23    2    1    2    0    0  0.00000000000E+00  0.35527136788E-14 -0.22370734640E+03  0.24450180645E+03  0.98671964210E+02 0.  0.
    9000005    2    3    3    0    0  0.32617813398E+02 -0.21389837745E+02 -0.45156177582E+02  0.61739756784E+02  0.15851507320E+02 0.  0.
         22    1    3    3    0    0 -0.32617813398E+02  0.21389837745E+02 -0.17855116882E+03  0.18276204966E+03  0.00000000000E+00 0.  1.
         22    1    4    4    0    0  0.17932617102E+02 -0.37195559784E+01 -0.26128029939E+02  0.31907488170E+02  0.00000000000E+00 0.  1.
         22    1    4    4    0    0  0.14685196296E+02 -0.17670281766E+02 -0.19028147642E+02  0.29832268614E+02  0.00000000000E+00 0.  1.
<mgrwt>
<rscale>  0 0.98671964E+02</rscale>
<asrwt>0</asrwt>
<pdfrwt beam="1">  1        2 0.15995740E-02 0.98671964E+02</pdfrwt>
<pdfrwt beam="2">  1       -2 0.36016085E-01 0.98671964E+02</pdfrwt>
<totfact> 0.47357588E+04</totfact>
</mgrwt>
</event>
<event>
 7    1  0.3337990E-009  0.9141473E+02  0.7818608E-02  0.1299461E+00
         -2   -1    0    0    0  501 -0.00000000000E+00  0.00000000000E+00  0.15280987112E+03  0.15280987114E+03  0.25500000000E-02 0.  1.
          2   -1    0    0  501    0  0.00000000000E+00 -0.00000000000E+00 -0.13671649386E+02  0.13671649624E+02  0.25500000000E-02 0. -1.
         23    2    1    2    0    0 -0.35527136788E-14  0.00000000000E+00  0.13913822173E+03  0.16648152076E+03  0.91414725339E+02 0.  0.
    9000005    2    3    3    0    0  0.18200944358E+02  0.34633061474E+02  0.29150188869E+02  0.49742107129E+02  0.96860924990E+01 0.  0.
         22    1    3    3    0    0 -0.18200944358E+02 -0.34633061474E+02  0.10998803286E+03  0.11673941363E+03  0.00000000000E+00 0. -1.
         22    1    4    4    0    0 -0.58546641832E+00  0.50828759111E+01  0.53520864211E+01  0.74042708968E+01  0.00000000000E+00 0.  1.
         22    1    4    4    0    0  0.18786410776E+02  0.29550185563E+02  0.23798102448E+02  0.42337836232E+02  0.00000000000E+00 0.  1.
<mgrwt>
<rscale>  0 0.91414725E+02</rscale>
<asrwt>0</asrwt>
<pdfrwt beam="2">  1        2 0.21033308E-02 0.91414725E+02</pdfrwt>
<pdfrwt beam="1">  1       -2 0.23509210E-01 0.91414725E+02</pdfrwt>
<totfact> 0.68926810E+04</totfact>
</mgrwt>
</event>
<event>
 7    1  0.3337990E-009  0.9282283E+02  0.7818608E-02  0.1296156E+00
         -2   -1    0    0    0  501 -0.00000000000E+00  0.00000000000E+00  0.32737393859E+01  0.32737403790E+01  0.25500000000E-02 0.  1.
          2   -1    0    0  501    0  0.00000000000E+00 -0.00000000000E+00 -0.65796906837E+03  0.65796906837E+03  0.25500000000E-02 0. -1.
         23    2    1    2    0    0  0.35527136788E-14  0.35527136788E-14 -0.65469532898E+03  0.66124280875E+03  0.92822833049E+02 0.  0.
    9000005    2    3    3    0    0  0.19457356147E+02  0.31488201848E+02 -0.52569618586E+03  0.52703820939E+03  0.65344291829E+01 0.  0.
         22    1    3    3    0    0 -0.19457356147E+02 -0.31488201848E+02 -0.12899914312E+03  0.13420459936E+03  0.00000000000E+00 0.  1.
         22    1    4    4    0    0  0.93902186230E+01  0.20890791493E+02 -0.30545975889E+03  0.30631726310E+03  0.00000000000E+00 0. -1.
         22    1    4    4    0    0  0.10067137524E+02  0.10597410355E+02 -0.22023642697E+03  0.22072094629E+03  0.00000000000E+00 0. -1.
<mgrwt>
<rscale>  0 0.92822833E+02</rscale>
<asrwt>0</asrwt>
<pdfrwt beam="2">  1        2 0.10122591E+00 0.92822833E+02</pdfrwt>
<pdfrwt beam="1">  1       -2 0.50365281E-03 0.92822833E+02</pdfrwt>
<totfact> 0.22279961E+05</totfact>
</mgrwt>
</event>
<event>
 7    1  0.3337990E-009  0.9226314E+02  0.7818608E-02  0.1297462E+00
         -2   -1    0    0    0  501 -0.00000000000E+00  0.00000000000E+00  0.60579289477E+01  0.60579294844E+01  0.25500000000E-02 0.  1.
          2   -1    0    0  501    0  0.00000000000E+00 -0.00000000000E+00 -0.35129524013E+03  0.35129524014E+03  0.25500000000E-02 0. -1.
         23    2    1    2    0    0  0.00000000000E+00  0.00000000000E+00 -0.34523731118E+03  0.35735316962E+03  0.92263138943E+02 0.  0.
    9000005    2    3    3    0    0 -0.42923236356E+02 -0.12837901164E+02 -0.17296788622E+03  0.17935325192E+03  0.15571878031E+02 0.  0.
         22    1    3    3    0    0  0.42923236356E+02  0.12837901164E+02 -0.17226942496E+03  0.17799991770E+03  0.00000000000E+00 0. -1.
         22    1    4    4    0    0 -0.80870447755E+01  0.52303607491E+00 -0.15110021658E+02  0.17146037864E+02  0.00000000000E+00 0. -1.
         22    1    4    4    0    0 -0.34836191580E+02 -0.13360937239E+02 -0.15785786457E+03  0.16220721406E+03  0.00000000000E+00 0. -1.
<mgrwt>
<rscale>  0 0.92263139E+02</rscale>
<asrwt>0</asrwt>
<pdfrwt beam="2">  1        2 0.54045406E-01 0.92263139E+02</pdfrwt>
<pdfrwt beam="1">  1       -2 0.93198938E-03 0.92263139E+02</pdfrwt>
<totfact> 0.18453952E+05</totfact>
</mgrwt>
</event>
<event>
 7    1  0.3337990E-009  0.9108953E+02  0.7818608E-02  0.1300234E+00
         -2   -1    0    0    0  501 -0.00000000000E+00  0.00000000000E+00  0.73733864753E+01  0.73733869163E+01  0.25500000000E-02 0. -1.
          2   -1    0    0  501    0  0.00000000000E+00 -0.00000000000E+00 -0.28132604367E+03  0.28132604368E+03  0.25500000000E-02 0.  1.
         23    2    1    2    0    0  0.00000000000E+00  0.00000000000E+00 -0.27395265720E+03  0.28869943060E+03  0.91089532019E+02 0.  0.
    9000005    2    3    3    0    0  0.83062357054E+01  0.39439101677E+02 -0.71403998757E+02  0.82179709197E+02  0.55260539723E+01 0.  0.
         22    1    3    3    0    0 -0.83062357054E+01 -0.39439101677E+02 -0.20254865844E+03  0.20651972140E+03  0.00000000000E+00 0.  1.
         22    1    4    4    0    0  0.59212965013E+01  0.25430086857E+02 -0.40833896734E+02  0.48468115213E+02  0.00000000000E+00 0. -1.
         22    1    4    4    0    0  0.23849392041E+01  0.14009014820E+02 -0.30570102024E+02  0.33711593984E+02  0.00000000000E+00 0. -1.
<mgrwt>
<rscale>  0 0.91089532E+02</rscale>
<asrwt>0</asrwt>
<pdfrwt beam="2">  1        2 0.43280921E-01 0.91089532E+02</pdfrwt>
<pdfrwt beam="1">  1       -2 0.11343674E-02 0.91089532E+02</pdfrwt>
<totfact> 0.17585584E+05</totfact>
</mgrwt>
</event>
<event>
 7    1  0.3337990E-009  0.9071257E+02  0.7818608E-02  0.1301135E+00
         -2   -1    0    0    0  501 -0.00000000000E+00  0.00000000000E+00  0.23012060486E+01  0.23012074614E+01  0.25500000000E-02 0.  1.
          2   -1    0    0  501    0  0.00000000000E+00 -0.00000000000E+00 -0.89396247813E+03  0.89396247813E+03  0.25500000000E-02 0. -1.
         23    2    1    2    0    0 -0.88817841970E-15 -0.17763568394E-14 -0.89166127208E+03  0.89626368559E+03  0.90712567964E+02 0.  0.
    9000005    2    3    3    0    0  0.74844477896E+01  0.11140128701E+02 -0.87338141359E+03  0.87358610520E+03  0.13321792841E+02 0.  0.
         22    1    3    3    0    0 -0.74844477896E+01 -0.11140128701E+02 -0.18279858490E+02  0.22677580396E+02  0.00000000000E+00 0.  1.
         22    1    4    4    0    0  0.47578341182E+01  0.96288303116E+00 -0.57196576055E+03  0.57198635943E+03  0.00000000000E+00 0.  1.
         22    1    4    4    0    0  0.27266136714E+01  0.10177245670E+02 -0.30141565304E+03  0.30159974577E+03  0.00000000000E+00 0.  1.
<mgrwt>
<rscale>  0 0.90712568E+02</rscale>
<asrwt>0</asrwt>
<pdfrwt beam="2">  1        2 0.13753241E+00 0.90712568E+02</pdfrwt>
<pdfrwt beam="1">  1       -2 0.35403252E-03 0.90712568E+02</pdfrwt>
<totfact> 0.25110351E+05</totfact>
</mgrwt>
</event>
<event>
 7    1  0.3337990E-009  0.9124943E+02  0.7818608E-02  0.1299854E+00
          2   -1    0    0  501    0  0.00000000000E+00  0.00000000000E+00  0.18822187661E+02  0.18822187834E+02  0.25500000000E-02 0. -1.
         -2   -1    0    0    0  501 -0.00000000000E+00 -0.00000000000E+00 -0.11059367031E+03  0.11059367034E+03  0.25500000000E-02 0.  1.
         23    2    1    2    0    0  0.00000000000E+00  0.00000000000E+00 -0.91771482650E+02  0.12941585817E+03  0.91249434625E+02 0.  0.
    9000005    2    3    3    0    0 -0.35782374054E+02  0.25553740227E+02 -0.30871928980E+02  0.54301761163E+02  0.78888106815E+01 0.  0.
         22    1    3    3    0    0  0.35782374054E+02 -0.25553740227E+02 -0.60899553670E+02  0.75114097011E+02  0.00000000000E+00 0.  1.
         22    1    4    4    0    0 -0.11104228044E+02  0.49770484174E+01 -0.11725541178E+02  0.16898615544E+02  0.00000000000E+00 0. -1.
         22    1    4    4    0    0 -0.24678146011E+02  0.20576691810E+02 -0.19146387801E+02  0.37403145619E+02  0.00000000000E+00 0. -1.
<mgrwt>
<rscale>  0 0.91249435E+02</rscale>
<asrwt>0</asrwt>
<pdfrwt beam="1">  1        2 0.28957213E-02 0.91249435E+02</pdfrwt>
<pdfrwt beam="2">  1       -2 0.17014410E-01 0.91249435E+02</pdfrwt>
<totfact> 0.77241318E+04</totfact>
</mgrwt>
</event>
<event>
 7    1  0.3337990E-009  0.9256405E+02  0.7818608E-02  0.1296759E+00
         -2   -1    0    0    0  501 -0.00000000000E+00  0.00000000000E+00  0.31100184098E+01  0.31100194552E+01  0.25500000000E-02 0.  1.
          2   -1    0    0  501    0  0.00000000000E+00 -0.00000000000E+00 -0.68875016096E+03  0.68875016096E+03  0.25500000000E-02 0. -1.
         23    2    1    2    0    0  0.00000000000E+00  0.00000000000E+00 -0.68564014255E+03  0.69186018042E+03  0.92564054440E+02 0.  0.
    9000005    2    3    3    0    0  0.41518915769E+02  0.16921768395E+02 -0.42740429878E+03  0.42976111972E+03  0.31652479942E+01 0.  0.
         22    1    3    3    0    0 -0.41518915769E+02 -0.16921768395E+02 -0.25823584377E+03  0.26209906070E+03  0.00000000000E+00 0.  1.
         22    1    4    4    0    0  0.19219552537E+01  0.12103994459E+01 -0.27756095369E+02  0.27848874465E+02  0.00000000000E+00 0. -1.
         22    1    4    4    0    0  0.39596960515E+02  0.15711368949E+02 -0.39964820341E+03  0.40191224525E+03  0.00000000000E+00 0. -1.
<mgrwt>
<rscale>  0 0.92564054E+02</rscale>
<asrwt>0</asrwt>
<pdfrwt beam="2">  1        2 0.10596144E+00 0.92564054E+02</pdfrwt>
<pdfrwt beam="1">  1       -2 0.47846500E-03 0.92564054E+02</pdfrwt>
<totfact> 0.22700355E+05</totfact>
</mgrwt>
</event>
<event>
 7    1  0.3337990E-009  0.9175839E+02  0.7818608E-02  0.1298649E+00
          2   -1    0    0  501    0  0.00000000000E+00  0.00000000000E+00  0.77249689064E+03  0.77249689065E+03  0.25500000000E-02 0. -1.
         -2   -1    0    0    0  501 -0.00000000000E+00 -0.00000000000E+00 -0.27248004237E+01  0.27248016169E+01  0.25500000000E-02 0.  1.
         23    2    1    2    0    0  0.00000000000E+00 -0.88817841970E-15  0.76977209022E+03  0.77522169226E+03  0.91758385318E+02 0.  0.
    9000005    2    3    3    0    0  0.29829714161E+02 -0.56333295808E+01  0.67243136473E+03  0.67325717350E+03  0.13774437927E+02 0.  0.
         22    1    3    3    0    0 -0.29829714161E+02  0.56333295808E+01  0.97340725487E+02  0.10196451877E+03  0.00000000000E+00 0.  1.
         22    1    4    4    0    0  0.27760361172E+02 -0.86395311412E+01  0.54637365455E+03  0.54714664354E+03  0.00000000000E+00 0.  1.
         22    1    4    4    0    0  0.20693529893E+01  0.30062015605E+01  0.12605771018E+03  0.12611052995E+03  0.00000000000E+00 0.  1.
<mgrwt>
<rscale>  0 0.91758385E+02</rscale>
<asrwt>0</asrwt>
<pdfrwt beam="1">  1        2 0.11884580E+00 0.91758385E+02</pdfrwt>
<pdfrwt beam="2">  1       -2 0.41919972E-03 0.91758385E+02</pdfrwt>
<totfact> 0.23814979E+05</totfact>
</mgrwt>
</event>
<event>
 7    1  0.3337990E-009  0.9201241E+02  0.7818608E-02  0.1298050E+00
         -2   -1    0    0    0  501 -0.00000000000E+00  0.00000000000E+00  0.34856072459E+02  0.34856072552E+02  0.25500000000E-02 0.  1.
          2   -1    0    0  501    0  0.00000000000E+00 -0.00000000000E+00 -0.60723160002E+02  0.60723160055E+02  0.25500000000E-02 0. -1.
         23    2    1    2    0    0  0.35527136788E-14  0.00000000000E+00 -0.25867087543E+02  0.95579232607E+02  0.92012409423E+02 0.  0.
    9000005    2    3    3    0    0  0.31793541754E+02  0.25827646523E+01 -0.45976189881E+02  0.57871461958E+02  0.14757916610E+02 0.  0.
         22    1    3    3    0    0 -0.31793541754E+02 -0.25827646523E+01  0.20109102338E+02  0.37707770649E+02  0.00000000000E+00 0.  1.
         22    1    4    4    0    0  0.14531401127E+02 -0.40754954197E+01 -0.29322602983E+02  0.32978573761E+02  0.00000000000E+00 0. -1.
         22    1    4    4    0    0  0.17262140626E+02  0.66582600720E+01 -0.16653586898E+02  0.24892888197E+02  0.00000000000E+00 0. -1.
<mgrwt>
<rscale>  0 0.92012409E+02</rscale>
<asrwt>0</asrwt>
<pdfrwt beam="2">  1        2 0.93420247E-02 0.92012409E+02</pdfrwt>
<pdfrwt beam="1">  1       -2 0.53624727E-02 0.92012409E+02</pdfrwt>
<totfact> 0.10370503E+05</totfact>
</mgrwt>
</event>
<event>
 7    1  0.3337990E-009  0.9193014E+02  0.7818608E-02  0.1298244E+00
          2   -1    0    0  501    0  0.00000000000E+00  0.00000000000E+00  0.62890753718E+03  0.62890753718E+03  0.25500000000E-02 0.  1.
         -2   -1    0    0    0  501 -0.00000000000E+00 -0.00000000000E+00 -0.33594561203E+01  0.33594570881E+01  0.25500000000E-02 0. -1.
         23    2    1    2    0    0  0.00000000000E+00  0.88817841970E-15  0.62554808106E+03  0.63226699427E+03  0.91930138311E+02 0.  0.
    9000005    2    3    3    0    0  0.39388684097E+02 -0.55850092435E+01  0.46820975115E+03  0.46997709679E+03  0.86856019607E+01 0.  0.
         22    1    3    3    0    0 -0.39388684097E+02  0.55850092435E+01  0.15733832991E+03  0.16228989748E+03  0.00000000000E+00 0. -1.
         22    1    4    4    0    0  0.70267507136E+01  0.18924281380E+00  0.12471128116E+03  0.12490922578E+03  0.00000000000E+00 0.  1.
         22    1    4    4    0    0  0.32361933383E+02 -0.57742520573E+01  0.34349846999E+03  0.34506787101E+03  0.00000000000E+00 0.  1.
<mgrwt>
<rscale>  0 0.91930138E+02</rscale>
<asrwt>0</asrwt>
<pdfrwt beam="1">  1        2 0.96755007E-01 0.91930138E+02</pdfrwt>
<pdfrwt beam="2">  1       -2 0.51683947E-03 0.91930138E+02</pdfrwt>
<totfact> 0.22587004E+05</totfact>
</mgrwt>
</event>
<event>
 7    1  0.3337990E-009  0.9203948E+02  0.7818608E-02  0.1297987E+00
         -2   -1    0    0    0  501 -0.00000000000E+00  0.00000000000E+00  0.43251566575E+01  0.43251574092E+01  0.25500000000E-02 0.  1.
          2   -1    0    0  501    0  0.00000000000E+00 -0.00000000000E+00 -0.48965076464E+03  0.48965076465E+03  0.25500000000E-02 0. -1.
         23    2    1    2    0    0  0.00000000000E+00  0.00000000000E+00 -0.48532560798E+03  0.49397592206E+03  0.92039479613E+02 0.  0.
    9000005    2    3    3    0    0 -0.86820636505E+01 -0.20716554910E+02 -0.45805756211E+03  0.45864746041E+03  0.60173796614E+01 0.  0.
         22    1    3    3    0    0  0.86820636505E+01  0.20716554910E+02 -0.27268045875E+02  0.35328461648E+02  0.00000000000E+00 0.  1.
         22    1    4    4    0    0  0.22605643123E+00 -0.59478438662E+01 -0.13180830588E+03  0.13194262938E+03  0.00000000000E+00 0. -1.
         22    1    4    4    0    0 -0.89081200817E+01 -0.14768711044E+02 -0.32624925623E+03  0.32670483103E+03  0.00000000000E+00 0. -1.
<mgrwt>
<rscale>  0 0.92039480E+02</rscale>
<asrwt>0</asrwt>
<pdfrwt beam="2">  1        2 0.75330843E-01 0.92039480E+02</pdfrwt>
<pdfrwt beam="1">  1       -2 0.66540916E-03 0.92039480E+02</pdfrwt>
<totfact> 0.20875393E+05</totfact>
</mgrwt>
</event>
<event>
 7    1  0.3337990E-009  0.1143775E+03  0.7818608E-02  0.1252672E+00
         -2   -1    0    0    0  501 -0.00000000000E+00  0.00000000000E+00  0.12492496220E+02  0.12492496480E+02  0.25500000000E-02 0.  1.
          2   -1    0    0  501    0  0.00000000000E+00 -0.00000000000E+00 -0.26180154919E+03  0.26180154920E+03  0.25500000000E-02 0. -1.
         23    2    1    2    0    0  0.00000000000E+00  0.00000000000E+00 -0.24930905297E+03  0.27429404568E+03  0.11437753103E+03 0.  0.
    9000005    2    3    3    0    0  0.53060854114E+02  0.80266824941E+01 -0.78576287833E+02  0.95326006741E+02  0.57387002369E+01 0.  0.
         22    1    3    3    0    0 -0.53060854114E+02 -0.80266824941E+01 -0.17073276513E+03  0.17896803894E+03  0.00000000000E+00 0. -1.
         22    1    4    4    0    0  0.52746286428E+02  0.74079653695E+01 -0.77316129486E+02  0.93887339730E+02  0.00000000000E+00 0.  1.
         22    1    4    4    0    0  0.31456768588E+00  0.61871712462E+00 -0.12601583466E+01  0.14386670108E+01  0.00000000000E+00 0.  1.
<mgrwt>
<rscale>  0 0.11437753E+03</rscale>
<asrwt>0</asrwt>
<pdfrwt beam="2">  1        2 0.40277157E-01 0.11437753E+03</pdfrwt>
<pdfrwt beam="1">  1       -2 0.19219227E-02 0.11437753E+03</pdfrwt>
<totfact> 0.92339288E+04</totfact>
</mgrwt>
</event>
<event>
 7    1  0.3337990E-009  0.9703158E+02  0.7818608E-02  0.1286665E+00
         -2   -1    0    0    0  501 -0.00000000000E+00  0.00000000000E+00  0.36306182707E+01  0.36306191662E+01  0.25500000000E-02 0.  1.
          2   -1    0    0  501    0  0.00000000000E+00 -0.00000000000E+00 -0.64831426791E+03  0.64831426792E+03  0.25500000000E-02 0. -1.
         23    2    1    2    0    0 -0.35527136788E-14  0.17763568394E-14 -0.64468364964E+03  0.65194488708E+03  0.97031580834E+02 0.  0.
    9000005    2    3    3    0    0 -0.29324551130E+02  0.11751960177E+02 -0.56849660087E+03  0.56946759162E+03  0.10339962966E+02 0.  0.
         22    1    3    3    0    0  0.29324551130E+02 -0.11751960177E+02 -0.76187048771E+02  0.82477295466E+02  0.00000000000E+00 0. -1.
         22    1    4    4    0    0 -0.27691391333E+02  0.12771767906E+02 -0.55466148717E+03  0.55549914182E+03  0.00000000000E+00 0. -1.
         22    1    4    4    0    0 -0.16331597969E+01 -0.10198077293E+01 -0.13835113699E+02  0.13968449799E+02  0.00000000000E+00 0. -1.
<mgrwt>
<rscale>  0 0.97031581E+02</rscale>
<asrwt>0</asrwt>
<pdfrwt beam="2">  1        2 0.99740565E-01 0.97031581E+02</pdfrwt>
<pdfrwt beam="1">  1       -2 0.55855724E-03 0.97031581E+02</pdfrwt>
<totfact> 0.19733838E+05</totfact>
</mgrwt>
</event>
<event>
 7    1  0.3337990E-009  0.9181843E+02  0.7818608E-02  0.1298507E+00
         -2   -1    0    0    0  501 -0.00000000000E+00  0.00000000000E+00  0.39791577036E+02  0.39791577117E+02  0.25500000000E-02 0.  1.
          2   -1    0    0  501    0  0.00000000000E+00 -0.00000000000E+00 -0.52967391873E+02  0.52967391935E+02  0.25500000000E-02 0. -1.
         23    2    1    2    0    0  0.00000000000E+00  0.71054273576E-14 -0.13175814838E+02  0.92758969052E+02  0.91818430845E+02 0.  0.
    9000005    2    3    3    0    0  0.38331206544E+01  0.45413154652E+02 -0.89974726412E+01  0.46993196111E+02  0.70963749496E+01 0.  0.
         22    1    3    3    0    0 -0.38331206544E+01 -0.45413154652E+02 -0.41783421965E+01  0.45765772941E+02  0.00000000000E+00 0. -1.
         22    1    4    4    0    0  0.57879981598E+01  0.38536612226E+02 -0.78750572424E+01  0.39756608647E+02  0.00000000000E+00 0.  1.
         22    1    4    4    0    0 -0.19548775054E+01  0.68765424253E+01 -0.11224153988E+01  0.72365874634E+01  0.00000000000E+00 0.  1.
<mgrwt>
<rscale>  0 0.91818431E+02</rscale>
<asrwt>0</asrwt>
<pdfrwt beam="2">  1        2 0.81488296E-02 0.91818431E+02</pdfrwt>
<pdfrwt beam="1">  1       -2 0.61217811E-02 0.91818431E+02</pdfrwt>
<totfact> 0.10058933E+05</totfact>
</mgrwt>
</event>
<event>
 7    1  0.3337990E-009  0.8105482E+02  0.7818608E-02  0.1326084E+00
          2   -1    0    0  501    0  0.00000000000E+00  0.00000000000E+00  0.41955666368E+02  0.41955666445E+02  0.25500000000E-02 0. -1.
         -2   -1    0    0    0  501 -0.00000000000E+00 -0.00000000000E+00 -0.39147778700E+02  0.39147778783E+02  0.25500000000E-02 0.  1.
         23    2    1    2    0    0  0.00000000000E+00  0.00000000000E+00  0.28078876682E+01  0.81103445228E+02  0.81054824623E+02 0.  0.
    9000005    2    3    3    0    0  0.49653630220E+01  0.27751319289E+02 -0.26064366358E+02  0.40750036391E+02  0.13653707189E+02 0.  0.
         22    1    3    3    0    0 -0.49653630220E+01 -0.27751319289E+02  0.28872254026E+02  0.40353408837E+02  0.00000000000E+00 0. -1.
         22    1    4    4    0    0  0.64529472550E+01  0.14317546679E+02 -0.65583171835E+01  0.17018936379E+02  0.00000000000E+00 0. -1.
         22    1    4    4    0    0 -0.14875842329E+01  0.13433772609E+02 -0.19506049175E+02  0.23731100012E+02  0.00000000000E+00 0. -1.
<mgrwt>
<rscale>  0 0.81054825E+02</rscale>
<asrwt>0</asrwt>
<pdfrwt beam="1">  1        2 0.64547179E-02 0.81054825E+02</pdfrwt>
<pdfrwt beam="2">  1       -2 0.60227352E-02 0.81054825E+02</pdfrwt>
<totfact> 0.13505493E+05</totfact>
</mgrwt>
</event>
<event>
 7    1  0.3337990E-009  0.8703171E+02  0.7818608E-02  0.1310203E+00
          2   -1    0    0  501    0  0.00000000000E+00  0.00000000000E+00  0.11722373661E+02  0.11722373938E+02  0.25500000000E-02 0. -1.
         -2   -1    0    0    0  501 -0.00000000000E+00 -0.00000000000E+00 -0.16153976752E+03  0.16153976754E+03  0.25500000000E-02 0.  1.
         23    2    1    2    0    0  0.17763568394E-14  0.00000000000E+00 -0.14981739386E+03  0.17326214148E+03  0.87031707825E+02 0.  0.
    9000005    2    3    3    0    0 -0.14045336225E+02 -0.12660487728E+02 -0.15292568058E+03  0.15409913374E+03  0.16491881060E+01 0.  0.
         22    1    3    3    0    0  0.14045336225E+02  0.12660487728E+02  0.31082867161E+01  0.19163007736E+02  0.00000000000E+00 0. -1.
         22    1    4    4    0    0 -0.86939618480E+01 -0.82147752958E+01 -0.90512263336E+02  0.91299163851E+02  0.00000000000E+00 0. -1.
         22    1    4    4    0    0 -0.53513743768E+01 -0.44457124323E+01 -0.62413417242E+02  0.62799969893E+02  0.00000000000E+00 0. -1.
<mgrwt>
<rscale>  0 0.87031708E+02</rscale>
<asrwt>0</asrwt>
<pdfrwt beam="1">  1        2 0.18034422E-02 0.87031708E+02</pdfrwt>
<pdfrwt beam="2">  1       -2 0.24852270E-01 0.87031708E+02</pdfrwt>
<totfact> 0.76464084E+04</totfact>
</mgrwt>
</event>
<event>
 7    1  0.3337990E-009  0.9321631E+02  0.7818608E-02  0.1295245E+00
          2   -1    0    0  501    0  0.00000000000E+00  0.00000000000E+00  0.23031359445E+03  0.23031359447E+03  0.25500000000E-02 0. -1.
         -2   -1    0    0    0  501 -0.00000000000E+00 -0.00000000000E+00 -0.94320089208E+01  0.94320092655E+01  0.25500000000E-02 0.  1.
         23    2    1    2    0    0  0.00000000000E+00 -0.88817841970E-15  0.22088158553E+03  0.23974560373E+03  0.93216305879E+02 0.  0.
    9000005    2    3    3    0    0  0.10742681382E+02  0.75669896485E+01  0.22533032264E+03  0.22587275985E+03  0.84902770574E+01 0.  0.
         22    1    3    3    0    0 -0.10742681382E+02 -0.75669896485E+01 -0.44487371075E+01  0.13872843885E+02  0.00000000000E+00 0.  1.
         22    1    4    4    0    0  0.28347397288E+00 -0.16669928019E+01  0.23424570180E+02  0.23485521297E+02  0.00000000000E+00 0.  1.
         22    1    4    4    0    0  0.10459207409E+02  0.92339824504E+01  0.20190575246E+03  0.20238723855E+03  0.00000000000E+00 0.  1.
<mgrwt>
<rscale>  0 0.93216306E+02</rscale>
<asrwt>0</asrwt>
<pdfrwt beam="1">  1        2 0.35432858E-01 0.93216306E+02</pdfrwt>
<pdfrwt beam="2">  1       -2 0.14510784E-02 0.93216306E+02</pdfrwt>
<totfact> 0.15345245E+05</totfact>
</mgrwt>
</event>
<event>
 7    1  0.3337990E-009  0.9491399E+02  0.7818608E-02  0.1291370E+00
         -2   -1    0    0    0  501 -0.00000000000E+00  0.00000000000E+00  0.15441556772E+01  0.15441577828E+01  0.25500000000E-02 0.  1.
          2   -1    0    0  501    0  0.00000000000E+00 -0.00000000000E+00 -0.14585088693E+04  0.14585088693E+04  0.25500000000E-02 0. -1.
         23    2    1    2    0    0  0.17763568394E-14  0.00000000000E+00 -0.14569647136E+04  0.14600530271E+04  0.94913988211E+02 0.  0.
    9000005    2    3    3    0    0  0.11605511683E+02  0.19317610019E+02 -0.13705552522E+04  0.13707532343E+04  0.59052690564E+01 0.  0.
         22    1    3    3    0    0 -0.11605511683E+02 -0.19317610019E+02 -0.86409461420E+02  0.89299792728E+02  0.00000000000E+00 0.  1.
         22    1    4    4    0    0  0.73847612214E+00  0.54911814619E+01 -0.26278709873E+03  0.26284550154E+03  0.00000000000E+00 0. -1.
         22    1    4    4    0    0  0.10867035561E+02  0.13826428557E+02 -0.11077681534E+04  0.11079077328E+04  0.00000000000E+00 0. -1.
<mgrwt>
<rscale>  0 0.94913988E+02</rscale>
<asrwt>0</asrwt>
<pdfrwt beam="2">  1        2 0.22438488E+00 0.94913988E+02</pdfrwt>
<pdfrwt beam="1">  1       -2 0.23756374E-03 0.94913988E+02</pdfrwt>
<totfact> 0.21437311E+05</totfact>
</mgrwt>
</event>
<event>
 7    1  0.3337990E-009  0.9122237E+02  0.7818608E-02  0.1299918E+00
         -2   -1    0    0    0  501 -0.00000000000E+00  0.00000000000E+00  0.24370078908E+03  0.24370078909E+03  0.25500000000E-02 0.  1.
          2   -1    0    0  501    0  0.00000000000E+00 -0.00000000000E+00 -0.85366156729E+01  0.85366160538E+01  0.25500000000E-02 0. -1.
         23    2    1    2    0    0  0.17763568394E-14 -0.71054273576E-14  0.23516417341E+03  0.25223740515E+03  0.91222366232E+02 0.  0.
    9000005    2    3    3    0    0 -0.11305680161E+02  0.41484598016E+02  0.91015959481E+02  0.10181301266E+03  0.15270703671E+02 0.  0.
         22    1    3    3    0    0  0.11305680161E+02 -0.41484598016E+02  0.14414821392E+03  0.15042439248E+03  0.00000000000E+00 0.  1.
         22    1    4    4    0    0 -0.97019969531E+01  0.23011265144E+02  0.36464786701E+02  0.44196467478E+02  0.00000000000E+00 0. -1.
         22    1    4    4    0    0 -0.16036832083E+01  0.18473332871E+02  0.54551172780E+02  0.57616545184E+02  0.00000000000E+00 0. -1.
<mgrwt>
<rscale>  0 0.91222366E+02</rscale>
<asrwt>0</asrwt>
<pdfrwt beam="2">  1        2 0.13133256E-02 0.91222366E+02</pdfrwt>
<pdfrwt beam="1">  1       -2 0.37492426E-01 0.91222366E+02</pdfrwt>
<totfact> 0.56818237E+04</totfact>
</mgrwt>
</event>
<event>
 7    1  0.3337990E-009  0.9996596E+02  0.7818608E-02  0.1280368E+00
          2   -1    0    0  501    0  0.00000000000E+00  0.00000000000E+00  0.46146707132E+01  0.46146714178E+01  0.25500000000E-02 0. -1.
         -2   -1    0    0    0  501 -0.00000000000E+00 -0.00000000000E+00 -0.54138167716E+03  0.54138167717E+03  0.25500000000E-02 0.  1.
         23    2    1    2    0    0  0.35527136788E-14 -0.35527136788E-14 -0.53676700645E+03  0.54599634858E+03  0.99965961492E+02 0.  0.
    9000005    2    3    3    0    0  0.27385429542E+02 -0.20241145617E+02 -0.46550943508E+03  0.46701972416E+03  0.15770950708E+02 0.  0.
         22    1    3    3    0    0 -0.27385429542E+02  0.20241145617E+02 -0.71257571369E+02  0.78976624418E+02  0.00000000000E+00 0. -1.
         22    1    4    4    0    0  0.26450156129E+02 -0.20706582772E+02 -0.46381028990E+03  0.46502511583E+03  0.00000000000E+00 0.  1.
         22    1    4    4    0    0  0.93527341275E+00  0.46543715529E+00 -0.16991451744E+01  0.19946083390E+01  0.00000000000E+00 0.  1.
<mgrwt>
<rscale>  0 0.99965961E+02</rscale>
<asrwt>0</asrwt>
<pdfrwt beam="1">  1        2 0.70994982E-03 0.99965961E+02</pdfrwt>
<pdfrwt beam="2">  1       -2 0.83289439E-01 0.99965961E+02</pdfrwt>
<totfact> 0.26824409E+04</totfact>
</mgrwt>
</event>
<event>
 7    1  0.3337990E-009  0.8971290E+02  0.7818608E-02  0.1303548E+00
          2   -1    0    0  501    0  0.00000000000E+00  0.00000000000E+00  0.73359755261E+03  0.73359755261E+03  0.25500000000E-02 0. -1.
         -2   -1    0    0    0  501 -0.00000000000E+00 -0.00000000000E+00 -0.27427852843E+01  0.27427864696E+01  0.25500000000E-02 0.  1.
         23    2    1    2    0    0 -0.55511151231E-15  0.00000000000E+00  0.73085476732E+03  0.73634033908E+03  0.89712897845E+02 0.  0.
    9000005    2    3    3    0    0 -0.20498752452E+00 -0.28508859364E+02  0.64783770966E+03  0.64856432331E+03  0.11366016343E+02 0.  0.
         22    1    3    3    0    0  0.20498752452E+00  0.28508859364E+02  0.83017057660E+02  0.87776015771E+02  0.00000000000E+00 0.  1.
         22    1    4    4    0    0  0.55762709920E+01 -0.13541629905E+02  0.31281331197E+03  0.31315593349E+03  0.00000000000E+00 0.  1.
         22    1    4    4    0    0 -0.57812585166E+01 -0.14967229459E+02  0.33502439770E+03  0.33540838982E+03  0.00000000000E+00 0.  1.
<mgrwt>
<rscale>  0 0.89712898E+02</rscale>
<asrwt>0</asrwt>
<pdfrwt beam="1">  1        2 0.11286112E+00 0.89712898E+02</pdfrwt>
<pdfrwt beam="2">  1       -2 0.42196720E-03 0.89712898E+02</pdfrwt>
<totfact> 0.25008276E+05</totfact>
</mgrwt>
</event>
<event>
 7    1  0.3337990E-009  0.8850068E+02  0.7818608E-02  0.1306524E+00
          2   -1    0    0  501    0  0.00000000000E+00  0.00000000000E+00  0.39250555713E+03  0.39250555714E+03  0.25500000000E-02 0.  1.
         -2   -1    0    0    0  501 -0.00000000000E+00 -0.00000000000E+00 -0.49886998857E+01  0.49887005374E+01  0.25500000000E-02 0. -1.
         23    2    1    2    0    0  0.17763568394E-14  0.00000000000E+00  0.38751685724E+03  0.39749425767E+03  0.88500679300E+02 0.  0.
    9000005    2    3    3    0    0  0.15144131093E+02  0.39120832215E+02  0.25303652461E+03  0.25662288342E+03  0.82484718189E+01 0.  0.
         22    1    3    3    0    0 -0.15144131093E+02 -0.39120832215E+02  0.13448033263E+03  0.14087137426E+03  0.00000000000E+00 0.  1.
         22    1    4    4    0    0  0.29694888830E+01  0.13482432001E+02  0.10350208431E+03  0.10441874973E+03  0.00000000000E+00 0. -1.
         22    1    4    4    0    0  0.12174642210E+02  0.25638400214E+02  0.14953444030E+03  0.15220413369E+03  0.00000000000E+00 0. -1.
<mgrwt>
<rscale>  0 0.88500679E+02</rscale>
<asrwt>0</asrwt>
<pdfrwt beam="1">  1        2 0.60385472E-01 0.88500679E+02</pdfrwt>
<pdfrwt beam="2">  1       -2 0.76749232E-03 0.88500679E+02</pdfrwt>
<totfact> 0.21456480E+05</totfact>
</mgrwt>
</event>
<event>
 7    1  0.3337990E-009  0.9202990E+02  0.7818608E-02  0.1298009E+00
         -2   -1    0    0    0  501 -0.00000000000E+00  0.00000000000E+00  0.10909686197E+02  0.10909686495E+02  0.25500000000E-02 0.  1.
          2   -1    0    0  501    0  0.00000000000E+00 -0.00000000000E+00 -0.19408217125E+03  0.19408217127E+03  0.25500000000E-02 0. -1.
         23    2    1    2    0    0  0.00000000000E+00 -0.17763568394E-14 -0.18317248505E+03  0.20499185776E+03  0.92029899858E+02 0.  0.
    9000005    2    3    3    0    0  0.33853879946E+02 -0.14415299142E+02 -0.36146959115E+02  0.53431997263E+02  0.13945954307E+02 0.  0.
         22    1    3    3    0    0 -0.33853879946E+02  0.14415299142E+02 -0.14702552594E+03  0.15155986050E+03  0.00000000000E+00 0. -1.
         22    1    4    4    0    0  0.13458477317E+01 -0.47326842971E+01 -0.78236011686E+01  0.92422043917E+01  0.00000000000E+00 0.  1.
         22    1    4    4    0    0  0.32508032214E+02 -0.96826148450E+01 -0.28323357946E+02  0.44189792871E+02  0.00000000000E+00 0.  1.
<mgrwt>
<rscale>  0 0.92029900E+02</rscale>
<asrwt>0</asrwt>
<pdfrwt beam="2">  1        2 0.29858793E-01 0.92029900E+02</pdfrwt>
<pdfrwt beam="1">  1       -2 0.16784134E-02 0.92029900E+02</pdfrwt>
<totfact> 0.14921591E+05</totfact>
</mgrwt>
</event>
<event>
 7    1  0.3337990E-009  0.9392454E+02  0.7818608E-02  0.1293617E+00
         -2   -1    0    0    0  501 -0.00000000000E+00  0.00000000000E+00  0.54081137579E+01  0.54081143591E+01  0.25500000000E-02 0.  1.
          2   -1    0    0  501    0  0.00000000000E+00 -0.00000000000E+00 -0.40780480938E+03  0.40780480939E+03  0.25500000000E-02 0. -1.
         23    2    1    2    0    0  0.00000000000E+00  0.00000000000E+00 -0.40239669562E+03  0.41321292375E+03  0.93924542607E+02 0.  0.
    9000005    2    3    3    0    0  0.43911280336E+01  0.17225659058E+02 -0.39193807538E+03  0.39258798562E+03  0.13923583747E+02 0.  0.
         22    1    3    3    0    0 -0.43911280336E+01 -0.17225659058E+02 -0.10458620240E+02  0.20624938126E+02  0.00000000000E+00 0.  1.
         22    1    4    4    0    0  0.31644548202E+01  0.16181491120E+02 -0.38775588304E+03  0.38810627315E+03  0.00000000000E+00 0. -1.
         22    1    4    4    0    0  0.12266732134E+01  0.10441679374E+01 -0.41821923447E+01  0.44817124699E+01  0.00000000000E+00 0. -1.
<mgrwt>
<rscale>  0 0.93924543E+02</rscale>
<asrwt>0</asrwt>
<pdfrwt beam="2">  1        2 0.62739177E-01 0.93924543E+02</pdfrwt>
<pdfrwt beam="1">  1       -2 0.83201787E-03 0.93924543E+02</pdfrwt>
<totfact> 0.18574309E+05</totfact>
</mgrwt>
</event>
<event>
 7    1  0.3337990E-009  0.9487392E+02  0.7818608E-02  0.1291460E+00
          2   -1    0    0  501    0  0.00000000000E+00  0.00000000000E+00  0.56847364154E+01  0.56847369873E+01  0.25500000000E-02 0.  1.
         -2   -1    0    0    0  501 -0.00000000000E+00 -0.00000000000E+00 -0.39584331990E+03  0.39584331991E+03  0.25500000000E-02 0. -1.
         23    2    1    2    0    0  0.00000000000E+00  0.00000000000E+00 -0.39015858348E+03  0.40152805689E+03  0.94873917425E+02 0.  0.
    9000005    2    3    3    0    0 -0.63462068799E+01  0.45205406733E+02 -0.23524757726E+03  0.24003123653E+03  0.13775658327E+02 0.  0.
         22    1    3    3    0    0  0.63462068799E+01 -0.45205406733E+02 -0.15491100622E+03  0.16149682037E+03  0.00000000000E+00 0. -1.
         22    1    4    4    0    0  0.11158843024E+01  0.12459557655E+02 -0.39818164905E+02  0.41736938449E+02  0.00000000000E+00 0.  1.
         22    1    4    4    0    0 -0.74620911823E+01  0.32745849078E+02 -0.19542941236E+03  0.19829429808E+03  0.00000000000E+00 0.  1.
<mgrwt>
<rscale>  0 0.94873917E+02</rscale>
<asrwt>0</asrwt>
<pdfrwt beam="1">  1        2 0.87457519E-03 0.94873917E+02</pdfrwt>
<pdfrwt beam="2">  1       -2 0.60898951E-01 0.94873917E+02</pdfrwt>
<totfact> 0.38789849E+04</totfact>
</mgrwt>
</event>
<event>
 7    1  0.3337990E-009  0.9676278E+02  0.7818608E-02  0.1287254E+00
          2   -1    0    0  501    0  0.00000000000E+00  0.00000000000E+00  0.12581009364E+02  0.12581009622E+02  0.25500000000E-02 0. -1.
         -2   -1    0    0    0  501 -0.00000000000E+00 -0.00000000000E+00 -0.18605493716E+03  0.18605493717E+03  0.25500000000E-02 0.  1.
         23    2    1    2    0    0 -0.71054273576E-14  0.35527136788E-14 -0.17347392779E+03  0.19863594680E+03  0.96762780736E+02 0.  0.
    9000005    2    3    3    0    0  0.38811556790E+02 -0.23425527829E+02 -0.11827136619E+03  0.12720475542E+03  0.11740589649E+02 0.  0.
         22    1    3    3    0    0 -0.38811556790E+02  0.23425527829E+02 -0.55202561600E+02  0.71431191378E+02  0.00000000000E+00 0. -1.
         22    1    4    4    0    0  0.34710224172E+02 -0.15741683513E+02 -0.95477336185E+02  0.10280331700E+03  0.00000000000E+00 0. -1.
         22    1    4    4    0    0  0.41013326180E+01 -0.76838443152E+01 -0.22794030006E+02  0.24401438413E+02  0.00000000000E+00 0. -1.
<mgrwt>
<rscale>  0 0.96762781E+02</rscale>
<asrwt>0</asrwt>
<pdfrwt beam="1">  1        2 0.19355401E-02 0.96762781E+02</pdfrwt>
<pdfrwt beam="2">  1       -2 0.28623835E-01 0.96762781E+02</pdfrwt>
<totfact> 0.55209196E+04</totfact>
</mgrwt>
</event>
<event>
 7    1  0.3337990E-009  0.9041832E+02  0.7818608E-02  0.1301842E+00
         -2   -1    0    0    0  501 -0.00000000000E+00  0.00000000000E+00  0.29067805407E+03  0.29067805408E+03  0.25500000000E-02 0.  1.
          2   -1    0    0  501    0  0.00000000000E+00 -0.00000000000E+00 -0.70313805838E+01  0.70313810462E+01  0.25500000000E-02 0. -1.
         23    2    1    2    0    0  0.00000000000E+00  0.71054273576E-14  0.28364667348E+03  0.29770943512E+03  0.90418318852E+02 0.  0.
    9000005    2    3    3    0    0 -0.30846140134E+02 -0.32426912651E+02  0.12820340642E+03  0.13595159667E+03  0.66131834221E+01 0.  0.
         22    1    3    3    0    0  0.30846140134E+02  0.32426912651E+02  0.15544326706E+03  0.16175783845E+03  0.00000000000E+00 0.  1.
         22    1    4    4    0    0 -0.48349318256E+01 -0.84512708461E+01  0.32101156970E+02  0.33545265292E+02  0.00000000000E+00 0. -1.
         22    1    4    4    0    0 -0.26011208309E+02 -0.23975641805E+02  0.96102249450E+02  0.10240633138E+03  0.00000000000E+00 0. -1.
<mgrwt>
<rscale>  0 0.90418319E+02</rscale>
<asrwt>0</asrwt>
<pdfrwt beam="2">  1        2 0.10817510E-02 0.90418319E+02</pdfrwt>
<pdfrwt beam="1">  1       -2 0.44719697E-01 0.90418319E+02</pdfrwt>
<totfact> 0.53032597E+04</totfact>
</mgrwt>
</event>
<event>
 7    1  0.3337990E-009  0.1217286E+03  0.7818608E-02  0.1240272E+00
         -2   -1    0    0    0  501 -0.00000000000E+00  0.00000000000E+00  0.63616986973E+02  0.63616987024E+02  0.25500000000E-02 0.  1.
          2   -1    0    0  501    0  0.00000000000E+00 -0.00000000000E+00 -0.58230701253E+02  0.58230701309E+02  0.25500000000E-02 0. -1.
         23    2    1    2    0    0  0.00000000000E+00  0.00000000000E+00  0.53862857200E+01  0.12184768833E+03  0.12172857955E+03 0.  0.
    9000005    2    3    3    0    0 -0.50356017439E+02 -0.33802643173E+02  0.81586263463E+00  0.61026343847E+02  0.67232308970E+01 0.  0.
         22    1    3    3    0    0  0.50356017439E+02  0.33802643173E+02  0.45704230854E+01  0.60821344485E+02  0.00000000000E+00 0. -1.
         22    1    4    4    0    0 -0.29042990847E+02 -0.18178313795E+02 -0.26894229132E+01  0.34368290696E+02  0.00000000000E+00 0. -1.
         22    1    4    4    0    0 -0.21313026593E+02 -0.15624329378E+02  0.35052855478E+01  0.26658053151E+02  0.00000000000E+00 0. -1.
<mgrwt>
<rscale>  0 0.12172858E+03</rscale>
<asrwt>0</asrwt>
<pdfrwt beam="2">  1        2 0.89585694E-02 0.12172858E+03</pdfrwt>
<pdfrwt beam="1">  1       -2 0.97872288E-02 0.12172858E+03</pdfrwt>
<totfact> 0.45379978E+04</totfact>
</mgrwt>
</event>
<event>
 7    1  0.3337990E-009  0.9349670E+02  0.7818608E-02  0.1294598E+00
          2   -1    0    0  501    0  0.00000000000E+00  0.00000000000E+00  0.34175142110E+02  0.34175142205E+02  0.25500000000E-02 0. -1.
         -2   -1    0    0    0  501 -0.00000000000E+00 -0.00000000000E+00 -0.63947303296E+02  0.63947303347E+02  0.25500000000E-02 0.  1.
         23    2    1    2    0    0  0.00000000000E+00 -0.17763568394E-14 -0.29772161186E+02  0.98122445552E+02  0.93496699083E+02 0.  0.
    9000005    2    3    3    0    0 -0.34327326157E+02  0.13437525608E+02  0.12779921561E+02  0.41823136837E+02  0.15063730091E+02 0.  0.
         22    1    3    3    0    0  0.34327326157E+02 -0.13437525608E+02 -0.42552082747E+02  0.56299308714E+02  0.00000000000E+00 0.  1.
         22    1    4    4    0    0 -0.28847027536E+02  0.16476524893E+02  0.12672038923E+02  0.35555694912E+02  0.00000000000E+00 0.  1.
         22    1    4    4    0    0 -0.54802986212E+01 -0.30389992844E+01  0.10788263830E+00  0.62674419256E+01  0.00000000000E+00 0.  1.
<mgrwt>
<rscale>  0 0.93496699E+02</rscale>
<asrwt>0</asrwt>
<pdfrwt beam="1">  1        2 0.52577142E-02 0.93496699E+02</pdfrwt>
<pdfrwt beam="2">  1       -2 0.98380466E-02 0.93496699E+02</pdfrwt>
<totfact> 0.85033378E+04</totfact>
</mgrwt>
</event>
<event>
 7    1  0.3337990E-009  0.8311062E+02  0.7818608E-02  0.1320449E+00
         -2   -1    0    0    0  501 -0.00000000000E+00  0.00000000000E+00  0.50392535583E+02  0.50392535647E+02  0.25500000000E-02 0.  1.
          2   -1    0    0  501    0  0.00000000000E+00 -0.00000000000E+00 -0.34267850100E+02  0.34267850195E+02  0.25500000000E-02 0. -1.
         23    2    1    2    0    0  0.00000000000E+00 -0.35527136788E-14  0.16124685482E+02  0.84660385843E+02  0.83110621759E+02 0.  0.
    9000005    2    3    3    0    0  0.50999042535E+01  0.27996442377E+02 -0.22533477769E+02  0.36657642222E+02  0.51200882543E+01 0.  0.
         22    1    3    3    0    0 -0.50999042535E+01 -0.27996442377E+02  0.38658163252E+02  0.48002743621E+02  0.00000000000E+00 0.  1.
         22    1    4    4    0    0  0.17720651373E+01  0.21874170670E+02 -0.17098775505E+02  0.27820634089E+02  0.00000000000E+00 0. -1.
         22    1    4    4    0    0  0.33278391162E+01  0.61222717064E+01 -0.54347022642E+01  0.88370081323E+01  0.00000000000E+00 0. -1.
<mgrwt>
<rscale>  0 0.83110622E+02</rscale>
<asrwt>0</asrwt>
<pdfrwt beam="2">  1        2 0.52719770E-02 0.83110622E+02</pdfrwt>
<pdfrwt beam="1">  1       -2 0.77526978E-02 0.83110622E+02</pdfrwt>
<totfact> 0.11986391E+05</totfact>
</mgrwt>
</event>
<event>
 7    1  0.3337990E-009  0.7822977E+02  0.7818608E-02  0.1334151E+00
         -2   -1    0    0    0  501 -0.00000000000E+00  0.00000000000E+00  0.48676851562E+03  0.48676851563E+03  0.25500000000E-02 0. -1.
          2   -1    0    0  501    0  0.00000000000E+00 -0.00000000000E+00 -0.31431241658E+01  0.31431252002E+01  0.25500000000E-02 0.  1.
         23    2    1    2    0    0 -0.22204460493E-15  0.71054273576E-14  0.48362539146E+03  0.48991164083E+03  0.78229767726E+02 0.  0.
    9000005    2    3    3    0    0 -0.15303944308E+01  0.37871092396E+02  0.29200405675E+03  0.29457782998E+03  0.85537717169E+01 0.  0.
         22    1    3    3    0    0  0.15303944308E+01 -0.37871092396E+02  0.19162133471E+03  0.19533381086E+03  0.00000000000E+00 0.  1.
         22    1    4    4    0    0  0.35492080476E+01  0.13464610507E+02  0.10353166888E+03  0.10446386492E+03  0.00000000000E+00 0.  1.
         22    1    4    4    0    0 -0.50796024784E+01  0.24406481889E+02  0.18847238787E+03  0.19011396505E+03  0.00000000000E+00 0.  1.
<mgrwt>
<rscale>  0 0.78229768E+02</rscale>
<asrwt>0</asrwt>
<pdfrwt beam="2">  1        2 0.48355809E-03 0.78229768E+02</pdfrwt>
<pdfrwt beam="1">  1       -2 0.74887395E-01 0.78229768E+02</pdfrwt>
<totfact> 0.54987775E+04</totfact>
</mgrwt>
</event>
<event>
 7    1  0.3337990E-009  0.7957280E+02  0.7818608E-02  0.1330268E+00
         -2   -1    0    0    0  501 -0.00000000000E+00  0.00000000000E+00  0.35402949252E+01  0.35402958435E+01  0.25500000000E-02 0.  1.
          2   -1    0    0  501    0  0.00000000000E+00 -0.00000000000E+00 -0.44712581778E+03  0.44712581778E+03  0.25500000000E-02 0. -1.
         23    2    1    2    0    0  0.00000000000E+00  0.00000000000E+00 -0.44358552285E+03  0.45066611363E+03  0.79572796159E+02 0.  0.
    9000005    2    3    3    0    0  0.21231881872E+02 -0.24185620604E+02 -0.34923875222E+03  0.35098135962E+03  0.13582035957E+02 0.  0.
         22    1    3    3    0    0 -0.21231881872E+02  0.24185620604E+02 -0.94346770633E+02  0.99684754003E+02  0.00000000000E+00 0.  1.
         22    1    4    4    0    0  0.15641634601E+02 -0.13167457436E+02 -0.15389386852E+03  0.15524614468E+03  0.00000000000E+00 0.  1.
         22    1    4    4    0    0  0.55902472705E+01 -0.11018163168E+02 -0.19534488369E+03  0.19573521495E+03  0.00000000000E+00 0.  1.
<mgrwt>
<rscale>  0 0.79572796E+02</rscale>
<asrwt>0</asrwt>
<pdfrwt beam="2">  1        2 0.68788543E-01 0.79572796E+02</pdfrwt>
<pdfrwt beam="1">  1       -2 0.54466118E-03 0.79572796E+02</pdfrwt>
<totfact> 0.29698766E+05</totfact>
</mgrwt>
</event>
<event>
 7    1  0.3337990E-009  0.9626200E+02  0.7818608E-02  0.1288359E+00
          2   -1    0    0  501    0  0.00000000000E+00  0.00000000000E+00  0.10474813490E+03  0.10474813493E+03  0.25500000000E-02 0. -1.
         -2   -1    0    0    0  501 -0.00000000000E+00 -0.00000000000E+00 -0.22115841711E+02  0.22115841858E+02  0.25500000000E-02 0.  1.
         23    2    1    2    0    0  0.00000000000E+00  0.00000000000E+00  0.82632293186E+02  0.12686397679E+03  0.96262000441E+02 0.  0.
    9000005    2    3    3    0    0  0.11491186549E+02 -0.45987631498E+02  0.44756280000E+02  0.66188594679E+02  0.11440972292E+02 0.  0.
         22    1    3    3    0    0 -0.11491186549E+02  0.45987631498E+02  0.37876013186E+02  0.60675382108E+02  0.00000000000E+00 0. -1.
         22    1    4    4    0    0  0.52561284092E+01 -0.26790223681E+02  0.33002672309E+02  0.42831289384E+02  0.00000000000E+00 0. -1.
         22    1    4    4    0    0  0.62350581396E+01 -0.19197407816E+02  0.11753607692E+02  0.23357305295E+02  0.00000000000E+00 0. -1.
<mgrwt>
<rscale>  0 0.96262000E+02</rscale>
<asrwt>0</asrwt>
<pdfrwt beam="1">  1        2 0.16115098E-01 0.96262000E+02</pdfrwt>
<pdfrwt beam="2">  1       -2 0.34024372E-02 0.96262000E+02</pdfrwt>
<totfact> 0.10711624E+05</totfact>
</mgrwt>
</event>
<event>
 7    1  0.3337990E-009  0.8781050E+02  0.7818608E-02  0.1308242E+00
         -2   -1    0    0    0  501 -0.00000000000E+00  0.00000000000E+00  0.21139584929E+02  0.21139585083E+02  0.25500000000E-02 0. -1.
          2   -1    0    0  501    0  0.00000000000E+00 -0.00000000000E+00 -0.91187734138E+02  0.91187734173E+02  0.25500000000E-02 0.  1.
         23    2    1    2    0    0  0.17763568394E-14 -0.35527136788E-14 -0.70048149209E+02  0.11232731926E+03  0.87810497344E+02 0.  0.
    9000005    2    3    3    0    0 -0.15676462959E+02  0.31848900993E+02 -0.40337725631E+01  0.37373987714E+02  0.10974500042E+02 0.  0.
         22    1    3    3    0    0  0.15676462959E+02 -0.31848900993E+02 -0.66014376646E+02  0.74953331542E+02  0.00000000000E+00 0.  1.
         22    1    4    4    0    0 -0.12540987346E+01  0.11026417856E+02 -0.46614671587E+01  0.12036774088E+02  0.00000000000E+00 0. -1.
         22    1    4    4    0    0 -0.14422364225E+02  0.20822483137E+02  0.62769459553E+00  0.25337213626E+02  0.00000000000E+00 0. -1.
<mgrwt>
<rscale>  0 0.87810497E+02</rscale>
<asrwt>0</asrwt>
<pdfrwt beam="2">  1        2 0.14028882E-01 0.87810497E+02</pdfrwt>
<pdfrwt beam="1">  1       -2 0.32522439E-02 0.87810497E+02</pdfrwt>
<totfact> 0.13234275E+05</totfact>
</mgrwt>
</event>
<event>
 7    1  0.3337990E-009  0.9086702E+02  0.7818608E-02  0.1300766E+00
          2   -1    0    0  501    0  0.00000000000E+00  0.00000000000E+00  0.23832984703E+02  0.23832984840E+02  0.25500000000E-02 0. -1.
         -2   -1    0    0    0  501 -0.00000000000E+00 -0.00000000000E+00 -0.86611211692E+02  0.86611211729E+02  0.25500000000E-02 0.  1.
         23    2    1    2    0    0  0.00000000000E+00  0.00000000000E+00 -0.62778226988E+02  0.11044419657E+03  0.90867016964E+02 0.  0.
    9000005    2    3    3    0    0 -0.25313823223E+02 -0.35850418334E+02 -0.27337657715E+02  0.54034303010E+02  0.15694464999E+02 0.  0.
         22    1    3    3    0    0  0.25313823223E+02  0.35850418334E+02 -0.35440569273E+02  0.56409893559E+02  0.00000000000E+00 0. -1.
         22    1    4    4    0    0 -0.21593542249E+02 -0.28837517666E+02 -0.28597010858E+02  0.45996440319E+02  0.00000000000E+00 0.  1.
         22    1    4    4    0    0 -0.37202809737E+01 -0.70129006678E+01  0.12593531434E+01  0.80378626910E+01  0.00000000000E+00 0.  1.
<mgrwt>
<rscale>  0 0.90867017E+02</rscale>
<asrwt>0</asrwt>
<pdfrwt beam="1">  1        2 0.36666131E-02 0.90867017E+02</pdfrwt>
<pdfrwt beam="2">  1       -2 0.13324802E-01 0.90867017E+02</pdfrwt>
<totfact> 0.83912543E+04</totfact>
</mgrwt>
</event>
<event>
 7    1  0.3337990E-009  0.9638392E+02  0.7818608E-02  0.1288089E+00
         -2   -1    0    0    0  501 -0.00000000000E+00  0.00000000000E+00  0.19146582269E+02  0.19146582438E+02  0.25500000000E-02 0.  1.
          2   -1    0    0  501    0  0.00000000000E+00 -0.00000000000E+00 -0.12129920298E+03  0.12129920301E+03  0.25500000000E-02 0. -1.
         23    2    1    2    0    0  0.88817841970E-15  0.00000000000E+00 -0.10215262071E+03  0.14044578545E+03  0.96383923614E+02 0.  0.
    9000005    2    3    3    0    0  0.55081044143E+01 -0.39336307868E+02 -0.89325028365E+02  0.98705739252E+02  0.13644703659E+02 0.  0.
         22    1    3    3    0    0 -0.55081044143E+01  0.39336307868E+02 -0.12827592348E+02  0.41740046195E+02  0.00000000000E+00 0. -1.
         22    1    4    4    0    0 -0.32663604240E+01 -0.23654534417E+02 -0.55046077847E+02  0.60002306583E+02  0.00000000000E+00 0. -1.
         22    1    4    4    0    0  0.87744648383E+01 -0.15681773451E+02 -0.34278950517E+02  0.38703432669E+02  0.00000000000E+00 0. -1.
<mgrwt>
<rscale>  0 0.96383924E+02</rscale>
<asrwt>0</asrwt>
<pdfrwt beam="2">  1        2 0.18661415E-01 0.96383924E+02</pdfrwt>
<pdfrwt beam="1">  1       -2 0.29456281E-02 0.96383924E+02</pdfrwt>
<totfact> 0.11188330E+05</totfact>
</mgrwt>
</event>
<event>
 7    1  0.3337990E-009  0.1013825E+03  0.7818608E-02  0.1277415E+00
          2   -1    0    0  501    0  0.00000000000E+00  0.00000000000E+00  0.48797807193E+02  0.48797807259E+02  0.25500000000E-02 0. -1.
         -2   -1    0    0    0  501 -0.00000000000E+00 -0.00000000000E+00 -0.52658168498E+02  0.52658168559E+02  0.25500000000E-02 0.  1.
         23    2    1    2    0    0  0.00000000000E+00  0.71054273576E-14 -0.38603613051E+01  0.10145597582E+03  0.10138250658E+03 0.  0.
    9000005    2    3    3    0    0 -0.66284734527E+01 -0.38637930593E+02 -0.32416235796E+02  0.52955828306E+02  0.14720090608E+02 0.  0.
         22    1    3    3    0    0  0.66284734527E+01  0.38637930593E+02  0.28555874491E+02  0.48500147513E+02  0.00000000000E+00 0. -1.
         22    1    4    4    0    0 -0.26119916844E+01 -0.37613971114E+02 -0.29741306783E+02  0.48022688936E+02  0.00000000000E+00 0. -1.
         22    1    4    4    0    0 -0.40164817683E+01 -0.10239594789E+01 -0.26749290134E+01  0.49331393692E+01  0.00000000000E+00 0. -1.
<mgrwt>
<rscale>  0 0.10138251E+03</rscale>
<asrwt>0</asrwt>
<pdfrwt beam="1">  1        2 0.75073549E-02 0.10138251E+03</pdfrwt>
<pdfrwt beam="2">  1       -2 0.81012567E-02 0.10138251E+03</pdfrwt>
<totfact> 0.73916614E+04</totfact>
</mgrwt>
</event>
<event>
 7    1  0.3337990E-009  0.9005853E+02  0.7818608E-02  0.1302710E+00
         -2   -1    0    0    0  501 -0.00000000000E+00  0.00000000000E+00  0.18480780976E+01  0.18480798569E+01  0.25500000000E-02 0.  1.
          2   -1    0    0  501    0  0.00000000000E+00 -0.00000000000E+00 -0.10971579277E+04  0.10971579277E+04  0.25500000000E-02 0. -1.
         23    2    1    2    0    0  0.00000000000E+00 -0.17763568394E-14 -0.10953098496E+04  0.10990060075E+04  0.90058525507E+02 0.  0.
    9000005    2    3    3    0    0 -0.15742189699E+02 -0.14902685399E+02 -0.10284430506E+04  0.10287132243E+04  0.92673064250E+01 0.  0.
         22    1    3    3    0    0  0.15742189699E+02  0.14902685399E+02 -0.66866799007E+02  0.70292783257E+02  0.00000000000E+00 0.  1.
         22    1    4    4    0    0 -0.13507765973E+02 -0.79132969449E+01 -0.58484742086E+03  0.58505690808E+03  0.00000000000E+00 0.  1.
         22    1    4    4    0    0 -0.22344237258E+01 -0.69893884540E+01 -0.44359562973E+03  0.44365631621E+03  0.00000000000E+00 0.  1.
<mgrwt>
<rscale>  0 0.90058526E+02</rscale>
<asrwt>0</asrwt>
<pdfrwt beam="2">  1        2 0.16879301E+00 0.90058526E+02</pdfrwt>
<pdfrwt beam="1">  1       -2 0.28432072E-03 0.90058526E+02</pdfrwt>
<totfact> 0.25846709E+05</totfact>
</mgrwt>
</event>
<event>
 7    1  0.3337990E-009  0.9172941E+02  0.7818608E-02  0.1298717E+00
         -2   -1    0    0    0  501 -0.00000000000E+00  0.00000000000E+00  0.99047949026E+01  0.99047952309E+01  0.25500000000E-02 0. -1.
          2   -1    0    0  501    0  0.00000000000E+00 -0.00000000000E+00 -0.21237907215E+03  0.21237907216E+03  0.25500000000E-02 0.  1.
         23    2    1    2    0    0  0.00000000000E+00  0.00000000000E+00 -0.20247427725E+03  0.22228386740E+03  0.91729410538E+02 0.  0.
    9000005    2    3    3    0    0 -0.14586852153E+02 -0.37173013982E+02 -0.15235839313E+03  0.15820414310E+03  0.14861416984E+02 0.  0.
         22    1    3    3    0    0  0.14586852153E+02  0.37173013982E+02 -0.50115884120E+02  0.64079724292E+02  0.00000000000E+00 0. -1.
         22    1    4    4    0    0 -0.13162405905E+02 -0.31360281330E+02 -0.14375805535E+03  0.14772641826E+03  0.00000000000E+00 0. -1.
         22    1    4    4    0    0 -0.14244462479E+01 -0.58127326515E+01 -0.86003377753E+01  0.10477724841E+02  0.00000000000E+00 0. -1.
<mgrwt>
<rscale>  0 0.91729411E+02</rscale>
<asrwt>0</asrwt>
<pdfrwt beam="2">  1        2 0.32673700E-01 0.91729411E+02</pdfrwt>
<pdfrwt beam="1">  1       -2 0.15238148E-02 0.91729411E+02</pdfrwt>
<totfact> 0.15554028E+05</totfact>
</mgrwt>
</event>
<event>
 7    1  0.3337990E-009  0.9033666E+02  0.7818608E-02  0.1302038E+00
         -2   -1    0    0    0  501 -0.00000000000E+00  0.00000000000E+00  0.92344078092E+00  0.92344430171E+00  0.25500000000E-02 0. -1.
          2   -1    0    0  501    0  0.00000000000E+00 -0.00000000000E+00 -0.22093176757E+04  0.22093176757E+04  0.25500000000E-02 0.  1.
         23    2    1    2    0    0  0.00000000000E+00  0.00000000000E+00 -0.22083942349E+04  0.22102411200E+04  0.90336657726E+02 0.  0.
    9000005    2    3    3    0    0  0.20107224548E+02 -0.10933269185E+01 -0.20933407253E+04  0.20934386974E+04  0.21660711909E+01 0.  0.
         22    1    3    3    0    0 -0.20107224548E+02  0.10933269185E+01 -0.11505350962E+03  0.11680242258E+03  0.00000000000E+00 0. -1.
         22    1    4    4    0    0  0.10857438268E+02 -0.15549471496E+01 -0.11850895982E+04  0.11851403535E+04  0.00000000000E+00 0. -1.
         22    1    4    4    0    0  0.92497862806E+01  0.46162023108E+00 -0.90825112712E+03  0.90829834391E+03  0.00000000000E+00 0. -1.
<mgrwt>
<rscale>  0 0.90336658E+02</rscale>
<asrwt>0</asrwt>
<pdfrwt beam="2">  1        2 0.33989080E+00 0.90336658E+02</pdfrwt>
<pdfrwt beam="1">  1       -2 0.14206985E-03 0.90336658E+02</pdfrwt>
<totfact> 0.18137777E+05</totfact>
</mgrwt>
</event>
<event>
 7    1  0.3337990E-009  0.9095933E+02  0.7818608E-02  0.1300545E+00
         -2   -1    0    0    0  501 -0.00000000000E+00  0.00000000000E+00  0.78913314619E+02  0.78913314660E+02  0.25500000000E-02 0.  1.
          2   -1    0    0  501    0  0.00000000000E+00 -0.00000000000E+00 -0.26211036618E+02  0.26211036742E+02  0.25500000000E-02 0. -1.
         23    2    1    2    0    0  0.00000000000E+00  0.71054273576E-14  0.52702278001E+02  0.10512435140E+03  0.90959326906E+02 0.  0.
    9000005    2    3    3    0    0  0.23526260299E+02 -0.35485036189E+02  0.12660381523E+02  0.46677570562E+02  0.14347042072E+02 0.  0.
         22    1    3    3    0    0 -0.23526260299E+02  0.35485036189E+02  0.40041896478E+02  0.58446780840E+02  0.00000000000E+00 0.  1.
         22    1    4    4    0    0 -0.16526376662E+01 -0.51719688878E+01  0.25290190994E+01  0.59896920653E+01  0.00000000000E+00 0.  1.
         22    1    4    4    0    0  0.25178897965E+02 -0.30313067302E+02  0.10131362424E+02  0.40687878496E+02  0.00000000000E+00 0.  1.
<mgrwt>
<rscale>  0 0.90959327E+02</rscale>
<asrwt>0</asrwt>
<pdfrwt beam="2">  1        2 0.40324671E-02 0.90959327E+02</pdfrwt>
<pdfrwt beam="1">  1       -2 0.12140510E-01 0.90959327E+02</pdfrwt>
<totfact> 0.85902492E+04</totfact>
</mgrwt>
</event>
<event>
 6    1  0.3337990E-009  0.1764664E+03  0.7818608E-02  0.1171267E+00
         -2   -1    0    0    0  501 -0.00000000000E+00  0.00000000000E+00  0.35612594943E+03  0.35612594944E+03  0.25500000000E-02 0.  1.
          2   -1    0    0  501    0  0.00000000000E+00 -0.00000000000E+00 -0.21860513064E+02  0.21860513212E+02  0.25500000000E-02 0. -1.
    9000005    2    1    2    0    0 -0.18366587522E+02 -0.59096747691E+02  0.30123701698E+03  0.30783923454E+03  0.13838236749E+02 0.  0.
         22    1    1    2    0    0  0.18366587522E+02  0.59096747691E+02  0.33028419384E+02  0.70147228113E+02  0.00000000000E+00 0. -1.
         22    1    3    3    0    0 -0.17674794390E+02 -0.59092018997E+02  0.30070797728E+03  0.30696832519E+03  0.00000000000E+00 0. -1.
         22    1    3    3    0    0 -0.69179313198E+00 -0.47286942406E-02  0.52903969959E+00  0.87090935335E+00  0.00000000000E+00 0. -1.
<mgrwt>
<rscale>  0 0.17646638E+03</rscale>
<asrwt>0</asrwt>
<pdfrwt beam="2">  1        2 0.33631559E-02 0.17646638E+03</pdfrwt>
<pdfrwt beam="1">  1       -2 0.54788607E-01 0.17646638E+03</pdfrwt>
<totfact> 0.82295770E+03</totfact>
</mgrwt>
</event>
<event>
 7    1  0.3337990E-009  0.9289594E+02  0.7818608E-02  0.1295987E+00
          2   -1    0    0  501    0  0.00000000000E+00  0.00000000000E+00  0.11344221066E+04  0.11344221067E+04  0.25500000000E-02 0. -1.
         -2   -1    0    0    0  501 -0.00000000000E+00 -0.00000000000E+00 -0.19017725040E+01  0.19017742136E+01  0.25500000000E-02 0.  1.
         23    2    1    2    0    0  0.00000000000E+00  0.00000000000E+00  0.11325203341E+04  0.11363238809E+04  0.92895936259E+02 0.  0.
    9000005    2    3    3    0    0 -0.26499357124E+02  0.17616784524E+02  0.97565067928E+03  0.97625934500E+03  0.13247403213E+02 0.  0.
         22    1    3    3    0    0  0.26499357124E+02 -0.17616784524E+02  0.15686965487E+03  0.16006453587E+03  0.00000000000E+00 0.  1.
         22    1    4    4    0    0 -0.82441707440E+01  0.82707621404E+01  0.20229483633E+03  0.20263161812E+03  0.00000000000E+00 0.  1.
         22    1    4    4    0    0 -0.18255186380E+02  0.93460223833E+01  0.77335584295E+03  0.77362772687E+03  0.00000000000E+00 0.  1.
<mgrwt>
<rscale>  0 0.92895936E+02</rscale>
<asrwt>0</asrwt>
<pdfrwt beam="1">  1        2 0.17452692E+00 0.92895936E+02</pdfrwt>
<pdfrwt beam="2">  1       -2 0.29257978E-03 0.92895936E+02</pdfrwt>
<totfact> 0.23785173E+05</totfact>
</mgrwt>
</event>
<event>
 7    1  0.3337990E-009  0.9119443E+02  0.7818608E-02  0.1299985E+00
         -2   -1    0    0    0  501 -0.00000000000E+00  0.00000000000E+00  0.14325878253E+02  0.14325878480E+02  0.25500000000E-02 0.  1.
          2   -1    0    0  501    0  0.00000000000E+00 -0.00000000000E+00 -0.14512938272E+03  0.14512938274E+03  0.25500000000E-02 0. -1.
         23    2    1    2    0    0  0.00000000000E+00  0.00000000000E+00 -0.13080350447E+03  0.15945526122E+03  0.91194427191E+02 0.  0.
    9000005    2    3    3    0    0 -0.11779378849E+02 -0.41731665539E+02 -0.83296329562E+02  0.95134056770E+02  0.15229069713E+02 0.  0.
         22    1    3    3    0    0  0.11779378849E+02  0.41731665539E+02 -0.47507174907E+02  0.64321204454E+02  0.00000000000E+00 0.  1.
         22    1    4    4    0    0  0.14012779239E+01 -0.23033562428E+02 -0.41071560183E+02  0.47110313455E+02  0.00000000000E+00 0.  1.
         22    1    4    4    0    0 -0.13180656773E+02 -0.18698103111E+02 -0.42224769379E+02  0.48023743316E+02  0.00000000000E+00 0.  1.
<mgrwt>
<rscale>  0 0.91194427E+02</rscale>
<asrwt>0</asrwt>
<pdfrwt beam="2">  1        2 0.22327596E-01 0.91194427E+02</pdfrwt>
<pdfrwt beam="1">  1       -2 0.22039814E-02 0.91194427E+02</pdfrwt>
<totfact> 0.13818224E+05</totfact>
</mgrwt>
</event>
<event>
 7    1  0.3337990E-009  0.9346969E+02  0.7818608E-02  0.1294660E+00
          2   -1    0    0  501    0  0.00000000000E+00  0.00000000000E+00  0.23182173558E+03  0.23182173560E+03  0.25500000000E-02 0. -1.
         -2   -1    0    0    0  501 -0.00000000000E+00 -0.00000000000E+00 -0.94216598112E+01  0.94216601563E+01  0.25500000000E-02 0.  1.
         23    2    1    2    0    0  0.00000000000E+00  0.00000000000E+00  0.22240007577E+03  0.24124339575E+03  0.93469686483E+02 0.  0.
    9000005    2    3    3    0    0 -0.32951439810E+02  0.28004138375E+02  0.77275183645E+02  0.89812674080E+02  0.14994441182E+02 0.  0.
         22    1    3    3    0    0  0.32951439810E+02 -0.28004138375E+02  0.14512489213E+03  0.15143072167E+03  0.00000000000E+00 0. -1.
         22    1    4    4    0    0 -0.70464218773E+01  0.49062686018E+01  0.58151392612E+01  0.10370119454E+02  0.00000000000E+00 0.  1.
         22    1    4    4    0    0 -0.25905017932E+02  0.23097869773E+02  0.71460044383E+02  0.79442554626E+02  0.00000000000E+00 0.  1.
<mgrwt>
<rscale>  0 0.93469686E+02</rscale>
<asrwt>0</asrwt>
<pdfrwt beam="1">  1        2 0.35664882E-01 0.93469686E+02</pdfrwt>
<pdfrwt beam="2">  1       -2 0.14494862E-02 0.93469686E+02</pdfrwt>
<totfact> 0.15270298E+05</totfact>
</mgrwt>
</event>
<event>
 7    1  0.3337990E-009  0.7456886E+02  0.7818608E-02  0.1345211E+00
          2   -1    0    0  501    0  0.00000000000E+00  0.00000000000E+00  0.18186156079E+03  0.18186156081E+03  0.25500000000E-02 0. -1.
         -2   -1    0    0    0  501 -0.00000000000E+00 -0.00000000000E+00 -0.76438849465E+01  0.76438853718E+01  0.25500000000E-02 0.  1.
         23    2    1    2    0    0  0.00000000000E+00  0.00000000000E+00  0.17421767584E+03  0.18950544618E+03  0.74568864517E+02 0.  0.
    9000005    2    3    3    0    0  0.32235577419E+02  0.14585013865E+02  0.11062215563E+03  0.11673013943E+03  0.11696540289E+02 0.  0.
         22    1    3    3    0    0 -0.32235577419E+02 -0.14585013865E+02  0.63595520217E+02  0.72775306750E+02  0.00000000000E+00 0. -1.
         22    1    4    4    0    0  0.12431178636E+02  0.45168672475E+01  0.25126227724E+02  0.28394781416E+02  0.00000000000E+00 0.  1.
         22    1    4    4    0    0  0.19804398783E+02  0.10068146618E+02  0.85495927902E+02  0.88335358013E+02  0.00000000000E+00 0.  1.
<mgrwt>
<rscale>  0 0.74568865E+02</rscale>
<asrwt>0</asrwt>
<pdfrwt beam="1">  1        2 0.27978702E-01 0.74568865E+02</pdfrwt>
<pdfrwt beam="2">  1       -2 0.11759823E-02 0.74568865E+02</pdfrwt>
<totfact> 0.25549219E+05</totfact>
</mgrwt>
</event>
<event>
 7    1  0.3337990E-009  0.9136256E+02  0.7818608E-02  0.1299585E+00
          2   -1    0    0  501    0  0.00000000000E+00  0.00000000000E+00  0.15293287662E+02  0.15293287875E+02  0.25500000000E-02 0. -1.
         -2   -1    0    0    0  501 -0.00000000000E+00 -0.00000000000E+00 -0.13645066922E+03  0.13645066924E+03  0.25500000000E-02 0.  1.
         23    2    1    2    0    0  0.00000000000E+00 -0.44408920985E-15 -0.12115738156E+03  0.15174395712E+03  0.91362560253E+02 0.  0.
    9000005    2    3    3    0    0 -0.30366369182E+02 -0.28036888617E+01 -0.11611384027E+03  0.12083417942E+03  0.13729456132E+02 0.  0.
         22    1    3    3    0    0  0.30366369182E+02  0.28036888617E+01 -0.50435412881E+01  0.30909777697E+02  0.00000000000E+00 0. -1.
         22    1    4    4    0    0 -0.27011313183E+02  0.23288886110E+01 -0.99399611031E+02  0.10303066260E+03  0.00000000000E+00 0.  1.
         22    1    4    4    0    0 -0.33550559996E+01 -0.51325774727E+01 -0.16714229236E+02  0.17803516822E+02  0.00000000000E+00 0.  1.
<mgrwt>
<rscale>  0 0.91362560E+02</rscale>
<asrwt>0</asrwt>
<pdfrwt beam="1">  1        2 0.23528136E-02 0.91362560E+02</pdfrwt>
<pdfrwt beam="2">  1       -2 0.20992410E-01 0.91362560E+02</pdfrwt>
<totfact> 0.71872656E+04</totfact>
</mgrwt>
</event>
<event>
 7    1  0.3337990E-009  0.9202009E+02  0.7818608E-02  0.1298032E+00
          2   -1    0    0  501    0  0.00000000000E+00  0.00000000000E+00  0.65471247089E+03  0.65471247090E+03  0.25500000000E-02 0. -1.
         -2   -1    0    0    0  501 -0.00000000000E+00 -0.00000000000E+00 -0.32333644399E+01  0.32333654454E+01  0.25500000000E-02 0.  1.
         23    2    1    2    0    0  0.00000000000E+00  0.00000000000E+00  0.65147910645E+03  0.65794583634E+03  0.92020092462E+02 0.  0.
    9000005    2    3    3    0    0 -0.93907635091E+01 -0.12914293178E+02  0.63423598354E+03  0.63444497050E+03  0.31894151278E+01 0.  0.
         22    1    3    3    0    0  0.93907635091E+01  0.12914293178E+02  0.17243122913E+02  0.23500865842E+02  0.00000000000E+00 0.  1.
         22    1    4    4    0    0 -0.62609208973E+01 -0.98868422211E+01  0.41122820083E+03  0.41139467904E+03  0.00000000000E+00 0. -1.
         22    1    4    4    0    0 -0.31298426118E+01 -0.30274509566E+01  0.22300778271E+03  0.22305029146E+03  0.00000000000E+00 0. -1.
<mgrwt>
<rscale>  0 0.92020092E+02</rscale>
<asrwt>0</asrwt>
<pdfrwt beam="1">  1        2 0.10072504E+00 0.92020092E+02</pdfrwt>
<pdfrwt beam="2">  1       -2 0.49744055E-03 0.92020092E+02</pdfrwt>
<totfact> 0.22768498E+05</totfact>
</mgrwt>
</event>
<event>
 7    1  0.3337990E-009  0.9666453E+02  0.7818608E-02  0.1287471E+00
          2   -1    0    0  501    0  0.00000000000E+00  0.00000000000E+00  0.52974426360E+03  0.52974426360E+03  0.25500000000E-02 0.  1.
         -2   -1    0    0    0  501 -0.00000000000E+00 -0.00000000000E+00 -0.44096889495E+01  0.44096896868E+01  0.25500000000E-02 0. -1.
         23    2    1    2    0    0 -0.35527136788E-14  0.44408920985E-15  0.52533457465E+03  0.53415395329E+03  0.96664525527E+02 0.  0.
    9000005    2    3    3    0    0  0.30230525190E+02 -0.26853213887E+01  0.46909837081E+03  0.47025085300E+03  0.12707779090E+02 0.  0.
         22    1    3    3    0    0 -0.30230525190E+02  0.26853213887E+01  0.56236203839E+02  0.63903100288E+02  0.00000000000E+00 0. -1.
         22    1    4    4    0    0  0.29010282025E+02 -0.88080777511E+00  0.45916780532E+03  0.46008417244E+03  0.00000000000E+00 0.  1.
         22    1    4    4    0    0  0.12202431651E+01 -0.18045136136E+01  0.99305654867E+01  0.10166680562E+02  0.00000000000E+00 0.  1.
<mgrwt>
<rscale>  0 0.96664526E+02</rscale>
<asrwt>0</asrwt>
<pdfrwt beam="1">  1        2 0.81499158E-01 0.96664526E+02</pdfrwt>
<pdfrwt beam="2">  1       -2 0.67841340E-03 0.96664526E+02</pdfrwt>
<totfact> 0.18797369E+05</totfact>
</mgrwt>
</event>
<event>
 7    1  0.3337990E-009  0.9147177E+02  0.7818608E-02  0.1299326E+00
          2   -1    0    0  501    0  0.00000000000E+00  0.00000000000E+00  0.13359739113E+03  0.13359739115E+03  0.25500000000E-02 0.  1.
         -2   -1    0    0    0  501 -0.00000000000E+00 -0.00000000000E+00 -0.15657276367E+02  0.15657276575E+02  0.25500000000E-02 0. -1.
         23    2    1    2    0    0  0.00000000000E+00  0.00000000000E+00  0.11794011476E+03  0.14925466773E+03  0.91471772523E+02 0.  0.
    9000005    2    3    3    0    0 -0.21028567509E+02 -0.42663393772E+01 -0.56227754054E+01  0.23842586454E+02  0.87436275301E+01 0.  0.
         22    1    3    3    0    0  0.21028567509E+02  0.42663393772E+01  0.12356289017E+03  0.12541208127E+03  0.00000000000E+00 0.  1.
         22    1    4    4    0    0 -0.59763262419E+01 -0.30972219000E+01 -0.55825631514E+01  0.87449568430E+01  0.00000000000E+00 0.  1.
         22    1    4    4    0    0 -0.15052241267E+02 -0.11691174772E+01 -0.40212254007E-01  0.15097629611E+02  0.00000000000E+00 0.  1.
<mgrwt>
<rscale>  0 0.91471773E+02</rscale>
<asrwt>0</asrwt>
<pdfrwt beam="1">  1        2 0.20553445E-01 0.91471773E+02</pdfrwt>
<pdfrwt beam="2">  1       -2 0.24088117E-02 0.91471773E+02</pdfrwt>
<totfact> 0.13330477E+05</totfact>
</mgrwt>
</event>
<event>
 7    1  0.3337990E-009  0.9034794E+02  0.7818608E-02  0.1302011E+00
         -2   -1    0    0    0  501 -0.00000000000E+00  0.00000000000E+00  0.50004311414E+02  0.50004311479E+02  0.25500000000E-02 0.  1.
          2   -1    0    0  501    0  0.00000000000E+00 -0.00000000000E+00 -0.40810234579E+02  0.40810234658E+02  0.25500000000E-02 0. -1.
         23    2    1    2    0    0  0.00000000000E+00  0.00000000000E+00  0.91940768351E+01  0.90814546137E+02  0.90347942651E+02 0.  0.
    9000005    2    3    3    0    0 -0.36607433122E+02 -0.27599603732E+01  0.29696743538E+02  0.48765992263E+02  0.12186216950E+02 0.  0.
         22    1    3    3    0    0  0.36607433122E+02  0.27599603732E+01 -0.20502666703E+02  0.42048553875E+02  0.00000000000E+00 0. -1.
         22    1    4    4    0    0 -0.23146335072E+01 -0.17605010687E+01  0.71346105456E+01  0.77045155541E+01  0.00000000000E+00 0.  1.
         22    1    4    4    0    0 -0.34292799615E+02 -0.99945930452E+00  0.22562132992E+02  0.41061476708E+02  0.00000000000E+00 0.  1.
<mgrwt>
<rscale>  0 0.90347943E+02</rscale>
<asrwt>0</asrwt>
<pdfrwt beam="2">  1        2 0.62784976E-02 0.90347943E+02</pdfrwt>
<pdfrwt beam="1">  1       -2 0.76929710E-02 0.90347943E+02</pdfrwt>
<totfact> 0.98447107E+04</totfact>
</mgrwt>
</event>
<event>
 7    1  0.3337990E-009  0.9008479E+02  0.7818608E-02  0.1302646E+00
         -2   -1    0    0    0  501 -0.00000000000E+00  0.00000000000E+00  0.15667116639E+02  0.15667116847E+02  0.25500000000E-02 0.  1.
          2   -1    0    0  501    0  0.00000000000E+00 -0.00000000000E+00 -0.12949526935E+03  0.12949526937E+03  0.25500000000E-02 0. -1.
         23    2    1    2    0    0  0.00000000000E+00  0.00000000000E+00 -0.11382815271E+03  0.14516238622E+03  0.90084793522E+02 0.  0.
    9000005    2    3    3    0    0  0.40981276698E+02  0.12727373942E+02 -0.77849805215E+02  0.89163345374E+02  0.69324525902E+01 0.  0.
         22    1    3    3    0    0 -0.40981276698E+02 -0.12727373942E+02 -0.35978347494E+02  0.55999040846E+02  0.00000000000E+00 0.  1.
         22    1    4    4    0    0  0.99967430903E+01  0.55304864729E+01 -0.16684573832E+02  0.20221180900E+02  0.00000000000E+00 0.  1.
         22    1    4    4    0    0  0.30984533608E+02  0.71968874689E+01 -0.61165231383E+02  0.68942164474E+02  0.00000000000E+00 0.  1.
<mgrwt>
<rscale>  0 0.90084794E+02</rscale>
<asrwt>0</asrwt>
<pdfrwt beam="2">  1        2 0.19922348E-01 0.90084794E+02</pdfrwt>
<pdfrwt beam="1">  1       -2 0.24103257E-02 0.90084794E+02</pdfrwt>
<totfact> 0.13755039E+05</totfact>
</mgrwt>
</event>
<event>
 7    1  0.3337990E-009  0.9066965E+02  0.7818608E-02  0.1301238E+00
         -2   -1    0    0    0  501 -0.00000000000E+00  0.00000000000E+00  0.58474083128E+02  0.58474083184E+02  0.25500000000E-02 0. -1.
          2   -1    0    0  501    0  0.00000000000E+00 -0.00000000000E+00 -0.35147984428E+02  0.35147984520E+02  0.25500000000E-02 0.  1.
         23    2    1    2    0    0  0.00000000000E+00  0.00000000000E+00  0.23326098701E+02  0.93622067704E+02  0.90669645862E+02 0.  0.
    9000005    2    3    3    0    0  0.15417415942E+02  0.42487763692E+01  0.55080458946E+02  0.58068049512E+02  0.90715269644E+01 0.  0.
         22    1    3    3    0    0 -0.15417415942E+02 -0.42487763692E+01 -0.31754360246E+02  0.35554018192E+02  0.00000000000E+00 0.  1.
         22    1    4    4    0    0  0.27345213367E+01  0.84471508416E+00  0.22801619754E+01  0.36592744019E+01  0.00000000000E+00 0.  1.
         22    1    4    4    0    0  0.12682894606E+02  0.34040612851E+01  0.52800296971E+02  0.54408775111E+02  0.00000000000E+00 0.  1.
<mgrwt>
<rscale>  0 0.90669646E+02</rscale>
<asrwt>0</asrwt>
<pdfrwt beam="2">  1        2 0.54073823E-02 0.90669646E+02</pdfrwt>
<pdfrwt beam="1">  1       -2 0.89960127E-02 0.90669646E+02</pdfrwt>
<totfact> 0.93756125E+04</totfact>
</mgrwt>
</event>
<event>
 7    1  0.3337990E-009  0.9075484E+02  0.7818608E-02  0.1301034E+00
         -2   -1    0    0    0  501 -0.00000000000E+00  0.00000000000E+00  0.41728156884E+01  0.41728164676E+01  0.25500000000E-02 0.  1.
          2   -1    0    0  501    0  0.00000000000E+00 -0.00000000000E+00 -0.49345816456E+03  0.49345816456E+03  0.25500000000E-02 0. -1.
         23    2    1    2    0    0  0.17763568394E-14  0.00000000000E+00 -0.48928534887E+03  0.49763098103E+03  0.90754838244E+02 0.  0.
    9000005    2    3    3    0    0 -0.14435461642E+02 -0.42116280622E+02 -0.26697028344E+03  0.27090173289E+03  0.11508822546E+02 0.  0.
         22    1    3    3    0    0  0.14435461642E+02  0.42116280622E+02 -0.22231506543E+03  0.22672924815E+03  0.00000000000E+00 0. -1.
         22    1    4    4    0    0 -0.98850286567E+01 -0.39488550844E+02 -0.23909049207E+03  0.24253107602E+03  0.00000000000E+00 0.  1.
         22    1    4    4    0    0 -0.45504329848E+01 -0.26277297787E+01 -0.27879791370E+02  0.28370656865E+02  0.00000000000E+00 0.  1.
<mgrwt>
<rscale>  0 0.90754838E+02</rscale>
<asrwt>0</asrwt>
<pdfrwt beam="2">  1        2 0.75916595E-01 0.90754838E+02</pdfrwt>
<pdfrwt beam="1">  1       -2 0.64197209E-03 0.90754838E+02</pdfrwt>
<totfact> 0.21722319E+05</totfact>
</mgrwt>
</event>
<event>
 7    1  0.3530628E-009  0.9274030E+02  0.7818608E-02  0.1296348E+00
          2   -1    0    0  501    0  0.00000000000E+00  0.00000000000E+00  0.69974027583E+03  0.69974027583E+03  0.25500000000E-02 0. -1.
         -2   -1    0    0    0  501 -0.00000000000E+00 -0.00000000000E+00 -0.30728410673E+01  0.30728421253E+01  0.25500000000E-02 0.  1.
         23    2    1    2    0    0  0.00000000000E+00  0.00000000000E+00  0.69666743476E+03  0.70281311796E+03  0.92740304710E+02 0.  0.
    9000005    2    3    3    0    0 -0.32245749785E+01  0.16858983785E+02  0.67393726255E+03  0.67433007130E+03  0.15329318039E+02 0.  0.
         22    1    3    3    0    0  0.32245749785E+01 -0.16858983785E+02  0.22730172212E+02  0.28483046657E+02  0.00000000000E+00 0.  1.
         22    1    4    4    0    0  0.23224598181E+01  0.12192824264E-01  0.17524397470E+02  0.17677626395E+02  0.00000000000E+00 0. -1.
         22    1    4    4    0    0 -0.55470347966E+01  0.16846790961E+02  0.65641286508E+03  0.65665244491E+03  0.00000000000E+00 0. -1.
<mgrwt>
<rscale>  0 0.92740305E+02</rscale>
<asrwt>0</asrwt>
<pdfrwt beam="1">  1        2 0.10765246E+00 0.92740305E+02</pdfrwt>
<pdfrwt beam="2">  1       -2 0.47274439E-03 0.92740305E+02</pdfrwt>
<totfact> 0.22671201E+05</totfact>
</mgrwt>
</event>
<event>
 7    1  0.3337990E-009  0.9222920E+02  0.7818608E-02  0.1297541E+00
         -2   -1    0    0    0  501 -0.00000000000E+00  0.00000000000E+00  0.32710301606E+01  0.32710311545E+01  0.25500000000E-02 0.  1.
          2   -1    0    0  501    0  0.00000000000E+00 -0.00000000000E+00 -0.65011817110E+03  0.65011817111E+03  0.25500000000E-02 0. -1.
         23    2    1    2    0    0  0.71054273576E-14  0.17763568394E-14 -0.64684714094E+03  0.65338920226E+03  0.92229203010E+02 0.  0.
    9000005    2    3    3    0    0 -0.40799852610E+02 -0.11304555589E+02 -0.43557170129E+03  0.43791360654E+03  0.15912224272E+02 0.  0.
         22    1    3    3    0    0  0.40799852610E+02  0.11304555589E+02 -0.21127543965E+03  0.21547559572E+03  0.00000000000E+00 0.  1.
         22    1    4    4    0    0 -0.37651560022E+02 -0.62454404704E+01 -0.33533256009E+03  0.33749751311E+03  0.00000000000E+00 0. -1.
         22    1    4    4    0    0 -0.31482925888E+01 -0.50591151190E+01 -0.10023914120E+03  0.10041609343E+03  0.00000000000E+00 0. -1.
<mgrwt>
<rscale>  0 0.92229203E+02</rscale>
<asrwt>0</asrwt>
<pdfrwt beam="2">  1        2 0.10001808E+00 0.92229203E+02</pdfrwt>
<pdfrwt beam="1">  1       -2 0.50323600E-03 0.92229203E+02</pdfrwt>
<totfact> 0.22591234E+05</totfact>
</mgrwt>
</event>
<event>
 7    1  0.3337990E-009  0.8947507E+02  0.7818608E-02  0.1304128E+00
          2   -1    0    0  501    0  0.00000000000E+00  0.00000000000E+00  0.94267182382E+03  0.94267182382E+03  0.25500000000E-02 0. -1.
         -2   -1    0    0    0  501 -0.00000000000E+00 -0.00000000000E+00 -0.21231632014E+01  0.21231647328E+01  0.25500000000E-02 0.  1.
         23    2    1    2    0    0  0.00000000000E+00  0.00000000000E+00  0.94054866062E+03  0.94479498855E+03  0.89475065854E+02 0.  0.
    9000005    2    3    3    0    0  0.15681019865E+02 -0.33844556284E+02  0.72630116557E+03  0.72732467447E+03  0.98209271869E+01 0.  0.
         22    1    3    3    0    0 -0.15681019865E+02  0.33844556284E+02  0.21424749504E+03  0.21747031408E+03  0.00000000000E+00 0.  1.
         22    1    4    4    0    0  0.42267902375E+01 -0.38075364013E+01  0.67350039387E+02  0.67589872722E+02  0.00000000000E+00 0.  1.
         22    1    4    4    0    0  0.11454229628E+02 -0.30037019882E+02  0.65895112619E+03  0.65973480175E+03  0.00000000000E+00 0.  1.
<mgrwt>
<rscale>  0 0.89475066E+02</rscale>
<asrwt>0</asrwt>
<pdfrwt beam="1">  1        2 0.14502629E+00 0.89475066E+02</pdfrwt>
<pdfrwt beam="2">  1       -2 0.32664093E-03 0.89475066E+02</pdfrwt>
<totfact> 0.26172931E+05</totfact>
</mgrwt>
</event>
<event>
 7    1  0.3337990E-009  0.9783605E+02  0.7818608E-02  0.1284913E+00
         -2   -1    0    0    0  501 -0.00000000000E+00  0.00000000000E+00  0.10232349916E+02  0.10232350234E+02  0.25500000000E-02 0.  1.
          2   -1    0    0  501    0  0.00000000000E+00 -0.00000000000E+00 -0.23386351983E+03  0.23386351985E+03  0.25500000000E-02 0. -1.
         23    2    1    2    0    0  0.00000000000E+00  0.71054273576E-14 -0.22363116992E+03  0.24409587008E+03  0.97836054867E+02 0.  0.
    9000005    2    3    3    0    0 -0.17119596770E+02  0.37354362563E+02 -0.17624705945E+03  0.18137679068E+03  0.12086572575E+02 0.  0.
         22    1    3    3    0    0  0.17119596770E+02 -0.37354362563E+02 -0.47384110467E+02  0.62719079400E+02  0.00000000000E+00 0.  1.
         22    1    4    4    0    0 -0.30242653668E+01  0.14928539282E+02 -0.45759109759E+02  0.48227622708E+02  0.00000000000E+00 0.  1.
         22    1    4    4    0    0 -0.14095331403E+02  0.22425823281E+02 -0.13048794969E+03  0.13314916797E+03  0.00000000000E+00 0.  1.
<mgrwt>
<rscale>  0 0.97836055E+02</rscale>
<asrwt>0</asrwt>
<pdfrwt beam="2">  1        2 0.35978999E-01 0.97836055E+02</pdfrwt>
<pdfrwt beam="1">  1       -2 0.15742079E-02 0.97836055E+02</pdfrwt>
<totfact> 0.13544007E+05</totfact>
</mgrwt>
</event>
<event>
 7    1  0.3337990E-009  0.9011176E+02  0.7818608E-02  0.1302581E+00
          2   -1    0    0  501    0  0.00000000000E+00  0.00000000000E+00  0.10100955364E+04  0.10100955364E+04  0.25500000000E-02 0.  1.
         -2   -1    0    0    0  501 -0.00000000000E+00 -0.00000000000E+00 -0.20097422226E+01  0.20097438404E+01  0.25500000000E-02 0. -1.
         23    2    1    2    0    0  0.00000000000E+00 -0.35527136788E-14  0.10080857941E+04  0.10121052802E+04  0.90111763241E+02 0.  0.
    9000005    2    3    3    0    0 -0.84804969029E+01  0.29313534730E+02  0.87253739404E+03  0.87316439020E+03  0.12780695151E+02 0.  0.
         22    1    3    3    0    0  0.84804969029E+01 -0.29313534730E+02  0.13554840009E+03  0.13894089000E+03  0.00000000000E+00 0. -1.
         22    1    4    4    0    0 -0.53438522304E+01  0.25775114052E+02  0.58940579558E+03  0.58999330939E+03  0.00000000000E+00 0.  1.
         22    1    4    4    0    0 -0.31366446725E+01  0.35384206779E+01  0.28313159846E+03  0.28317108081E+03  0.00000000000E+00 0.  1.
<mgrwt>
<rscale>  0 0.90111763E+02</rscale>
<asrwt>0</asrwt>
<pdfrwt beam="1">  1        2 0.15539894E+00 0.90111763E+02</pdfrwt>
<pdfrwt beam="2">  1       -2 0.30919198E-03 0.90111763E+02</pdfrwt>
<totfact> 0.25796818E+05</totfact>
</mgrwt>
</event>
<event>
 7    1  0.3337990E-009  0.9190500E+02  0.7818608E-02  0.1298303E+00
          2   -1    0    0  501    0  0.00000000000E+00  0.00000000000E+00  0.13595099391E+02  0.13595099631E+02  0.25500000000E-02 0. -1.
         -2   -1    0    0    0  501 -0.00000000000E+00 -0.00000000000E+00 -0.15532302893E+03  0.15532302895E+03  0.25500000000E-02 0.  1.
         23    2    1    2    0    0  0.00000000000E+00  0.00000000000E+00 -0.14172792954E+03  0.16891812858E+03  0.91904995252E+02 0.  0.
    9000005    2    3    3    0    0 -0.29333368966E+02  0.34588587398E+02 -0.65757305874E+02  0.80440150683E+02  0.94751070206E+01 0.  0.
         22    1    3    3    0    0  0.29333368966E+02 -0.34588587398E+02 -0.75970623668E+02  0.88477977902E+02  0.00000000000E+00 0.  1.
         22    1    4    4    0    0 -0.41281737571E+01  0.11175104282E+02 -0.17855239406E+02  0.21464723350E+02  0.00000000000E+00 0. -1.
         22    1    4    4    0    0 -0.25205195209E+02  0.23413483116E+02 -0.47902066468E+02  0.58975427333E+02  0.00000000000E+00 0. -1.
<mgrwt>
<rscale>  0 0.91904995E+02</rscale>
<asrwt>0</asrwt>
<pdfrwt beam="1">  1        2 0.20915539E-02 0.91904995E+02</pdfrwt>
<pdfrwt beam="2">  1       -2 0.23895849E-01 0.91904995E+02</pdfrwt>
<totfact> 0.67588789E+04</totfact>
</mgrwt>
</event>
<event>
 7    1  0.3337990E-009  0.1034447E+03  0.7818608E-02  0.1273214E+00
         -2   -1    0    0    0  501 -0.00000000000E+00  0.00000000000E+00  0.32868371380E+01  0.32868381271E+01  0.25500000000E-02 0.  1.
          2   -1    0    0  501    0  0.00000000000E+00 -0.00000000000E+00 -0.81391404733E+03  0.81391404733E+03  0.25500000000E-02 0. -1.
         23    2    1    2    0    0  0.00000000000E+00  0.00000000000E+00 -0.81062721019E+03  0.81720088546E+03  0.10344473546E+03 0.  0.
    9000005    2    3    3    0    0  0.18800475131E+02 -0.19513181567E+02 -0.75267963760E+03  0.75323102311E+03  0.98038357910E+01 0.  0.
         22    1    3    3    0    0 -0.18800475131E+02  0.19513181567E+02 -0.57947572589E+02  0.63969862349E+02  0.00000000000E+00 0.  1.
         22    1    4    4    0    0 -0.38680017846E+00 -0.43014771208E+01 -0.12051652336E+03  0.12059388344E+03  0.00000000000E+00 0.  1.
         22    1    4    4    0    0  0.19187275309E+02 -0.15211704446E+02 -0.63216311424E+03  0.63263713967E+03  0.00000000000E+00 0.  1.
<mgrwt>
<rscale>  0 0.10344474E+03</rscale>
<asrwt>0</asrwt>
<pdfrwt beam="2">  1        2 0.12521739E+00 0.10344474E+03</pdfrwt>
<pdfrwt beam="1">  1       -2 0.50566798E-03 0.10344474E+03</pdfrwt>
<totfact> 0.17491320E+05</totfact>
</mgrwt>
</event>
<event>
 7    1  0.3337990E-009  0.8956913E+02  0.7818608E-02  0.1303898E+00
         -2   -1    0    0    0  501 -0.00000000000E+00  0.00000000000E+00  0.33569656172E+03  0.33569656172E+03  0.25500000000E-02 0.  1.
          2   -1    0    0  501    0  0.00000000000E+00 -0.00000000000E+00 -0.59746139353E+01  0.59746144795E+01  0.25500000000E-02 0. -1.
         23    2    1    2    0    0  0.00000000000E+00  0.00000000000E+00  0.32972194778E+03  0.34167117620E+03  0.89569134199E+02 0.  0.
    9000005    2    3    3    0    0  0.28334212354E+02 -0.93476986981E+01  0.29101648744E+03  0.29280073810E+03  0.12307282683E+02 0.  0.
         22    1    3    3    0    0 -0.28334212354E+02  0.93476986981E+01  0.38705460336E+02  0.48870438105E+02  0.00000000000E+00 0. -1.
         22    1    4    4    0    0  0.83927703113E+01 -0.47412778771E+01  0.14968186063E+03  0.14999192548E+03  0.00000000000E+00 0. -1.
         22    1    4    4    0    0  0.19941442043E+02 -0.46064208210E+01  0.14133462681E+03  0.14280881261E+03  0.00000000000E+00 0. -1.
<mgrwt>
<rscale>  0 0.89569134E+02</rscale>
<asrwt>0</asrwt>
<pdfrwt beam="2">  1        2 0.91917149E-03 0.89569134E+02</pdfrwt>
<pdfrwt beam="1">  1       -2 0.51645621E-01 0.89569134E+02</pdfrwt>
<totfact> 0.50003496E+04</totfact>
</mgrwt>
</event>
<event>
 7    1  0.3337990E-009  0.9138675E+02  0.7818608E-02  0.1299528E+00
         -2   -1    0    0    0  501 -0.00000000000E+00  0.00000000000E+00  0.19656706420E+03  0.19656706422E+03  0.25500000000E-02 0. -1.
          2   -1    0    0  501    0  0.00000000000E+00 -0.00000000000E+00 -0.10621741978E+02  0.10621742284E+02  0.25500000000E-02 0.  1.
         23    2    1    2    0    0 -0.35527136788E-14 -0.71054273576E-14  0.18594532222E+03  0.20718880650E+03  0.91386753323E+02 0.  0.
    9000005    2    3    3    0    0  0.22823761054E+02  0.37695463420E+02  0.11718460492E+03  0.12551930011E+03  0.89995020613E+01 0.  0.
         22    1    3    3    0    0 -0.22823761054E+02 -0.37695463420E+02  0.68760717302E+02  0.81669506396E+02  0.00000000000E+00 0.  1.
         22    1    4    4    0    0  0.32132673194E+01  0.84536011311E+01  0.34175462015E+02  0.35351812724E+02  0.00000000000E+00 0.  1.
         22    1    4    4    0    0  0.19610493734E+02  0.29241862289E+02  0.83009142906E+02  0.90167487381E+02  0.00000000000E+00 0.  1.
<mgrwt>
<rscale>  0 0.91386753E+02</rscale>
<asrwt>0</asrwt>
<pdfrwt beam="2">  1        2 0.16341143E-02 0.91386753E+02</pdfrwt>
<pdfrwt beam="1">  1       -2 0.30241085E-01 0.91386753E+02</pdfrwt>
<totfact> 0.62417848E+04</totfact>
</mgrwt>
</event>
<event>
 7    1  0.3337990E-009  0.9177294E+02  0.7818608E-02  0.1298614E+00
         -2   -1    0    0    0  501 -0.00000000000E+00  0.00000000000E+00  0.36192131544E+02  0.36192131634E+02  0.25500000000E-02 0. -1.
          2   -1    0    0  501    0  0.00000000000E+00 -0.00000000000E+00 -0.58177515835E+02  0.58177515891E+02  0.25500000000E-02 0.  1.
         23    2    1    2    0    0  0.00000000000E+00  0.00000000000E+00 -0.21985384291E+02  0.94369647525E+02  0.91772944006E+02 0.  0.
    9000005    2    3    3    0    0  0.19948940395E+02  0.18929282861E+02  0.25144274993E+02  0.39803332304E+02  0.13992595366E+02 0.  0.
         22    1    3    3    0    0 -0.19948940395E+02 -0.18929282861E+02 -0.47129659284E+02  0.54566315220E+02  0.00000000000E+00 0.  1.
         22    1    4    4    0    0  0.12493903712E+02  0.18223450719E+02  0.23260163511E+02  0.32081567802E+02  0.00000000000E+00 0. -1.
         22    1    4    4    0    0  0.74550366829E+01  0.70583214229E+00  0.18841114820E+01  0.77217645025E+01  0.00000000000E+00 0. -1.
<mgrwt>
<rscale>  0 0.91772944E+02</rscale>
<asrwt>0</asrwt>
<pdfrwt beam="2">  1        2 0.89503871E-02 0.91772944E+02</pdfrwt>
<pdfrwt beam="1">  1       -2 0.55680202E-02 0.91772944E+02</pdfrwt>
<totfact> 0.10327521E+05</totfact>
</mgrwt>
</event>
<event>
 7    1  0.3337990E-009  0.8210818E+02  0.7818608E-02  0.1323173E+00
          2   -1    0    0  501    0  0.00000000000E+00  0.00000000000E+00  0.20840740358E+04  0.20840740358E+04  0.25500000000E-02 0. -1.
         -2   -1    0    0    0  501 -0.00000000000E+00 -0.00000000000E+00 -0.80872079302E+00  0.80872481325E+00  0.25500000000E-02 0.  1.
         23    2    1    2    0    0  0.00000000000E+00  0.17763568394E-14  0.20832653150E+04  0.20848827606E+04  0.82108177410E+02 0.  0.
    9000005    2    3    3    0    0 -0.11866668424E+02 -0.14230861245E+02  0.19716550547E+04  0.19717448562E+04  0.32844504558E+01 0.  0.
         22    1    3    3    0    0  0.11866668424E+02  0.14230861245E+02  0.11161026025E+03  0.11313790445E+03  0.00000000000E+00 0.  1.
         22    1    4    4    0    0 -0.10455038514E+02 -0.13332285521E+02  0.16929569008E+04  0.16930416786E+04  0.00000000000E+00 0.  1.
         22    1    4    4    0    0 -0.14116299104E+01 -0.89857572420E+00  0.27869815398E+03  0.27870317754E+03  0.00000000000E+00 0.  1.
<mgrwt>
<rscale>  0 0.82108177E+02</rscale>
<asrwt>0</asrwt>
<pdfrwt beam="1">  1        2 0.32062800E+00 0.82108177E+02</pdfrwt>
<pdfrwt beam="2">  1       -2 0.12441842E-03 0.82108177E+02</pdfrwt>
<totfact> 0.24899578E+05</totfact>
</mgrwt>
</event>
<event>
 7    1  0.3337990E-009  0.9534904E+02  0.7818608E-02  0.1290392E+00
         -2   -1    0    0    0  501 -0.00000000000E+00  0.00000000000E+00  0.26199286322E+02  0.26199286446E+02  0.25500000000E-02 0.  1.
          2   -1    0    0  501    0  0.00000000000E+00 -0.00000000000E+00 -0.86752744298E+02  0.86752744336E+02  0.25500000000E-02 0. -1.
         23    2    1    2    0    0  0.00000000000E+00  0.00000000000E+00 -0.60553457976E+02  0.11295203078E+03  0.95349042915E+02 0.  0.
    9000005    2    3    3    0    0  0.40787678712E+02 -0.20021009422E+02 -0.44680266526E+02  0.64822686720E+02  0.11881874591E+02 0.  0.
         22    1    3    3    0    0 -0.40787678712E+02  0.20021009422E+02 -0.15873191450E+02  0.48129344062E+02  0.00000000000E+00 0.  1.
         22    1    4    4    0    0  0.24519192449E+02 -0.92590961568E+01 -0.18094133955E+02  0.31848380549E+02  0.00000000000E+00 0. -1.
         22    1    4    4    0    0  0.16268486263E+02 -0.10761913266E+02 -0.26586132571E+02  0.32974306171E+02  0.00000000000E+00 0. -1.
<mgrwt>
<rscale>  0 0.95349043E+02</rscale>
<asrwt>0</asrwt>
<pdfrwt beam="2">  1        2 0.13346576E-01 0.95349043E+02</pdfrwt>
<pdfrwt beam="1">  1       -2 0.40306595E-02 0.95349043E+02</pdfrwt>
<totfact> 0.10382230E+05</totfact>
</mgrwt>
</event>
<event>
 7    1  0.3337990E-009  0.8744024E+02  0.7818608E-02  0.1309172E+00
         -2   -1    0    0    0  501 -0.00000000000E+00  0.00000000000E+00  0.13184151196E+04  0.13184151196E+04  0.25500000000E-02 0.  1.
          2   -1    0    0  501    0  0.00000000000E+00 -0.00000000000E+00 -0.14498068632E+01  0.14498091057E+01  0.25500000000E-02 0. -1.
         23    2    1    2    0    0  0.17763568394E-14  0.17763568394E-14  0.13169653128E+04  0.13198649288E+04  0.87440237202E+02 0.  0.
    9000005    2    3    3    0    0  0.12641943976E+02  0.15375139046E+02  0.12448842954E+04  0.12450860099E+04  0.10298023877E+02 0.  0.
         22    1    3    3    0    0 -0.12641943976E+02 -0.15375139046E+02  0.72081017356E+02  0.74778918896E+02  0.00000000000E+00 0. -1.
         22    1    4    4    0    0  0.10692570253E+01  0.71930269161E+01  0.26700769347E+03  0.26710670400E+03  0.00000000000E+00 0.  1.
         22    1    4    4    0    0  0.11572686951E+02  0.81821121302E+01  0.97787660195E+03  0.97797930586E+03  0.00000000000E+00 0.  1.
<mgrwt>
<rscale>  0 0.87440237E+02</rscale>
<asrwt>0</asrwt>
<pdfrwt beam="2">  1        2 0.22304661E-03 0.87440237E+02</pdfrwt>
<pdfrwt beam="1">  1       -2 0.20283380E+00 0.87440237E+02</pdfrwt>
<totfact> 0.14507951E+04</totfact>
</mgrwt>
</event>
<event>
 7    1  0.3337990E-009  0.8968004E+02  0.7818608E-02  0.1303628E+00
          2   -1    0    0  501    0  0.00000000000E+00  0.00000000000E+00  0.24875344910E+02  0.24875345041E+02  0.25500000000E-02 0.  1.
         -2   -1    0    0    0  501 -0.00000000000E+00 -0.00000000000E+00 -0.80828123350E+02  0.80828123391E+02  0.25500000000E-02 0. -1.
         23    2    1    2    0    0  0.00000000000E+00  0.00000000000E+00 -0.55952778440E+02  0.10570346843E+03  0.89680041387E+02 0.  0.
    9000005    2    3    3    0    0  0.21316080001E+02  0.13323633902E+02  0.14916691193E+02  0.30507882038E+02  0.87366299768E+01 0.  0.
         22    1    3    3    0    0 -0.21316080001E+02 -0.13323633902E+02 -0.70869469633E+02  0.75195586393E+02  0.00000000000E+00 0. -1.
         22    1    4    4    0    0  0.19697041936E+01  0.44749310714E+01  0.51431990431E+01  0.70962834711E+01  0.00000000000E+00 0.  1.
         22    1    4    4    0    0  0.19346375808E+02  0.88487028305E+01  0.97734921494E+01  0.23411598567E+02  0.00000000000E+00 0.  1.
<mgrwt>
<rscale>  0 0.89680041E+02</rscale>
<asrwt>0</asrwt>
<pdfrwt beam="1">  1        2 0.38269762E-02 0.89680041E+02</pdfrwt>
<pdfrwt beam="2">  1       -2 0.12435096E-01 0.89680041E+02</pdfrwt>
<totfact> 0.88358228E+04</totfact>
</mgrwt>
</event>
<event>
 7    1  0.3337990E-009  0.9090297E+02  0.7818608E-02  0.1300680E+00
          2   -1    0    0  501    0  0.00000000000E+00  0.00000000000E+00  0.27687211869E+02  0.27687211986E+02  0.25500000000E-02 0. -1.
         -2   -1    0    0    0  501 -0.00000000000E+00 -0.00000000000E+00 -0.74613413172E+02  0.74613413215E+02  0.25500000000E-02 0.  1.
         23    2    1    2    0    0  0.00000000000E+00  0.00000000000E+00 -0.46926201303E+02  0.10230062520E+03  0.90902967761E+02 0.  0.
    9000005    2    3    3    0    0 -0.34482978310E+02  0.18040576664E+02 -0.48858380485E+02  0.63335621468E+02  0.10474798496E+02 0.  0.
         22    1    3    3    0    0  0.34482978310E+02 -0.18040576664E+02  0.19321791823E+01  0.38965003733E+02  0.00000000000E+00 0. -1.
         22    1    4    4    0    0 -0.77412067948E+01  0.29664511737E+01 -0.17956765636E+02  0.19778057218E+02  0.00000000000E+00 0.  1.
         22    1    4    4    0    0 -0.26741771516E+02  0.15074125491E+02 -0.30901614849E+02  0.43557564250E+02  0.00000000000E+00 0.  1.
<mgrwt>
<rscale>  0 0.90902968E+02</rscale>
<asrwt>0</asrwt>
<pdfrwt beam="1">  1        2 0.42595711E-02 0.90902968E+02</pdfrwt>
<pdfrwt beam="2">  1       -2 0.11478987E-01 0.90902968E+02</pdfrwt>
<totfact> 0.87357888E+04</totfact>
</mgrwt>
</event>
<event>
 7    1  0.3337990E-009  0.7994699E+02  0.7818608E-02  0.1329202E+00
         -2   -1    0    0    0  501 -0.00000000000E+00  0.00000000000E+00  0.36049611168E+01  0.36049620187E+01  0.25500000000E-02 0.  1.
          2   -1    0    0  501    0  0.00000000000E+00 -0.00000000000E+00 -0.44324473000E+03  0.44324473001E+03  0.25500000000E-02 0. -1.
         23    2    1    2    0    0  0.00000000000E+00  0.00000000000E+00 -0.43963976889E+03  0.44684969203E+03  0.79946987936E+02 0.  0.
    9000005    2    3    3    0    0  0.98845459040E+01 -0.32969415119E+02 -0.33174652422E+03  0.33359935505E+03  0.69344630104E+01 0.  0.
         22    1    3    3    0    0 -0.98845459040E+01  0.32969415119E+02 -0.10789324466E+03  0.11325033697E+03  0.00000000000E+00 0.  1.
         22    1    4    4    0    0  0.33609088541E+01 -0.66730675701E+01 -0.98908923509E+02  0.99190728845E+02  0.00000000000E+00 0.  1.
         22    1    4    4    0    0  0.65236370500E+01 -0.26296347549E+02 -0.23283760071E+03  0.23440862621E+03  0.00000000000E+00 0.  1.
<mgrwt>
<rscale>  0 0.79946988E+02</rscale>
<asrwt>0</asrwt>
<pdfrwt beam="2">  1        2 0.68191454E-01 0.79946988E+02</pdfrwt>
<pdfrwt beam="1">  1       -2 0.55460982E-03 0.79946988E+02</pdfrwt>
<totfact> 0.29250074E+05</totfact>
</mgrwt>
</event>
<event>
 7    1  0.3337990E-009  0.9251392E+02  0.7818608E-02  0.1296876E+00
          2   -1    0    0  501    0  0.00000000000E+00  0.00000000000E+00  0.71957604175E+01  0.71957608694E+01  0.25500000000E-02 0. -1.
         -2   -1    0    0    0  501 -0.00000000000E+00 -0.00000000000E+00 -0.29735653625E+03  0.29735653626E+03  0.25500000000E-02 0.  1.
         23    2    1    2    0    0  0.00000000000E+00  0.00000000000E+00 -0.29016077583E+03  0.30455229713E+03  0.92513922496E+02 0.  0.
    9000005    2    3    3    0    0  0.17988824617E+01 -0.18204322402E+02 -0.28449273202E+03  0.28540131666E+03  0.13533796524E+02 0.  0.
         22    1    3    3    0    0 -0.17988824617E+01  0.18204322402E+02 -0.56680438128E+01  0.19150980468E+02  0.00000000000E+00 0. -1.
         22    1    4    4    0    0 -0.35014785061E+00 -0.18038185973E+02 -0.27745375698E+03  0.27803972022E+03  0.00000000000E+00 0.  1.
         22    1    4    4    0    0  0.21490303123E+01 -0.16613642892E+00 -0.70389750390E+01  0.73615964434E+01  0.00000000000E+00 0.  1.
<mgrwt>
<rscale>  0 0.92513922E+02</rscale>
<asrwt>0</asrwt>
<pdfrwt beam="1">  1        2 0.11070403E-02 0.92513922E+02</pdfrwt>
<pdfrwt beam="2">  1       -2 0.45747150E-01 0.92513922E+02</pdfrwt>
<totfact> 0.49367364E+04</totfact>
</mgrwt>
</event>
<event>
 7    1  0.3337990E-009  0.9115456E+02  0.7818608E-02  0.1300080E+00
          2   -1    0    0  501    0  0.00000000000E+00  0.00000000000E+00  0.70581966170E+03  0.70581966171E+03  0.25500000000E-02 0. -1.
         -2   -1    0    0    0  501 -0.00000000000E+00 -0.00000000000E+00 -0.29430862221E+01  0.29430873268E+01  0.25500000000E-02 0.  1.
         23    2    1    2    0    0 -0.35527136788E-14  0.17763568394E-14  0.70287657548E+03  0.70876274903E+03  0.91154561372E+02 0.  0.
    9000005    2    3    3    0    0  0.31458649037E+02 -0.14093926882E+02  0.58232490095E+03  0.58337937052E+03  0.63964297453E+01 0.  0.
         22    1    3    3    0    0 -0.31458649037E+02  0.14093926882E+02  0.12055167453E+03  0.12538337851E+03  0.00000000000E+00 0.  1.
         22    1    4    4    0    0  0.75572742978E+01 -0.28362348935E+01  0.96694358554E+02  0.97030694109E+02  0.00000000000E+00 0. -1.
         22    1    4    4    0    0  0.23901374739E+02 -0.11257691989E+02  0.48563054240E+03  0.48634867642E+03  0.00000000000E+00 0. -1.
<mgrwt>
<rscale>  0 0.91154561E+02</rscale>
<asrwt>0</asrwt>
<pdfrwt beam="1">  1        2 0.10858768E+00 0.91154561E+02</pdfrwt>
<pdfrwt beam="2">  1       -2 0.45278242E-03 0.91154561E+02</pdfrwt>
<totfact> 0.23775117E+05</totfact>
</mgrwt>
</event>
<event>
 7    1  0.3337990E-009  0.9231999E+02  0.7818608E-02  0.1297329E+00
          2   -1    0    0  501    0  0.00000000000E+00  0.00000000000E+00  0.21580438861E+02  0.21580439011E+02  0.25500000000E-02 0.  1.
         -2   -1    0    0    0  501 -0.00000000000E+00 -0.00000000000E+00 -0.98735023567E+02  0.98735023600E+02  0.25500000000E-02 0. -1.
         23    2    1    2    0    0  0.00000000000E+00  0.00000000000E+00 -0.77154584707E+02  0.12031546261E+03  0.92319990263E+02 0.  0.
    9000005    2    3    3    0    0  0.39290307662E+02  0.34015406570E+01 -0.89921020723E+01  0.41566349639E+02  0.95710379578E+01 0.  0.
         22    1    3    3    0    0 -0.39290307662E+02 -0.34015406570E+01 -0.68162482635E+02  0.78749112973E+02  0.00000000000E+00 0. -1.
         22    1    4    4    0    0  0.17793159517E+02  0.63131515888E+00  0.71130177038E+00  0.17818558714E+02  0.00000000000E+00 0. -1.
         22    1    4    4    0    0  0.21497148145E+02  0.27702254981E+01 -0.97034038427E+01  0.23747790925E+02  0.00000000000E+00 0. -1.
<mgrwt>
<rscale>  0 0.92319990E+02</rscale>
<asrwt>0</asrwt>
<pdfrwt beam="1">  1        2 0.33200676E-02 0.92319990E+02</pdfrwt>
<pdfrwt beam="2">  1       -2 0.15190003E-01 0.92319990E+02</pdfrwt>
<totfact> 0.77663054E+04</totfact>
</mgrwt>
</event>
<event>
 7    1  0.3337990E-009  0.9719558E+02  0.7818608E-02  0.1286306E+00
         -2   -1    0    0    0  501 -0.00000000000E+00  0.00000000000E+00  0.29138574026E+02  0.29138574138E+02  0.25500000000E-02 0.  1.
          2   -1    0    0  501    0  0.00000000000E+00 -0.00000000000E+00 -0.81052193819E+02  0.81052193859E+02  0.25500000000E-02 0. -1.
         23    2    1    2    0    0  0.71054273576E-14  0.00000000000E+00 -0.51913619792E+02  0.11019076800E+03  0.97195583396E+02 0.  0.
    9000005    2    3    3    0    0  0.33013827758E+02 -0.81745203318E+01 -0.63899086849E+02  0.74129888551E+02  0.15981597871E+02 0.  0.
         22    1    3    3    0    0 -0.33013827758E+02  0.81745203318E+01  0.11985467056E+02  0.36060879446E+02  0.00000000000E+00 0.  1.
         22    1    4    4    0    0  0.11330598403E+02 -0.88259810823E+01 -0.36214325342E+02  0.38958410673E+02  0.00000000000E+00 0.  1.
         22    1    4    4    0    0  0.21683229354E+02  0.65146075046E+00 -0.27684761507E+02  0.35171477877E+02  0.00000000000E+00 0.  1.
<mgrwt>
<rscale>  0 0.97195583E+02</rscale>
<asrwt>0</asrwt>
<pdfrwt beam="2">  1        2 0.12469568E-01 0.97195583E+02</pdfrwt>
<pdfrwt beam="1">  1       -2 0.44828576E-02 0.97195583E+02</pdfrwt>
<totfact> 0.96427981E+04</totfact>
</mgrwt>
</event>
<event>
 7    1  0.3337990E-009  0.9162289E+02  0.7818608E-02  0.1298969E+00
          2   -1    0    0  501    0  0.00000000000E+00  0.00000000000E+00  0.13286130441E+03  0.13286130443E+03  0.25500000000E-02 0. -1.
         -2   -1    0    0    0  501 -0.00000000000E+00 -0.00000000000E+00 -0.15796086049E+02  0.15796086254E+02  0.25500000000E-02 0.  1.
         23    2    1    2    0    0  0.00000000000E+00  0.00000000000E+00  0.11706521836E+03  0.14865739069E+03  0.91622892643E+02 0.  0.
    9000005    2    3    3    0    0 -0.34128374281E+02 -0.13331675428E+02  0.10154064100E+03  0.10886427567E+03  0.14087201318E+02 0.  0.
         22    1    3    3    0    0  0.34128374281E+02  0.13331675428E+02  0.15524577358E+02  0.39793115019E+02  0.00000000000E+00 0.  1.
         22    1    4    4    0    0 -0.28769427910E+02 -0.14853236479E+02  0.94460310856E+02  0.99855139793E+02  0.00000000000E+00 0.  1.
         22    1    4    4    0    0 -0.53589463705E+01  0.15215610508E+01  0.70803301445E+01  0.90091358735E+01  0.00000000000E+00 0.  1.
<mgrwt>
<rscale>  0 0.91622893E+02</rscale>
<asrwt>0</asrwt>
<pdfrwt beam="1">  1        2 0.20440200E-01 0.91622893E+02</pdfrwt>
<pdfrwt beam="2">  1       -2 0.24301672E-02 0.91622893E+02</pdfrwt>
<totfact> 0.13246360E+05</totfact>
</mgrwt>
</event>
<event>
 7    1  0.3337990E-009  0.9489735E+02  0.7818608E-02  0.1291407E+00
          2   -1    0    0  501    0  0.00000000000E+00  0.00000000000E+00  0.11323764229E+03  0.11323764232E+03  0.25500000000E-02 0. -1.
         -2   -1    0    0    0  501 -0.00000000000E+00 -0.00000000000E+00 -0.19881877383E+02  0.19881877547E+02  0.25500000000E-02 0.  1.
         23    2    1    2    0    0  0.71054273576E-14  0.00000000000E+00  0.93355764905E+02  0.13311951986E+03  0.94897353640E+02 0.  0.
    9000005    2    3    3    0    0 -0.34356592742E+02  0.29442828804E+02  0.65923743190E+02  0.80206653298E+02  0.63175694870E+01 0.  0.
         22    1    3    3    0    0  0.34356592742E+02 -0.29442828804E+02  0.27432021714E+02  0.52912866566E+02  0.00000000000E+00 0.  1.
         22    1    4    4    0    0 -0.22995052856E+01  0.53163356424E+00  0.21269638739E+01  0.31771581840E+01  0.00000000000E+00 0. -1.
         22    1    4    4    0    0 -0.32057087457E+02  0.28911195240E+02  0.63796779316E+02  0.77029495114E+02  0.00000000000E+00 0. -1.
<mgrwt>
<rscale>  0 0.94897354E+02</rscale>
<asrwt>0</asrwt>
<pdfrwt beam="1">  1        2 0.17421176E-01 0.94897354E+02</pdfrwt>
<pdfrwt beam="2">  1       -2 0.30587504E-02 0.94897354E+02</pdfrwt>
<totfact> 0.11421509E+05</totfact>
</mgrwt>
</event>
<event>
 7    1  0.3337990E-009  0.8581241E+02  0.7818608E-02  0.1313322E+00
          2   -1    0    0  501    0  0.00000000000E+00  0.00000000000E+00  0.11924144228E+03  0.11924144230E+03  0.25500000000E-02 0. -1.
         -2   -1    0    0    0  501 -0.00000000000E+00 -0.00000000000E+00 -0.15438781231E+02  0.15438781442E+02  0.25500000000E-02 0.  1.
         23    2    1    2    0    0  0.71054273576E-14  0.17763568394E-14  0.10380266105E+03  0.13468022375E+03  0.85812413019E+02 0.  0.
    9000005    2    3    3    0    0  0.36501043985E+02  0.14823458933E+02  0.30106201013E+02  0.51114504889E+02  0.12419666817E+02 0.  0.
         22    1    3    3    0    0 -0.36501043985E+02 -0.14823458933E+02  0.73696460033E+02  0.83565718857E+02  0.00000000000E+00 0. -1.
         22    1    4    4    0    0  0.31446893532E+02  0.16573014687E+02  0.23490253389E+02  0.42607087825E+02  0.00000000000E+00 0. -1.
         22    1    4    4    0    0  0.50541504531E+01 -0.17495557536E+01  0.66159476244E+01  0.85074170644E+01  0.00000000000E+00 0. -1.
<mgrwt>
<rscale>  0 0.85812413E+02</rscale>
<asrwt>0</asrwt>
<pdfrwt beam="1">  1        2 0.18344836E-01 0.85812413E+02</pdfrwt>
<pdfrwt beam="2">  1       -2 0.23751973E-02 0.85812413E+02</pdfrwt>
<totfact> 0.15285173E+05</totfact>
</mgrwt>
</event>
<event>
 7    1  0.3337990E-009  0.9101910E+02  0.7818608E-02  0.1300402E+00
          2   -1    0    0  501    0  0.00000000000E+00  0.00000000000E+00  0.99576037967E+01  0.99576041232E+01  0.25500000000E-02 0. -1.
         -2   -1    0    0    0  501 -0.00000000000E+00 -0.00000000000E+00 -0.20799372023E+03  0.20799372025E+03  0.25500000000E-02 0.  1.
         23    2    1    2    0    0  0.00000000000E+00  0.00000000000E+00 -0.19803611643E+03  0.21795132437E+03  0.91019098997E+02 0.  0.
    9000005    2    3    3    0    0 -0.19248453888E+02 -0.24038508135E+02 -0.19027271420E+02  0.36312893844E+02  0.28699043964E+01 0.  0.
         22    1    3    3    0    0  0.19248453888E+02  0.24038508135E+02 -0.17900884501E+03  0.18163843052E+03  0.00000000000E+00 0.  1.
         22    1    4    4    0    0 -0.31718248688E+01 -0.58368656239E+01 -0.39769127076E+01  0.77424355337E+01  0.00000000000E+00 0. -1.
         22    1    4    4    0    0 -0.16076629019E+02 -0.18201642511E+02 -0.15050358712E+02  0.28570458310E+02  0.00000000000E+00 0. -1.
<mgrwt>
<rscale>  0 0.91019099E+02</rscale>
<asrwt>0</asrwt>
<pdfrwt beam="1">  1        2 0.15319392E-02 0.91019099E+02</pdfrwt>
<pdfrwt beam="2">  1       -2 0.31999031E-01 0.91019099E+02</pdfrwt>
<totfact> 0.61529800E+04</totfact>
</mgrwt>
</event>
<event>
 7    1  0.3337990E-009  0.8993285E+02  0.7818608E-02  0.1303014E+00
         -2   -1    0    0    0  501 -0.00000000000E+00  0.00000000000E+00  0.24400442785E+02  0.24400442918E+02  0.25500000000E-02 0.  1.
          2   -1    0    0  501    0  0.00000000000E+00 -0.00000000000E+00 -0.82866506913E+02  0.82866506952E+02  0.25500000000E-02 0. -1.
         23    2    1    2    0    0  0.00000000000E+00  0.00000000000E+00 -0.58466064128E+02  0.10726694987E+03  0.89932852061E+02 0.  0.
    9000005    2    3    3    0    0 -0.36777934385E+02  0.11876640057E+02 -0.55805712880E+02  0.68527454450E+02  0.93842094375E+01 0.  0.
         22    1    3    3    0    0  0.36777934385E+02 -0.11876640057E+02 -0.26603512488E+01  0.38739495420E+02  0.00000000000E+00 0.  1.
         22    1    4    4    0    0 -0.16781365123E+02  0.97181926169E+01 -0.23444431593E+02  0.30425299602E+02  0.00000000000E+00 0.  1.
         22    1    4    4    0    0 -0.19996569262E+02  0.21584474399E+01 -0.32361281286E+02  0.38102154848E+02  0.00000000000E+00 0.  1.
<mgrwt>
<rscale>  0 0.89932852E+02</rscale>
<asrwt>0</asrwt>
<pdfrwt beam="2">  1        2 0.12748693E-01 0.89932852E+02</pdfrwt>
<pdfrwt beam="1">  1       -2 0.37539143E-02 0.89932852E+02</pdfrwt>
<totfact> 0.12052332E+05</totfact>
</mgrwt>
</event>
<event>
 7    1  0.3337990E-009  0.8859498E+02  0.7818608E-02  0.1306290E+00
         -2   -1    0    0    0  501 -0.00000000000E+00  0.00000000000E+00  0.80529415803E+01  0.80529419840E+01  0.25500000000E-02 0.  1.
          2   -1    0    0  501    0  0.00000000000E+00 -0.00000000000E+00 -0.24367088744E+03  0.24367088745E+03  0.25500000000E-02 0. -1.
         23    2    1    2    0    0 -0.35527136788E-14 -0.17763568394E-14 -0.23561794586E+03  0.25172382944E+03  0.88594976694E+02 0.  0.
    9000005    2    3    3    0    0  0.29466609722E+02  0.15387884371E+02 -0.19922796336E+03  0.20243591103E+03  0.13544320553E+02 0.  0.
         22    1    3    3    0    0 -0.29466609722E+02 -0.15387884371E+02 -0.36389982504E+02  0.49287918404E+02  0.00000000000E+00 0.  1.
         22    1    4    4    0    0  0.28704513957E+02  0.17466318754E+02 -0.18321604098E+03  0.18627168084E+03  0.00000000000E+00 0.  1.
         22    1    4    4    0    0  0.76209576534E+00 -0.20784343826E+01 -0.16011922378E+02  0.16164230191E+02  0.00000000000E+00 0.  1.
<mgrwt>
<rscale>  0 0.88594977E+02</rscale>
<asrwt>0</asrwt>
<pdfrwt beam="2">  1        2 0.37487823E-01 0.88594977E+02</pdfrwt>
<pdfrwt beam="1">  1       -2 0.12389143E-02 0.88594977E+02</pdfrwt>
<totfact> 0.17954919E+05</totfact>
</mgrwt>
</event>
<event>
 7    1  0.3337990E-009  0.9144396E+02  0.7818608E-02  0.1299392E+00
          2   -1    0    0  501    0  0.00000000000E+00  0.00000000000E+00  0.23579982551E+03  0.23579982552E+03  0.25500000000E-02 0. -1.
         -2   -1    0    0    0  501 -0.00000000000E+00 -0.00000000000E+00 -0.88655673911E+01  0.88655677579E+01  0.25500000000E-02 0.  1.
         23    2    1    2    0    0  0.17763568394E-14  0.00000000000E+00  0.22693425812E+03  0.24466539328E+03  0.91443956398E+02 0.  0.
    9000005    2    3    3    0    0 -0.11897905610E+02  0.29915979794E+02  0.20008168465E+03  0.20274181153E+03  0.59190882235E+01 0.  0.
         22    1    3    3    0    0  0.11897905610E+02 -0.29915979794E+02  0.26852573469E+02  0.41923581751E+02  0.00000000000E+00 0.  1.
         22    1    4    4    0    0 -0.98126987203E+01  0.21632389927E+02  0.13125977185E+03  0.13339181780E+03  0.00000000000E+00 0.  1.
         22    1    4    4    0    0 -0.20852068893E+01  0.82835898670E+01  0.68821912795E+02  0.69349993725E+02  0.00000000000E+00 0.  1.
<mgrwt>
<rscale>  0 0.91443956E+02</rscale>
<asrwt>0</asrwt>
<pdfrwt beam="1">  1        2 0.36276896E-01 0.91443956E+02</pdfrwt>
<pdfrwt beam="2">  1       -2 0.13639335E-02 0.91443956E+02</pdfrwt>
<totfact> 0.16298902E+05</totfact>
</mgrwt>
</event>
<event>
 7    1  0.3337990E-009  0.9318676E+02  0.7818608E-02  0.1295313E+00
          2   -1    0    0  501    0  0.00000000000E+00  0.00000000000E+00  0.49114687249E+02  0.49114687316E+02  0.25500000000E-02 0. -1.
         -2   -1    0    0    0  501 -0.00000000000E+00 -0.00000000000E+00 -0.44201503185E+02  0.44201503259E+02  0.25500000000E-02 0.  1.
         23    2    1    2    0    0  0.00000000000E+00  0.00000000000E+00  0.49131840641E+01  0.93316190575E+02  0.93186758961E+02 0.  0.
    9000005    2    3    3    0    0 -0.58013618446E+01  0.25407383496E+02  0.39537942459E+02  0.49979545235E+02  0.15984840089E+02 0.  0.
         22    1    3    3    0    0  0.58013618446E+01 -0.25407383496E+02 -0.34624758395E+02  0.43336645339E+02  0.00000000000E+00 0.  1.
         22    1    4    4    0    0  0.35827837625E+01  0.10935486454E+01  0.94975308062E+01  0.10209568039E+02  0.00000000000E+00 0. -1.
         22    1    4    4    0    0 -0.93841456070E+01  0.24313834851E+02  0.30040411653E+02  0.39769977196E+02  0.00000000000E+00 0. -1.
<mgrwt>
<rscale>  0 0.93186759E+02</rscale>
<asrwt>0</asrwt>
<pdfrwt beam="1">  1        2 0.75561058E-02 0.93186759E+02</pdfrwt>
<pdfrwt beam="2">  1       -2 0.68002312E-02 0.93186759E+02</pdfrwt>
<totfact> 0.94515067E+04</totfact>
</mgrwt>
</event>
<event>
 7    1  0.3337990E-009  0.9205266E+02  0.7818608E-02  0.1297956E+00
          2   -1    0    0  501    0  0.00000000000E+00  0.00000000000E+00  0.24532550822E+03  0.24532550823E+03  0.25500000000E-02 0. -1.
         -2   -1    0    0    0  501 -0.00000000000E+00 -0.00000000000E+00 -0.86351525582E+01  0.86351529347E+01  0.25500000000E-02 0.  1.
         23    2    1    2    0    0  0.44408920985E-15  0.00000000000E+00  0.23669035566E+03  0.25396066117E+03  0.92052664044E+02 0.  0.
    9000005    2    3    3    0    0  0.27706267627E+01 -0.33072533337E+02  0.20440460007E+03  0.20765905376E+03  0.15478153865E+02 0.  0.
         22    1    3    3    0    0 -0.27706267627E+01  0.33072533337E+02  0.32285755595E+02  0.46301607405E+02  0.00000000000E+00 0.  1.
         22    1    4    4    0    0  0.32754813641E+01 -0.19612361452E+02  0.76303503847E+02  0.78851748232E+02  0.00000000000E+00 0.  1.
         22    1    4    4    0    0 -0.50485460145E+00 -0.13460171885E+02  0.12810109622E+03  0.12880730553E+03  0.00000000000E+00 0.  1.
<mgrwt>
<rscale>  0 0.92052664E+02</rscale>
<asrwt>0</asrwt>
<pdfrwt beam="1">  1        2 0.37742391E-01 0.92052664E+02</pdfrwt>
<pdfrwt beam="2">  1       -2 0.13284849E-02 0.92052664E+02</pdfrwt>
<totfact> 0.16247220E+05</totfact>
</mgrwt>
</event>
<event>
 7    1  0.3337990E-009  0.9160031E+02  0.7818608E-02  0.1299022E+00
         -2   -1    0    0    0  501 -0.00000000000E+00  0.00000000000E+00  0.44362221375E+02  0.44362221448E+02  0.25500000000E-02 0.  1.
          2   -1    0    0  501    0  0.00000000000E+00 -0.00000000000E+00 -0.47284701814E+02  0.47284701882E+02  0.25500000000E-02 0. -1.
         23    2    1    2    0    0  0.00000000000E+00  0.17763568394E-14 -0.29224804391E+01  0.91646923330E+02  0.91600314759E+02 0.  0.
    9000005    2    3    3    0    0 -0.38669930417E+02 -0.84983101641E+01 -0.21686725263E+02  0.47832751217E+02  0.15813704256E+02 0.  0.
         22    1    3    3    0    0  0.38669930417E+02  0.84983101641E+01  0.18764244824E+02  0.43814172113E+02  0.00000000000E+00 0.  1.
         22    1    4    4    0    0 -0.19666863542E+02  0.11704940111E+01 -0.39394508500E+01  0.20091661225E+02  0.00000000000E+00 0.  1.
         22    1    4    4    0    0 -0.19003066875E+02 -0.96688041751E+01 -0.17747274413E+02  0.27741089992E+02  0.00000000000E+00 0.  1.
<mgrwt>
<rscale>  0 0.91600315E+02</rscale>
<asrwt>0</asrwt>
<pdfrwt beam="2">  1        2 0.72745695E-02 0.91600315E+02</pdfrwt>
<pdfrwt beam="1">  1       -2 0.68249572E-02 0.91600315E+02</pdfrwt>
<totfact> 0.98301278E+04</totfact>
</mgrwt>
</event>
<event>
 7    1  0.3337990E-009  0.9358854E+02  0.7818608E-02  0.1294387E+00
          2   -1    0    0  501    0  0.00000000000E+00  0.00000000000E+00  0.37884497162E+03  0.37884497163E+03  0.25500000000E-02 0. -1.
         -2   -1    0    0    0  501 -0.00000000000E+00 -0.00000000000E+00 -0.57799468793E+01  0.57799474418E+01  0.25500000000E-02 0.  1.
         23    2    1    2    0    0 -0.17763568394E-14 -0.71054273576E-14  0.37306502475E+03  0.38462491908E+03  0.93588544626E+02 0.  0.
    9000005    2    3    3    0    0  0.10196662209E+02  0.44601233858E+02  0.14858039470E+03  0.15552539680E+03  0.43328255915E+01 0.  0.
         22    1    3    3    0    0 -0.10196662209E+02 -0.44601233858E+02  0.22448463004E+03  0.22909952227E+03  0.00000000000E+00 0. -1.
         22    1    4    4    0    0  0.80019109141E+00  0.10147355904E+01  0.59226510714E+01  0.60619955307E+01  0.00000000000E+00 0. -1.
         22    1    4    4    0    0  0.93964711175E+01  0.43586498267E+02  0.14265774363E+03  0.14946340127E+03  0.00000000000E+00 0. -1.
<mgrwt>
<rscale>  0 0.93588545E+02</rscale>
<asrwt>0</asrwt>
<pdfrwt beam="1">  1        2 0.58283836E-01 0.93588545E+02</pdfrwt>
<pdfrwt beam="2">  1       -2 0.88922273E-03 0.93588545E+02</pdfrwt>
<totfact> 0.18261329E+05</totfact>
</mgrwt>
</event>
<event>
 7    1  0.3337990E-009  0.9130109E+02  0.7818608E-02  0.1299731E+00
          2   -1    0    0  501    0  0.00000000000E+00  0.00000000000E+00  0.33122999495E+03  0.33122999496E+03  0.25500000000E-02 0. -1.
         -2   -1    0    0    0  501 -0.00000000000E+00 -0.00000000000E+00 -0.62916173734E+01  0.62916178901E+01  0.25500000000E-02 0.  1.
         23    2    1    2    0    0  0.00000000000E+00  0.00000000000E+00  0.32493837757E+03  0.33752161285E+03  0.91301094838E+02 0.  0.
    9000005    2    3    3    0    0 -0.32535888643E+02 -0.17247463865E+02  0.26161176184E+03  0.26426644703E+03  0.63231344520E+01 0.  0.
         22    1    3    3    0    0  0.32535888643E+02  0.17247463865E+02  0.63326615729E+02  0.73255165820E+02  0.00000000000E+00 0.  1.
         22    1    4    4    0    0 -0.20785602934E+01 -0.30885244200E+01  0.22164094380E+02  0.22474573982E+02  0.00000000000E+00 0.  1.
         22    1    4    4    0    0 -0.30457328350E+02 -0.14158939445E+02  0.23944766746E+03  0.24179187304E+03  0.00000000000E+00 0.  1.
<mgrwt>
<rscale>  0 0.91301095E+02</rscale>
<asrwt>0</asrwt>
<pdfrwt beam="1">  1        2 0.50958460E-01 0.91301095E+02</pdfrwt>
<pdfrwt beam="2">  1       -2 0.96794119E-03 0.91301095E+02</pdfrwt>
<totfact> 0.18570703E+05</totfact>
</mgrwt>
</event>
<event>
 7    1  0.3337990E-009  0.8949145E+02  0.7818608E-02  0.1304088E+00
         -2   -1    0    0    0  501 -0.00000000000E+00  0.00000000000E+00  0.34275589192E+01  0.34275598677E+01  0.25500000000E-02 0.  1.
          2   -1    0    0  501    0  0.00000000000E+00 -0.00000000000E+00 -0.58414151456E+03  0.58414151457E+03  0.25500000000E-02 0. -1.
         23    2    1    2    0    0 -0.71054273576E-14  0.00000000000E+00 -0.58071395564E+03  0.58756907444E+03  0.89491446264E+02 0.  0.
    9000005    2    3    3    0    0  0.38083088786E+02  0.12010955162E+02 -0.41930218406E+03  0.42129116039E+03  0.87940642256E+01 0.  0.
         22    1    3    3    0    0 -0.38083088786E+02 -0.12010955162E+02 -0.16141177158E+03  0.16627791405E+03  0.00000000000E+00 0.  1.
         22    1    4    4    0    0  0.22143160729E+02  0.11460104483E+02 -0.25942399389E+03  0.26061938180E+03  0.00000000000E+00 0. -1.
         22    1    4    4    0    0  0.15939928057E+02  0.55085067944E+00 -0.15987819017E+03  0.16067177859E+03  0.00000000000E+00 0. -1.
<mgrwt>
<rscale>  0 0.89491446E+02</rscale>
<asrwt>0</asrwt>
<pdfrwt beam="2">  1        2 0.89867846E-01 0.89491446E+02</pdfrwt>
<pdfrwt beam="1">  1       -2 0.52731729E-03 0.89491446E+02</pdfrwt>
<totfact> 0.23751429E+05</totfact>
</mgrwt>
</event>
<event>
 7    1  0.3337990E-009  0.9157785E+02  0.7818608E-02  0.1299075E+00
          2   -1    0    0  501    0  0.00000000000E+00  0.00000000000E+00  0.36942712159E+02  0.36942712248E+02  0.25500000000E-02 0.  1.
         -2   -1    0    0    0  501 -0.00000000000E+00 -0.00000000000E+00 -0.56753429452E+02  0.56753429510E+02  0.25500000000E-02 0. -1.
         23    2    1    2    0    0  0.17763568394E-14  0.00000000000E+00 -0.19810717293E+02  0.93696141757E+02  0.91577849181E+02 0.  0.
    9000005    2    3    3    0    0  0.12520677791E+02 -0.31675490333E+02 -0.41197996335E+02  0.53477740931E+02  0.15779141041E+01 0.  0.
         22    1    3    3    0    0 -0.12520677791E+02  0.31675490333E+02  0.21387279042E+02  0.40218400826E+02  0.00000000000E+00 0.  1.
         22    1    4    4    0    0  0.94395695897E+01 -0.24817040746E+02 -0.32961634503E+02  0.42325646298E+02  0.00000000000E+00 0.  1.
         22    1    4    4    0    0  0.30811082010E+01 -0.68584495873E+01 -0.82363618321E+01  0.11152094634E+02  0.00000000000E+00 0.  1.
<mgrwt>
<rscale>  0 0.91577849E+02</rscale>
<asrwt>0</asrwt>
<pdfrwt beam="1">  1        2 0.56834942E-02 0.91577849E+02</pdfrwt>
<pdfrwt beam="2">  1       -2 0.87312969E-02 0.91577849E+02</pdfrwt>
<totfact> 0.92253624E+04</totfact>
</mgrwt>
</event>
<event>
 7    1  0.3337990E-009  0.1090257E+03  0.7818608E-02  0.1262385E+00
         -2   -1    0    0    0  501 -0.00000000000E+00  0.00000000000E+00  0.14375942848E+02  0.14375943074E+02  0.25500000000E-02 0.  1.
          2   -1    0    0  501    0  0.00000000000E+00 -0.00000000000E+00 -0.20670981248E+03  0.20670981250E+03  0.25500000000E-02 0. -1.
         23    2    1    2    0    0  0.00000000000E+00  0.00000000000E+00 -0.19233386963E+03  0.22108575557E+03  0.10902565711E+03 0.  0.
    9000005    2    3    3    0    0  0.27990467626E+02 -0.27077617126E+02 -0.17228469822E+03  0.17728355356E+03  0.15191362442E+02 0.  0.
         22    1    3    3    0    0 -0.27990467626E+02  0.27077617126E+02 -0.20049171412E+02  0.43802202016E+02  0.00000000000E+00 0.  1.
         22    1    4    4    0    0  0.12027009771E+01 -0.16130689603E+01 -0.36594763256E+02  0.36650036546E+02  0.00000000000E+00 0. -1.
         22    1    4    4    0    0  0.26787766649E+02 -0.25464548165E+02 -0.13568993497E+03  0.14063351701E+03  0.00000000000E+00 0. -1.
<mgrwt>
<rscale>  0 0.10902566E+03</rscale>
<asrwt>0</asrwt>
<pdfrwt beam="2">  1        2 0.31801507E-01 0.10902566E+03</pdfrwt>
<pdfrwt beam="1">  1       -2 0.22116837E-02 0.10902566E+03</pdfrwt>
<totfact> 0.96251387E+04</totfact>
</mgrwt>
</event>
<event>
 7    1  0.3337990E-009  0.9170523E+02  0.7818608E-02  0.1298774E+00
          2   -1    0    0  501    0  0.00000000000E+00  0.00000000000E+00  0.13894265618E+03  0.13894265620E+03  0.25500000000E-02 0. -1.
         -2   -1    0    0    0  501 -0.00000000000E+00 -0.00000000000E+00 -0.15131869940E+02  0.15131870155E+02  0.25500000000E-02 0.  1.
         23    2    1    2    0    0  0.00000000000E+00  0.00000000000E+00  0.12381078624E+03  0.15407452636E+03  0.91705228221E+02 0.  0.
    9000005    2    3    3    0    0 -0.33282941130E+02  0.36663877382E+01  0.12851091063E+02  0.38172625930E+02  0.13069133849E+02 0.  0.
         22    1    3    3    0    0  0.33282941130E+02 -0.36663877382E+01  0.11095969517E+03  0.11590190043E+03  0.00000000000E+00 0. -1.
         22    1    4    4    0    0 -0.29774081273E+02  0.53284377085E+01  0.68306362355E+01  0.31008801258E+02  0.00000000000E+00 0.  1.
         22    1    4    4    0    0 -0.35088598563E+01 -0.16620499704E+01  0.60204548273E+01  0.71638246714E+01  0.00000000000E+00 0.  1.
<mgrwt>
<rscale>  0 0.91705228E+02</rscale>
<asrwt>0</asrwt>
<pdfrwt beam="1">  1        2 0.21375792E-01 0.91705228E+02</pdfrwt>
<pdfrwt beam="2">  1       -2 0.23279801E-02 0.91705228E+02</pdfrwt>
<totfact> 0.13411996E+05</totfact>
</mgrwt>
</event>
<event>
 7    1  0.3337990E-009  0.9082749E+02  0.7818608E-02  0.1300860E+00
         -2   -1    0    0    0  501 -0.00000000000E+00  0.00000000000E+00  0.27297106822E+02  0.27297106941E+02  0.25500000000E-02 0.  1.
          2   -1    0    0  501    0  0.00000000000E+00 -0.00000000000E+00 -0.75554098544E+02  0.75554098587E+02  0.25500000000E-02 0. -1.
         23    2    1    2    0    0 -0.22204460493E-15  0.00000000000E+00 -0.48256991722E+02  0.10285120553E+03  0.90827491590E+02 0.  0.
    9000005    2    3    3    0    0 -0.16185976334E+01 -0.31206641228E+02  0.11938062516E+02  0.35028503800E+02  0.10392517830E+02 0.  0.
         22    1    3    3    0    0  0.16185976334E+01  0.31206641228E+02 -0.60195054238E+02  0.67822701728E+02  0.00000000000E+00 0. -1.
         22    1    4    4    0    0 -0.21097524237E+01 -0.16374826264E+02  0.11612392425E+02  0.20184985715E+02  0.00000000000E+00 0.  1.
         22    1    4    4    0    0  0.49115479033E+00 -0.14831814964E+02  0.32567009070E+00  0.14843518086E+02  0.00000000000E+00 0.  1.
<mgrwt>
<rscale>  0 0.90827492E+02</rscale>
<asrwt>0</asrwt>
<pdfrwt beam="2">  1        2 0.11623707E-01 0.90827492E+02</pdfrwt>
<pdfrwt beam="1">  1       -2 0.41995549E-02 0.90827492E+02</pdfrwt>
<totfact> 0.11422084E+05</totfact>
</mgrwt>
</event>
<event>
 7    1  0.3337990E-009  0.9103006E+02  0.7818608E-02  0.1300376E+00
         -2   -1    0    0    0  501 -0.00000000000E+00  0.00000000000E+00  0.13041746145E+02  0.13041746395E+02  0.25500000000E-02 0.  1.
          2   -1    0    0  501    0  0.00000000000E+00 -0.00000000000E+00 -0.15884514754E+03  0.15884514756E+03  0.25500000000E-02 0. -1.
         23    2    1    2    0    0  0.00000000000E+00 -0.34694469520E-16 -0.14580340139E+03  0.17188689396E+03  0.91030063470E+02 0.  0.
    9000005    2    3    3    0    0 -0.39100161168E+02 -0.45636208005E-01 -0.33899991461E+02  0.53349145365E+02  0.12965230584E+02 0.  0.
         22    1    3    3    0    0  0.39100161168E+02  0.45636208005E-01 -0.11190340993E+03  0.11853774859E+03  0.00000000000E+00 0. -1.
         22    1    4    4    0    0 -0.33138760460E+02  0.26473891216E+01 -0.22297115982E+02  0.40029332934E+02  0.00000000000E+00 0. -1.
         22    1    4    4    0    0 -0.59614007079E+01 -0.26930253296E+01 -0.11602875479E+02  0.13319812431E+02  0.00000000000E+00 0. -1.
<mgrwt>
<rscale>  0 0.91030063E+02</rscale>
<asrwt>0</asrwt>
<pdfrwt beam="2">  1        2 0.24437714E-01 0.91030063E+02</pdfrwt>
<pdfrwt beam="1">  1       -2 0.20064226E-02 0.91030063E+02</pdfrwt>
<totfact> 0.14320397E+05</totfact>
</mgrwt>
</event>
<event>
 7    1  0.3337990E-009  0.9151231E+02  0.7818608E-02  0.1299230E+00
          2   -1    0    0  501    0  0.00000000000E+00  0.00000000000E+00  0.13806550685E+03  0.13806550688E+03  0.25500000000E-02 0. -1.
         -2   -1    0    0    0  501 -0.00000000000E+00 -0.00000000000E+00 -0.15164001173E+02  0.15164001388E+02  0.25500000000E-02 0.  1.
         23    2    1    2    0    0  0.00000000000E+00 -0.11102230246E-15  0.12290150568E+03  0.15322950826E+03  0.91512305755E+02 0.  0.
    9000005    2    3    3    0    0 -0.40700466323E+02  0.89156632618E+00  0.29886041868E+02  0.51695280747E+02  0.11041001021E+02 0.  0.
         22    1    3    3    0    0  0.40700466323E+02 -0.89156632618E+00  0.93015463811E+02  0.10153422752E+03  0.00000000000E+00 0. -1.
         22    1    4    4    0    0 -0.23526379909E+02  0.25055104914E+01  0.10919385144E+02  0.26057649671E+02  0.00000000000E+00 0. -1.
         22    1    4    4    0    0 -0.17174086415E+02 -0.16139441652E+01  0.18966656724E+02  0.25637631077E+02  0.00000000000E+00 0. -1.
<mgrwt>
<rscale>  0 0.91512306E+02</rscale>
<asrwt>0</asrwt>
<pdfrwt beam="1">  1        2 0.21240846E-01 0.91512306E+02</pdfrwt>
<pdfrwt beam="2">  1       -2 0.23329234E-02 0.91512306E+02</pdfrwt>
<totfact> 0.13460684E+05</totfact>
</mgrwt>
</event>
<event>
 7    1  0.3337990E-009  0.9112118E+02  0.7818608E-02  0.1300159E+00
          2   -1    0    0  501    0  0.00000000000E+00  0.00000000000E+00  0.15069785925E+03  0.15069785928E+03  0.25500000000E-02 0.  1.
         -2   -1    0    0    0  501 -0.00000000000E+00 -0.00000000000E+00 -0.13774366269E+02  0.13774366505E+02  0.25500000000E-02 0. -1.
         23    2    1    2    0    0  0.00000000000E+00  0.00000000000E+00  0.13692349299E+03  0.16447222578E+03  0.91121183717E+02 0.  0.
    9000005    2    3    3    0    0  0.19427193454E+02  0.22296945199E+02  0.13056228867E+03  0.13422268808E+03  0.97287801332E+01 0.  0.
         22    1    3    3    0    0 -0.19427193454E+02 -0.22296945199E+02  0.63612043179E+01  0.30249537700E+02  0.00000000000E+00 0. -1.
         22    1    4    4    0    0  0.13848241463E+02  0.20896298315E+02  0.11280912943E+03  0.11556093093E+03  0.00000000000E+00 0.  1.
         22    1    4    4    0    0  0.55789519909E+01  0.14006468839E+01  0.17753159237E+02  0.18661757149E+02  0.00000000000E+00 0.  1.
<mgrwt>
<rscale>  0 0.91121184E+02</rscale>
<asrwt>0</asrwt>
<pdfrwt beam="1">  1        2 0.23184284E-01 0.91121184E+02</pdfrwt>
<pdfrwt beam="2">  1       -2 0.21191335E-02 0.91121184E+02</pdfrwt>
<totfact> 0.14026312E+05</totfact>
</mgrwt>
</event>
<event>
 7    1  0.3337990E-009  0.9140359E+02  0.7818608E-02  0.1299488E+00
         -2   -1    0    0    0  501 -0.00000000000E+00  0.00000000000E+00  0.39718775505E+02  0.39718775587E+02  0.25500000000E-02 0.  1.
          2   -1    0    0  501    0  0.00000000000E+00 -0.00000000000E+00 -0.52586063081E+02  0.52586063142E+02  0.25500000000E-02 0. -1.
         23    2    1    2    0    0  0.00000000000E+00  0.00000000000E+00 -0.12867287576E+02  0.92304838729E+02  0.91403589444E+02 0.  0.
    9000005    2    3    3    0    0  0.22082110445E+02  0.36170480587E+02  0.98955044821E+01  0.44200078363E+02  0.77332173570E+01 0.  0.
         22    1    3    3    0    0 -0.22082110445E+02 -0.36170480587E+02 -0.22762792058E+02  0.48104760366E+02  0.00000000000E+00 0. -1.
         22    1    4    4    0    0  0.19330361652E+02  0.30604069310E+02  0.55489420441E+01  0.36620522904E+02  0.00000000000E+00 0. -1.
         22    1    4    4    0    0  0.27517487926E+01  0.55664112771E+01  0.43465624380E+01  0.75795554587E+01  0.00000000000E+00 0. -1.
<mgrwt>
<rscale>  0 0.91403589E+02</rscale>
<asrwt>0</asrwt>
<pdfrwt beam="2">  1        2 0.80901636E-02 0.91403589E+02</pdfrwt>
<pdfrwt beam="1">  1       -2 0.61105808E-02 0.91403589E+02</pdfrwt>
<totfact> 0.10170076E+05</totfact>
</mgrwt>
</event>
<event>
 7    1  0.3337990E-009  0.9145457E+02  0.7818608E-02  0.1299367E+00
          2   -1    0    0  501    0  0.00000000000E+00  0.00000000000E+00  0.23403306885E+02  0.23403307024E+02  0.25500000000E-02 0. -1.
         -2   -1    0    0    0  501 -0.00000000000E+00 -0.00000000000E+00 -0.89345689297E+02  0.89345689333E+02  0.25500000000E-02 0.  1.
         23    2    1    2    0    0  0.00000000000E+00 -0.35527136788E-14 -0.65942382411E+02  0.11274899636E+03  0.91454570042E+02 0.  0.
    9000005    2    3    3    0    0 -0.33580988199E+02  0.28104809896E+02 -0.43580659921E+02  0.63579801322E+02  0.15018458951E+02 0.  0.
         22    1    3    3    0    0  0.33580988199E+02 -0.28104809896E+02 -0.22361722491E+02  0.49169195036E+02  0.00000000000E+00 0.  1.
         22    1    4    4    0    0 -0.49938012515E+01  0.12785687201E+02 -0.10796158863E+02  0.17463358621E+02  0.00000000000E+00 0.  1.
         22    1    4    4    0    0 -0.28587186948E+02  0.15319122694E+02 -0.32784501058E+02  0.46116442700E+02  0.00000000000E+00 0.  1.
<mgrwt>
<rscale>  0 0.91454570E+02</rscale>
<asrwt>0</asrwt>
<pdfrwt beam="1">  1        2 0.36005088E-02 0.91454570E+02</pdfrwt>
<pdfrwt beam="2">  1       -2 0.13745491E-01 0.91454570E+02</pdfrwt>
<totfact> 0.81858090E+04</totfact>
</mgrwt>
</event>
<event>
 7    1  0.3337990E-009  0.9015543E+02  0.7818608E-02  0.1302476E+00
         -2   -1    0    0    0  501 -0.00000000000E+00  0.00000000000E+00  0.28539071426E+03  0.28539071427E+03  0.25500000000E-02 0.  1.
          2   -1    0    0  501    0  0.00000000000E+00 -0.00000000000E+00 -0.71200641815E+01  0.71200646381E+01  0.25500000000E-02 0. -1.
         23    2    1    2    0    0  0.00000000000E+00  0.71054273576E-14  0.27827065008E+03  0.29251077891E+03  0.90155427364E+02 0.  0.
    9000005    2    3    3    0    0 -0.37875429970E+01 -0.37680941789E+02  0.21425459606E+03  0.21813165530E+03  0.15562398830E+02 0.  0.
         22    1    3    3    0    0  0.37875429970E+01  0.37680941789E+02  0.64016054021E+02  0.74379123607E+02  0.00000000000E+00 0. -1.
         22    1    4    4    0    0 -0.12819673743E+01 -0.10041578649E+02  0.27070204855E+02  0.28901085326E+02  0.00000000000E+00 0. -1.
         22    1    4    4    0    0 -0.25055756226E+01 -0.27639363140E+02  0.18718439120E+03  0.18923056998E+03  0.00000000000E+00 0. -1.
<mgrwt>
<rscale>  0 0.90155427E+02</rscale>
<asrwt>0</asrwt>
<pdfrwt beam="2">  1        2 0.10953948E-02 0.90155427E+02</pdfrwt>
<pdfrwt beam="1">  1       -2 0.43906255E-01 0.90155427E+02</pdfrwt>
<totfact> 0.53970333E+04</totfact>
</mgrwt>
</event>
<event>
 7    1  0.3337990E-009  0.9112503E+02  0.7818608E-02  0.1300150E+00
          2   -1    0    0  501    0  0.00000000000E+00  0.00000000000E+00  0.33937758006E+03  0.33937758007E+03  0.25500000000E-02 0. -1.
         -2   -1    0    0    0  501 -0.00000000000E+00 -0.00000000000E+00 -0.61169119901E+01  0.61169125216E+01  0.25500000000E-02 0.  1.
         23    2    1    2    0    0  0.00000000000E+00 -0.17763568394E-14  0.33326066807E+03  0.34549449259E+03  0.91125032392E+02 0.  0.
    9000005    2    3    3    0    0 -0.38882820117E+02  0.14198937161E+02  0.10371655885E+03  0.11224788148E+03  0.11356883403E+02 0.  0.
         22    1    3    3    0    0  0.38882820117E+02 -0.14198937161E+02  0.22954410922E+03  0.23324661111E+03  0.00000000000E+00 0. -1.
         22    1    4    4    0    0 -0.18488084799E+01 -0.13241531524E+01  0.10611471951E+02  0.10852410393E+02  0.00000000000E+00 0. -1.
         22    1    4    4    0    0 -0.37034011637E+02  0.15523090313E+02  0.93105086899E+02  0.10139547109E+03  0.00000000000E+00 0. -1.
<mgrwt>
<rscale>  0 0.91125032E+02</rscale>
<asrwt>0</asrwt>
<pdfrwt beam="1">  1        2 0.52211942E-01 0.91125032E+02</pdfrwt>
<pdfrwt beam="2">  1       -2 0.94106331E-03 0.91125032E+02</pdfrwt>
<totfact> 0.18834327E+05</totfact>
</mgrwt>
</event>
<event>
 7    1  0.3337990E-009  0.8977717E+02  0.7818608E-02  0.1303392E+00
          2   -1    0    0  501    0  0.00000000000E+00  0.00000000000E+00  0.14809389254E+02  0.14809389474E+02  0.25500000000E-02 0. -1.
         -2   -1    0    0    0  501 -0.00000000000E+00 -0.00000000000E+00 -0.13606132034E+03  0.13606132036E+03  0.25500000000E-02 0.  1.
         23    2    1    2    0    0  0.00000000000E+00  0.00000000000E+00 -0.12125193109E+03  0.15087070984E+03  0.89777170232E+02 0.  0.
    9000005    2    3    3    0    0  0.39617870892E+02 -0.16341864009E+02 -0.80824837778E+02  0.91955668578E+02  0.93036750015E+01 0.  0.
         22    1    3    3    0    0 -0.39617870892E+02  0.16341864009E+02 -0.40427093307E+02  0.58915041259E+02  0.00000000000E+00 0. -1.
         22    1    4    4    0    0  0.47033866050E+01 -0.52276238577E+01 -0.10159067696E+02  0.12355426064E+02  0.00000000000E+00 0. -1.
         22    1    4    4    0    0  0.34914484287E+02 -0.11114240152E+02 -0.70665770082E+02  0.79600242515E+02  0.00000000000E+00 0. -1.
<mgrwt>
<rscale>  0 0.89777170E+02</rscale>
<asrwt>0</asrwt>
<pdfrwt beam="1">  1        2 0.22783677E-02 0.89777170E+02</pdfrwt>
<pdfrwt beam="2">  1       -2 0.20932510E-01 0.89777170E+02</pdfrwt>
<totfact> 0.75189707E+04</totfact>
</mgrwt>
</event>
<event>
 7    1  0.3337990E-009  0.8993720E+02  0.7818608E-02  0.1303004E+00
          2   -1    0    0  501    0  0.00000000000E+00  0.00000000000E+00  0.22061505672E+03  0.22061505673E+03  0.25500000000E-02 0.  1.
         -2   -1    0    0    0  501 -0.00000000000E+00 -0.00000000000E+00 -0.91660788820E+01  0.91660792367E+01  0.25500000000E-02 0. -1.
         23    2    1    2    0    0  0.00000000000E+00  0.00000000000E+00  0.21144897783E+03  0.22978113597E+03  0.89937201532E+02 0.  0.
    9000005    2    3    3    0    0 -0.54124723544E+01 -0.23672933120E+02  0.20205258338E+03  0.20374280176E+03  0.98071504476E+01 0.  0.
         22    1    3    3    0    0  0.54124723544E+01  0.23672933120E+02  0.93963944557E+01  0.26038334207E+02  0.00000000000E+00 0. -1.
         22    1    4    4    0    0 -0.53327150406E+01 -0.11025446919E+02  0.13118315182E+03  0.13175362481E+03  0.00000000000E+00 0.  1.
         22    1    4    4    0    0 -0.79757313805E-01 -0.12647486201E+02  0.70869431554E+02  0.71989176945E+02  0.00000000000E+00 0.  1.
<mgrwt>
<rscale>  0 0.89937202E+02</rscale>
<asrwt>0</asrwt>
<pdfrwt beam="1">  1        2 0.33940779E-01 0.89937202E+02</pdfrwt>
<pdfrwt beam="2">  1       -2 0.14101660E-02 0.89937202E+02</pdfrwt>
<totfact> 0.16629943E+05</totfact>
</mgrwt>
</event>
<event>
 7    1  0.3337990E-009  0.9225506E+02  0.7818608E-02  0.1297481E+00
          2   -1    0    0  501    0  0.00000000000E+00  0.00000000000E+00  0.24536312484E+03  0.24536312485E+03  0.25500000000E-02 0. -1.
         -2   -1    0    0    0  501 -0.00000000000E+00 -0.00000000000E+00 -0.86718367367E+01  0.86718371116E+01  0.25500000000E-02 0.  1.
         23    2    1    2    0    0  0.00000000000E+00  0.00000000000E+00  0.23669128810E+03  0.25403496196E+03  0.92255059679E+02 0.  0.
    9000005    2    3    3    0    0 -0.16498333529E+02 -0.34178934708E+02  0.18962038755E+03  0.19356956470E+03  0.85375885300E+01 0.  0.
         22    1    3    3    0    0  0.16498333529E+02  0.34178934708E+02  0.47070900551E+02  0.60465397259E+02  0.00000000000E+00 0.  1.
         22    1    4    4    0    0 -0.99033093627E+01 -0.20930092894E+02  0.93952011845E+02  0.96763241236E+02  0.00000000000E+00 0. -1.
         22    1    4    4    0    0 -0.65950241667E+01 -0.13248841814E+02  0.95668375703E+02  0.96806323465E+02  0.00000000000E+00 0. -1.
<mgrwt>
<rscale>  0 0.92255060E+02</rscale>
<asrwt>0</asrwt>
<pdfrwt beam="1">  1        2 0.37748170E-01 0.92255060E+02</pdfrwt>
<pdfrwt beam="2">  1       -2 0.13341289E-02 0.92255060E+02</pdfrwt>
<totfact> 0.16152634E+05</totfact>
</mgrwt>
</event>
<event>
 7    1  0.3337990E-009  0.9118764E+02  0.7818608E-02  0.1300001E+00
          2   -1    0    0  501    0  0.00000000000E+00  0.00000000000E+00  0.22544538610E+03  0.22544538612E+03  0.25500000000E-02 0.  1.
         -2   -1    0    0    0  501 -0.00000000000E+00 -0.00000000000E+00 -0.92208416612E+01  0.92208420138E+01  0.25500000000E-02 0. -1.
         23    2    1    2    0    0 -0.17763568394E-14  0.71054273576E-14  0.21622454444E+03  0.23466622813E+03  0.91187636258E+02 0.  0.
    9000005    2    3    3    0    0 -0.10828011898E+02  0.41974873435E+02  0.13534780236E+03  0.14290467163E+03  0.14952649559E+02 0.  0.
         22    1    3    3    0    0  0.10828011898E+02 -0.41974873435E+02  0.80876742083E+02  0.91761556501E+02  0.00000000000E+00 0.  1.
         22    1    4    4    0    0 -0.75964218525E+01  0.61753094498E+01  0.33426574320E+02  0.34830675309E+02  0.00000000000E+00 0.  1.
         22    1    4    4    0    0 -0.32315900456E+01  0.35799563985E+02  0.10192122804E+03  0.10807399632E+03  0.00000000000E+00 0.  1.
<mgrwt>
<rscale>  0 0.91187636E+02</rscale>
<asrwt>0</asrwt>
<pdfrwt beam="1">  1        2 0.34683904E-01 0.91187636E+02</pdfrwt>
<pdfrwt beam="2">  1       -2 0.14185911E-02 0.91187636E+02</pdfrwt>
<totfact> 0.16153101E+05</totfact>
</mgrwt>
</event>
<event>
 7    1  0.3337990E-009  0.9030419E+02  0.7818608E-02  0.1302117E+00
          2   -1    0    0  501    0  0.00000000000E+00  0.00000000000E+00  0.56980370211E+01  0.56980375917E+01  0.25500000000E-02 0. -1.
         -2   -1    0    0    0  501 -0.00000000000E+00 -0.00000000000E+00 -0.35779191806E+03  0.35779191807E+03  0.25500000000E-02 0.  1.
         23    2    1    2    0    0  0.00000000000E+00  0.00000000000E+00 -0.35209388104E+03  0.36348995566E+03  0.90304190385E+02 0.  0.
    9000005    2    3    3    0    0 -0.24856265751E+02  0.32632874653E+02 -0.11776077536E+03  0.12559345952E+03  0.14945849174E+02 0.  0.
         22    1    3    3    0    0  0.24856265751E+02 -0.32632874653E+02 -0.23433310568E+03  0.23789649613E+03  0.00000000000E+00 0. -1.
         22    1    4    4    0    0 -0.25034020843E+02  0.31206990151E+02 -0.99006257621E+02  0.10678397577E+03  0.00000000000E+00 0. -1.
         22    1    4    4    0    0  0.17775509135E+00  0.14258845015E+01 -0.18754517736E+02  0.18809483751E+02  0.00000000000E+00 0. -1.
<mgrwt>
<rscale>  0 0.90304190E+02</rscale>
<asrwt>0</asrwt>
<pdfrwt beam="1">  1        2 0.87662141E-03 0.90304190E+02</pdfrwt>
<pdfrwt beam="2">  1       -2 0.55044893E-01 0.90304190E+02</pdfrwt>
<totfact> 0.47071800E+04</totfact>
</mgrwt>
</event>
<event>
 7    1  0.3337990E-009  0.8330113E+02  0.7818608E-02  0.1319936E+00
         -2   -1    0    0    0  501 -0.00000000000E+00  0.00000000000E+00  0.64587966961E+01  0.64587971995E+01  0.25500000000E-02 0.  1.
          2   -1    0    0  501    0  0.00000000000E+00 -0.00000000000E+00 -0.26859017515E+03  0.26859017516E+03  0.25500000000E-02 0. -1.
         23    2    1    2    0    0  0.00000000000E+00  0.00000000000E+00 -0.26213137845E+03  0.27504897236E+03  0.83301126204E+02 0.  0.
    9000005    2    3    3    0    0  0.34359950100E+02 -0.27081897778E+01 -0.20597660608E+03  0.20916043829E+03  0.11566599632E+02 0.  0.
         22    1    3    3    0    0 -0.34359950100E+02  0.27081897778E+01 -0.56154772365E+02  0.65888534072E+02  0.00000000000E+00 0.  1.
         22    1    4    4    0    0  0.55405749353E+00  0.10070312247E+01 -0.24352096970E+02  0.24379206681E+02  0.00000000000E+00 0.  1.
         22    1    4    4    0    0  0.33805892606E+02 -0.37152210025E+01 -0.18162450911E+03  0.18478123160E+03  0.00000000000E+00 0.  1.
<mgrwt>
<rscale>  0 0.83301126E+02</rscale>
<asrwt>0</asrwt>
<pdfrwt beam="2">  1        2 0.41321557E-01 0.83301126E+02</pdfrwt>
<pdfrwt beam="1">  1       -2 0.99366128E-03 0.83301126E+02</pdfrwt>
<totfact> 0.21921353E+05</totfact>
</mgrwt>
</event>
<event>
 7    1  0.3391485E-009  0.8994240E+02  0.7818608E-02  0.1302991E+00
         -2   -1    0    0    0  501 -0.00000000000E+00  0.00000000000E+00  0.78691289563E+01  0.78691293694E+01  0.25500000000E-02 0.  1.
          2   -1    0    0  501    0  0.00000000000E+00 -0.00000000000E+00 -0.25700539334E+03  0.25700539335E+03  0.25500000000E-02 0. -1.
         23    2    1    2    0    0 -0.71054273576E-14  0.00000000000E+00 -0.24913626438E+03  0.26487452272E+03  0.89942395766E+02 0.  0.
    9000005    2    3    3    0    0 -0.43079553715E+02  0.42120111008E+01 -0.10452702169E+03  0.11392611412E+03  0.13404187040E+02 0.  0.
         22    1    3    3    0    0  0.43079553715E+02 -0.42120111008E+01 -0.14460924269E+03  0.15094840860E+03  0.00000000000E+00 0.  1.
         22    1    4    4    0    0 -0.19414289585E+01  0.20720139080E+01 -0.16433296190E+02  0.16676798605E+02  0.00000000000E+00 0. -1.
         22    1    4    4    0    0 -0.41138124756E+02  0.21399971927E+01 -0.88093725498E+02  0.97249315517E+02  0.00000000000E+00 0. -1.
<mgrwt>
<rscale>  0 0.89942396E+02</rscale>
<asrwt>0</asrwt>
<pdfrwt beam="2">  1        2 0.39539285E-01 0.89942396E+02</pdfrwt>
<pdfrwt beam="1">  1       -2 0.12106355E-02 0.89942396E+02</pdfrwt>
<totfact> 0.17588120E+05</totfact>
</mgrwt>
</event>
<event>
 7    1  0.3337990E-009  0.9114231E+02  0.7818608E-02  0.1300109E+00
         -2   -1    0    0    0  501 -0.00000000000E+00  0.00000000000E+00  0.19323972873E+01  0.19323989698E+01  0.25500000000E-02 0.  1.
          2   -1    0    0  501    0  0.00000000000E+00 -0.00000000000E+00 -0.10746907331E+04  0.10746907331E+04  0.25500000000E-02 0. -1.
         23    2    1    2    0    0  0.00000000000E+00  0.00000000000E+00 -0.10727583358E+04  0.10766231320E+04  0.91142314314E+02 0.  0.
    9000005    2    3    3    0    0  0.16417757942E+02  0.23221361352E+02 -0.95684422999E+03  0.95727132301E+03  0.29548238267E+01 0.  0.
         22    1    3    3    0    0 -0.16417757942E+02 -0.23221361352E+02 -0.11591410579E+03  0.11935180904E+03  0.00000000000E+00 0.  1.
         22    1    4    4    0    0  0.15709651982E+02  0.22500572484E+02 -0.93654623610E+03  0.93694819563E+03  0.00000000000E+00 0. -1.
         22    1    4    4    0    0  0.70810595997E+00  0.72078886812E+00 -0.20297993889E+02  0.20323127382E+02  0.00000000000E+00 0. -1.
<mgrwt>
<rscale>  0 0.91142314E+02</rscale>
<asrwt>0</asrwt>
<pdfrwt beam="2">  1        2 0.16533656E+00 0.91142314E+02</pdfrwt>
<pdfrwt beam="1">  1       -2 0.29729288E-03 0.91142314E+02</pdfrwt>
<totfact> 0.25056226E+05</totfact>
</mgrwt>
</event>
<event>
 7    1  0.3337990E-009  0.8886565E+02  0.7818608E-02  0.1305622E+00
         -2   -1    0    0    0  501 -0.00000000000E+00  0.00000000000E+00  0.47313675175E+02  0.47313675243E+02  0.25500000000E-02 0.  1.
          2   -1    0    0  501    0  0.00000000000E+00 -0.00000000000E+00 -0.41727389075E+02  0.41727389153E+02  0.25500000000E-02 0. -1.
         23    2    1    2    0    0  0.00000000000E+00  0.00000000000E+00  0.55862861000E+01  0.89041064396E+02  0.88865654537E+02 0.  0.
    9000005    2    3    3    0    0 -0.14918929923E+02  0.25318471257E+02  0.35105117129E+02  0.47388203244E+02  0.12234095850E+02 0.  0.
         22    1    3    3    0    0  0.14918929923E+02 -0.25318471257E+02 -0.29518831029E+02  0.41652861152E+02  0.00000000000E+00 0. -1.
         22    1    4    4    0    0 -0.10291111797E+01  0.88877229099E+01  0.46033605207E+01  0.10061889307E+02  0.00000000000E+00 0.  1.
         22    1    4    4    0    0 -0.13889818744E+02  0.16430748347E+02  0.30501756608E+02  0.37326313937E+02  0.00000000000E+00 0.  1.
<mgrwt>
<rscale>  0 0.88865655E+02</rscale>
<asrwt>0</asrwt>
<pdfrwt beam="2">  1        2 0.64195984E-02 0.88865655E+02</pdfrwt>
<pdfrwt beam="1">  1       -2 0.72790269E-02 0.88865655E+02</pdfrwt>
<totfact> 0.10383246E+05</totfact>
</mgrwt>
</event>
<event>
 7    1  0.3337990E-009  0.9255312E+02  0.7818608E-02  0.1296784E+00
          2   -1    0    0  501    0  0.00000000000E+00  0.00000000000E+00  0.39239827805E+02  0.39239827888E+02  0.25500000000E-02 0. -1.
         -2   -1    0    0    0  501 -0.00000000000E+00 -0.00000000000E+00 -0.54575159175E+02  0.54575159235E+02  0.25500000000E-02 0.  1.
         23    2    1    2    0    0  0.00000000000E+00  0.00000000000E+00 -0.15335331370E+02  0.93814987123E+02  0.92553116753E+02 0.  0.
    9000005    2    3    3    0    0 -0.27870934955E+02 -0.35753998814E+02 -0.10775847339E+02  0.48252652447E+02  0.12532443330E+02 0.  0.
         22    1    3    3    0    0  0.27870934955E+02  0.35753998814E+02 -0.45594840317E+01  0.45562334676E+02  0.00000000000E+00 0.  1.
         22    1    4    4    0    0 -0.51490974827E+01 -0.23781063814E+01  0.18213559431E+01  0.59570069933E+01  0.00000000000E+00 0.  1.
         22    1    4    4    0    0 -0.22721837473E+02 -0.33375892433E+02 -0.12597203282E+02  0.42295645454E+02  0.00000000000E+00 0.  1.
<mgrwt>
<rscale>  0 0.92553117E+02</rscale>
<asrwt>0</asrwt>
<pdfrwt beam="1">  1        2 0.60368966E-02 0.92553117E+02</pdfrwt>
<pdfrwt beam="2">  1       -2 0.83961783E-02 0.92553117E+02</pdfrwt>
<totfact> 0.90868864E+04</totfact>
</mgrwt>
</event>
<event>
 7    1  0.3337990E-009  0.9063236E+02  0.7818608E-02  0.1301328E+00
         -2   -1    0    0    0  501 -0.00000000000E+00  0.00000000000E+00  0.38785760583E+02  0.38785760666E+02  0.25500000000E-02 0.  1.
          2   -1    0    0  501    0  0.00000000000E+00 -0.00000000000E+00 -0.52946132182E+02  0.52946132243E+02  0.25500000000E-02 0. -1.
         23    2    1    2    0    0  0.00000000000E+00  0.35527136788E-14 -0.14160371599E+02  0.91731892910E+02  0.90632356545E+02 0.  0.
    9000005    2    3    3    0    0 -0.35954758958E+02 -0.26687891364E+02 -0.72251846361E+01  0.46420911289E+02  0.98848103009E+01 0.  0.
         22    1    3    3    0    0  0.35954758958E+02  0.26687891364E+02 -0.69351869630E+01  0.45310981620E+02  0.00000000000E+00 0. -1.
         22    1    4    4    0    0 -0.20581223698E+02 -0.19973262048E+02 -0.74952057857E+01  0.29642808158E+02  0.00000000000E+00 0.  1.
         22    1    4    4    0    0 -0.15373535260E+02 -0.67146293167E+01  0.27002114962E+00  0.16778103131E+02  0.00000000000E+00 0.  1.
<mgrwt>
<rscale>  0 0.90632357E+02</rscale>
<asrwt>0</asrwt>
<pdfrwt beam="2">  1        2 0.81455588E-02 0.90632357E+02</pdfrwt>
<pdfrwt beam="1">  1       -2 0.59670401E-02 0.90632357E+02</pdfrwt>
<totfact> 0.10436544E+05</totfact>
</mgrwt>
</event>
<event>
 7    1  0.3337990E-009  0.9700464E+02  0.7818608E-02  0.1286724E+00
         -2   -1    0    0    0  501 -0.00000000000E+00  0.00000000000E+00  0.16392945869E+02  0.16392946067E+02  0.25500000000E-02 0.  1.
          2   -1    0    0  501    0  0.00000000000E+00 -0.00000000000E+00 -0.14350531132E+03  0.14350531134E+03  0.25500000000E-02 0. -1.
         23    2    1    2    0    0  0.00000000000E+00  0.00000000000E+00 -0.12711236545E+03  0.15989825741E+03  0.97004635312E+02 0.  0.
    9000005    2    3    3    0    0 -0.44282932773E+02  0.16201699640E+02 -0.52992574994E+02  0.72050567949E+02  0.12633215390E+02 0.  0.
         22    1    3    3    0    0  0.44282932773E+02 -0.16201699640E+02 -0.74119790456E+02  0.87847689460E+02  0.00000000000E+00 0. -1.
         22    1    4    4    0    0 -0.18391376673E+02  0.43519927573E+01 -0.12927098217E+02  0.22897433157E+02  0.00000000000E+00 0.  1.
         22    1    4    4    0    0 -0.25891556100E+02  0.11849706883E+02 -0.40065476777E+02  0.49153134792E+02  0.00000000000E+00 0.  1.
<mgrwt>
<rscale>  0 0.97004635E+02</rscale>
<asrwt>0</asrwt>
<pdfrwt beam="2">  1        2 0.22077739E-01 0.97004635E+02</pdfrwt>
<pdfrwt beam="1">  1       -2 0.25219918E-02 0.97004635E+02</pdfrwt>
<totfact> 0.11629186E+05</totfact>
</mgrwt>
</event>
<event>
 7    1  0.3337990E-009  0.9336534E+02  0.7818608E-02  0.1294901E+00
          2   -1    0    0  501    0  0.00000000000E+00  0.00000000000E+00  0.33896576922E+03  0.33896576923E+03  0.25500000000E-02 0. -1.
         -2   -1    0    0    0  501 -0.00000000000E+00 -0.00000000000E+00 -0.64291787847E+01  0.64291792904E+01  0.25500000000E-02 0.  1.
         23    2    1    2    0    0  0.35527136788E-14  0.88817841970E-15  0.33253659044E+03  0.34539494852E+03  0.93365338777E+02 0.  0.
    9000005    2    3    3    0    0 -0.20059686490E+02  0.55070378387E+01  0.32035043354E+03  0.32128642497E+03  0.12955621027E+02 0.  0.
         22    1    3    3    0    0  0.20059686490E+02 -0.55070378387E+01  0.12186156903E+02  0.24108523552E+02  0.00000000000E+00 0.  1.
         22    1    4    4    0    0 -0.19198140204E+02  0.15589651685E+01  0.29374898580E+03  0.29437979825E+03  0.00000000000E+00 0.  1.
         22    1    4    4    0    0 -0.86154628517E+00  0.39480726702E+01  0.26601447736E+02  0.26906626720E+02  0.00000000000E+00 0.  1.
<mgrwt>
<rscale>  0 0.93365339E+02</rscale>
<asrwt>0</asrwt>
<pdfrwt beam="1">  1        2 0.52148580E-01 0.93365339E+02</pdfrwt>
<pdfrwt beam="2">  1       -2 0.98910447E-03 0.93365339E+02</pdfrwt>
<totfact> 0.17645101E+05</totfact>
</mgrwt>
</event>
<event>
 7    1  0.3337990E-009  0.8884897E+02  0.7818608E-02  0.1305663E+00
          2   -1    0    0  501    0  0.00000000000E+00  0.00000000000E+00  0.11600931001E+02  0.11600931281E+02  0.25500000000E-02 0. -1.
         -2   -1    0    0    0  501 -0.00000000000E+00 -0.00000000000E+00 -0.17011867918E+03  0.17011867920E+03  0.25500000000E-02 0.  1.
         23    2    1    2    0    0  0.00000000000E+00 -0.22204460493E-15 -0.15851774818E+03  0.18171961048E+03  0.88848974925E+02 0.  0.
    9000005    2    3    3    0    0 -0.19709562161E+02  0.18505944263E+01 -0.16021955763E+03  0.16185034538E+03  0.11547125615E+02 0.  0.
         22    1    3    3    0    0  0.19709562161E+02 -0.18505944263E+01  0.17018094548E+01  0.19869265103E+02  0.00000000000E+00 0. -1.
         22    1    4    4    0    0 -0.16192474852E+02 -0.18135486573E+01 -0.91193134216E+02  0.92637319309E+02  0.00000000000E+00 0. -1.
         22    1    4    4    0    0 -0.35170873093E+01  0.36641430836E+01 -0.69026423418E+02  0.69213026069E+02  0.00000000000E+00 0. -1.
<mgrwt>
<rscale>  0 0.88848975E+02</rscale>
<asrwt>0</asrwt>
<pdfrwt beam="1">  1        2 0.17847588E-02 0.88848975E+02</pdfrwt>
<pdfrwt beam="2">  1       -2 0.26172103E-01 0.88848975E+02</pdfrwt>
<totfact> 0.71136913E+04</totfact>
</mgrwt>
</event>
<event>
 7    1  0.3337990E-009  0.9059420E+02  0.7818608E-02  0.1301419E+00
          2   -1    0    0  501    0  0.00000000000E+00  0.00000000000E+00  0.24924021363E+02  0.24924021493E+02  0.25500000000E-02 0.  1.
         -2   -1    0    0    0  501 -0.00000000000E+00 -0.00000000000E+00 -0.82323274781E+02  0.82323274820E+02  0.25500000000E-02 0. -1.
         23    2    1    2    0    0  0.88817841970E-15  0.35527136788E-14 -0.57399253418E+02  0.10724729631E+03  0.90594195585E+02 0.  0.
    9000005    2    3    3    0    0  0.61839876070E+01  0.30489478334E+02 -0.66994707732E+02  0.74690841727E+02  0.11071629596E+02 0.  0.
         22    1    3    3    0    0 -0.61839876070E+01 -0.30489478334E+02  0.95954543145E+01  0.32556454587E+02  0.00000000000E+00 0.  1.
         22    1    4    4    0    0  0.45945251449E+01  0.90204060258E+01 -0.32401528096E+02  0.33946080909E+02  0.00000000000E+00 0.  1.
         22    1    4    4    0    0  0.15894624621E+01  0.21469072308E+02 -0.34593179637E+02  0.40744760817E+02  0.00000000000E+00 0.  1.
<mgrwt>
<rscale>  0 0.90594196E+02</rscale>
<asrwt>0</asrwt>
<pdfrwt beam="1">  1        2 0.38344649E-02 0.90594196E+02</pdfrwt>
<pdfrwt beam="2">  1       -2 0.12665119E-01 0.90594196E+02</pdfrwt>
<totfact> 0.85747718E+04</totfact>
</mgrwt>
</event>
<event>
 7    1  0.3337990E-009  0.9130108E+02  0.7818608E-02  0.1299731E+00
         -2   -1    0    0    0  501 -0.00000000000E+00  0.00000000000E+00  0.57824540459E+02  0.57824540515E+02  0.25500000000E-02 0.  1.
          2   -1    0    0  501    0  0.00000000000E+00 -0.00000000000E+00 -0.36039576468E+02  0.36039576558E+02  0.25500000000E-02 0. -1.
         23    2    1    2    0    0  0.00000000000E+00  0.00000000000E+00  0.21784963991E+02  0.93864117074E+02  0.91301083334E+02 0.  0.
    9000005    2    3    3    0    0 -0.35967240087E+02 -0.19346329581E+02  0.29813489206E+02  0.52242247283E+02  0.13133371039E+02 0.  0.
         22    1    3    3    0    0  0.35967240087E+02  0.19346329581E+02 -0.80285252149E+01  0.41621869790E+02  0.00000000000E+00 0. -1.
         22    1    4    4    0    0 -0.18056377160E+02 -0.25848341735E+01  0.14729955072E+02  0.23445376949E+02  0.00000000000E+00 0.  1.
         22    1    4    4    0    0 -0.17910862927E+02 -0.16761495407E+02  0.15083534134E+02  0.28796870334E+02  0.00000000000E+00 0.  1.
<mgrwt>
<rscale>  0 0.91301083E+02</rscale>
<asrwt>0</asrwt>
<pdfrwt beam="2">  1        2 0.55445502E-02 0.91301083E+02</pdfrwt>
<pdfrwt beam="1">  1       -2 0.88960832E-02 0.91301083E+02</pdfrwt>
<totfact> 0.92474900E+04</totfact>
</mgrwt>
</event>
<event>
 7    1  0.3337990E-009  0.9148428E+02  0.7818608E-02  0.1299297E+00
         -2   -1    0    0    0  501 -0.00000000000E+00  0.00000000000E+00  0.22881996772E+02  0.22881996914E+02  0.25500000000E-02 0.  1.
          2   -1    0    0  501    0  0.00000000000E+00 -0.00000000000E+00 -0.91440588753E+02  0.91440588788E+02  0.25500000000E-02 0. -1.
         23    2    1    2    0    0  0.00000000000E+00  0.00000000000E+00 -0.68558591981E+02  0.11432258570E+03  0.91484277706E+02 0.  0.
    9000005    2    3    3    0    0  0.61984809765E+01 -0.35692765355E+02 -0.94935183656E+00  0.37619234941E+02  0.10095093043E+02 0.  0.
         22    1    3    3    0    0 -0.61984809765E+01  0.35692765355E+02 -0.67609240144E+02  0.76703350761E+02  0.00000000000E+00 0. -1.
         22    1    4    4    0    0  0.23222734171E+01 -0.23882769363E+02 -0.50680592584E+01  0.24524780344E+02  0.00000000000E+00 0. -1.
         22    1    4    4    0    0  0.38762075594E+01 -0.11809995992E+02  0.41187074219E+01  0.13094454597E+02  0.00000000000E+00 0. -1.
<mgrwt>
<rscale>  0 0.91484278E+02</rscale>
<asrwt>0</asrwt>
<pdfrwt beam="2">  1        2 0.14067783E-01 0.91484278E+02</pdfrwt>
<pdfrwt beam="1">  1       -2 0.35203073E-02 0.91484278E+02</pdfrwt>
<totfact> 0.11831214E+05</totfact>
</mgrwt>
</event>
<event>
 7    1  0.3337990E-009  0.9035309E+02  0.7818608E-02  0.1301999E+00
         -2   -1    0    0    0  501 -0.00000000000E+00  0.00000000000E+00  0.29967882711E+02  0.29967882820E+02  0.25500000000E-02 0. -1.
          2   -1    0    0  501    0  0.00000000000E+00 -0.00000000000E+00 -0.68103590421E+02  0.68103590469E+02  0.25500000000E-02 0.  1.
         23    2    1    2    0    0  0.00000000000E+00  0.00000000000E+00 -0.38135707710E+02  0.98071473288E+02  0.90353094415E+02 0.  0.
    9000005    2    3    3    0    0  0.16370306243E+02 -0.25048220282E+02  0.17113101837E+02  0.35239704077E+02  0.73197146914E+01 0.  0.
         22    1    3    3    0    0 -0.16370306243E+02  0.25048220282E+02 -0.55248809547E+02  0.62831769211E+02  0.00000000000E+00 0.  1.
         22    1    4    4    0    0  0.52639239521E+00 -0.26077168476E+01  0.39910005922E+01  0.47963905010E+01  0.00000000000E+00 0.  1.
         22    1    4    4    0    0  0.15843913848E+02 -0.22440503434E+02  0.13122101245E+02  0.30443313576E+02  0.00000000000E+00 0.  1.
<mgrwt>
<rscale>  0 0.90353094E+02</rscale>
<asrwt>0</asrwt>
<pdfrwt beam="2">  1        2 0.10477475E-01 0.90353094E+02</pdfrwt>
<pdfrwt beam="1">  1       -2 0.46104435E-02 0.90353094E+02</pdfrwt>
<totfact> 0.11260672E+05</totfact>
</mgrwt>
</event>
<event>
 7    1  0.3337990E-009  0.8885946E+02  0.7818608E-02  0.1305637E+00
         -2   -1    0    0    0  501 -0.00000000000E+00  0.00000000000E+00  0.72728348805E+01  0.72728353275E+01  0.25500000000E-02 0.  1.
          2   -1    0    0  501    0  0.00000000000E+00 -0.00000000000E+00 -0.27142112255E+03  0.27142112256E+03  0.25500000000E-02 0. -1.
         23    2    1    2    0    0  0.00000000000E+00 -0.88817841970E-15 -0.26414828767E+03  0.27869395789E+03  0.88859463680E+02 0.  0.
    9000005    2    3    3    0    0  0.39612279443E+02 -0.54224280160E+01 -0.80262158096E+02  0.90511482463E+02  0.12319863114E+02 0.  0.
         22    1    3    3    0    0 -0.39612279443E+02  0.54224280160E+01 -0.18388612958E+03  0.18818247543E+03  0.00000000000E+00 0. -1.
         22    1    4    4    0    0  0.13786295103E+02 -0.68848800647E+01 -0.37376785506E+02  0.40428796679E+02  0.00000000000E+00 0.  1.
         22    1    4    4    0    0  0.25825984340E+02  0.14624520488E+01 -0.42885372590E+02  0.50082685783E+02  0.00000000000E+00 0.  1.
<mgrwt>
<rscale>  0 0.88859464E+02</rscale>
<asrwt>0</asrwt>
<pdfrwt beam="2">  1        2 0.41757088E-01 0.88859464E+02</pdfrwt>
<pdfrwt beam="1">  1       -2 0.11188979E-02 0.88859464E+02</pdfrwt>
<totfact> 0.18538124E+05</totfact>
</mgrwt>
</event>
<event>
 7    1  0.3337990E-009  0.9003077E+02  0.7818608E-02  0.1302777E+00
         -2   -1    0    0    0  501 -0.00000000000E+00  0.00000000000E+00  0.13849092636E+03  0.13849092639E+03  0.25500000000E-02 0.  1.
          2   -1    0    0  501    0  0.00000000000E+00 -0.00000000000E+00 -0.14631897748E+02  0.14631897970E+02  0.25500000000E-02 0. -1.
         23    2    1    2    0    0 -0.66613381478E-15  0.00000000000E+00  0.12385902862E+03  0.15312282436E+03  0.90030774570E+02 0.  0.
    9000005    2    3    3    0    0  0.10494822539E+01 -0.32069595826E+02  0.12336461960E+02  0.37076095568E+02  0.13888418896E+02 0.  0.
         22    1    3    3    0    0 -0.10494822539E+01  0.32069595826E+02  0.11152256666E+03  0.11604672879E+03  0.00000000000E+00 0.  1.
         22    1    4    4    0    0 -0.40112287587E+01 -0.28304218049E+02  0.10985869009E+02  0.30625284218E+02  0.00000000000E+00 0. -1.
         22    1    4    4    0    0  0.50607110126E+01 -0.37653777762E+01  0.13505929515E+01  0.64508113499E+01  0.00000000000E+00 0. -1.
<mgrwt>
<rscale>  0 0.90030775E+02</rscale>
<asrwt>0</asrwt>
<pdfrwt beam="2">  1        2 0.22510612E-02 0.90030775E+02</pdfrwt>
<pdfrwt beam="1">  1       -2 0.21306296E-01 0.90030775E+02</pdfrwt>
<totfact> 0.74201636E+04</totfact>
</mgrwt>
</event>
<event>
 7    1  0.3337990E-009  0.9117604E+02  0.7818608E-02  0.1300028E+00
          2   -1    0    0  501    0  0.00000000000E+00  0.00000000000E+00  0.43579948183E+02  0.43579948258E+02  0.25500000000E-02 0. -1.
         -2   -1    0    0    0  501 -0.00000000000E+00 -0.00000000000E+00 -0.47688616628E+02  0.47688616696E+02  0.25500000000E-02 0.  1.
         23    2    1    2    0    0  0.00000000000E+00  0.00000000000E+00 -0.41086684444E+01  0.91268564954E+02  0.91176037380E+02 0.  0.
    9000005    2    3    3    0    0  0.10782711336E+02  0.24210697299E+02 -0.38824005874E+02  0.47592720597E+02  0.74390116426E+01 0.  0.
         22    1    3    3    0    0 -0.10782711336E+02 -0.24210697299E+02  0.34715337430E+02  0.43675844357E+02  0.00000000000E+00 0. -1.
         22    1    4    4    0    0  0.10606549950E+02  0.16825829329E+02 -0.25294167544E+02  0.32177668440E+02  0.00000000000E+00 0.  1.
         22    1    4    4    0    0  0.17616138549E+00  0.73848679698E+01 -0.13529838330E+02  0.15415052157E+02  0.00000000000E+00 0.  1.
<mgrwt>
<rscale>  0 0.91176037E+02</rscale>
<asrwt>0</asrwt>
<pdfrwt beam="1">  1        2 0.67046075E-02 0.91176037E+02</pdfrwt>
<pdfrwt beam="2">  1       -2 0.73367102E-02 0.91176037E+02</pdfrwt>
<totfact> 0.97531040E+04</totfact>
</mgrwt>
</event>
<event>
 7    1  0.3337990E-009  0.9220700E+02  0.7818608E-02  0.1297593E+00
         -2   -1    0    0    0  501 -0.00000000000E+00  0.00000000000E+00  0.12302726859E+03  0.12302726861E+03  0.25500000000E-02 0.  1.
          2   -1    0    0  501    0  0.00000000000E+00 -0.00000000000E+00 -0.17276924478E+02  0.17276924666E+02  0.25500000000E-02 0. -1.
         23    2    1    2    0    0  0.44408920985E-15  0.17763568394E-14  0.10575034411E+03  0.14030419328E+03  0.92207002840E+02 0.  0.
    9000005    2    3    3    0    0 -0.33743026541E+01 -0.11034283060E+02  0.12056335086E+03  0.12152743930E+03  0.10012772313E+02 0.  0.
         22    1    3    3    0    0  0.33743026541E+01  0.11034283060E+02 -0.14813006754E+02  0.18776753984E+02  0.00000000000E+00 0. -1.
         22    1    4    4    0    0  0.19512129278E+00 -0.17058780670E+01  0.68108691069E+02  0.68130330187E+02  0.00000000000E+00 0. -1.
         22    1    4    4    0    0 -0.35694239469E+01 -0.93284049930E+01  0.52454659795E+02  0.53397109110E+02  0.00000000000E+00 0. -1.
<mgrwt>
<rscale>  0 0.92207003E+02</rscale>
<asrwt>0</asrwt>
<pdfrwt beam="2">  1        2 0.26579884E-02 0.92207003E+02</pdfrwt>
<pdfrwt beam="1">  1       -2 0.18927272E-01 0.92207003E+02</pdfrwt>
<totfact> 0.72723395E+04</totfact>
</mgrwt>
</event>
<event>
 7    1  0.3337990E-009  0.9099874E+02  0.7818608E-02  0.1300451E+00
         -2   -1    0    0    0  501 -0.00000000000E+00  0.00000000000E+00  0.80507530271E+02  0.80507530312E+02  0.25500000000E-02 0.  1.
          2   -1    0    0  501    0  0.00000000000E+00 -0.00000000000E+00 -0.25714275179E+02  0.25714275305E+02  0.25500000000E-02 0. -1.
         23    2    1    2    0    0  0.00000000000E+00 -0.17763568394E-14  0.54793255093E+02  0.10622180562E+03  0.90998742765E+02 0.  0.
    9000005    2    3    3    0    0  0.16829911400E+02 -0.86792168919E+01  0.74844514064E+02  0.78642325746E+02  0.14977963469E+02 0.  0.
         22    1    3    3    0    0 -0.16829911400E+02  0.86792168919E+01 -0.20051258972E+02  0.27579479870E+02  0.00000000000E+00 0. -1.
         22    1    4    4    0    0  0.13304178762E+02 -0.12877063920E+02  0.53864624020E+02  0.56958034275E+02  0.00000000000E+00 0. -1.
         22    1    4    4    0    0  0.35257326374E+01  0.41978470283E+01  0.20979890045E+02  0.21684291471E+02  0.00000000000E+00 0. -1.
<mgrwt>
<rscale>  0 0.90998743E+02</rscale>
<asrwt>0</asrwt>
<pdfrwt beam="2">  1        2 0.39560424E-02 0.90998743E+02</pdfrwt>
<pdfrwt beam="1">  1       -2 0.12385774E-01 0.90998743E+02</pdfrwt>
<totfact> 0.85339543E+04</totfact>
</mgrwt>
</event>
<event>
 7    1  0.3337990E-009  0.9052668E+02  0.7818608E-02  0.1301581E+00
         -2   -1    0    0    0  501 -0.00000000000E+00  0.00000000000E+00  0.15163296721E+03  0.15163296723E+03  0.25500000000E-02 0.  1.
          2   -1    0    0  501    0  0.00000000000E+00 -0.00000000000E+00 -0.13511374861E+02  0.13511375101E+02  0.25500000000E-02 0. -1.
         23    2    1    2    0    0  0.00000000000E+00  0.00000000000E+00  0.13812159235E+03  0.16514434233E+03  0.90526678562E+02 0.  0.
    9000005    2    3    3    0    0 -0.21987424219E+01  0.34068265579E+02  0.12251733345E+03  0.12760803879E+03  0.10384285274E+02 0.  0.
         22    1    3    3    0    0  0.21987424219E+01 -0.34068265579E+02  0.15604258900E+02  0.37536303542E+02  0.00000000000E+00 0. -1.
         22    1    4    4    0    0 -0.38879724618E+00  0.23837701233E+02  0.66717127159E+02  0.70848868867E+02  0.00000000000E+00 0. -1.
         22    1    4    4    0    0 -0.18099451757E+01  0.10230564346E+02  0.55800206291E+02  0.56759169925E+02  0.00000000000E+00 0. -1.
<mgrwt>
<rscale>  0 0.90526679E+02</rscale>
<asrwt>0</asrwt>
<pdfrwt beam="2">  1        2 0.20786733E-02 0.90526679E+02</pdfrwt>
<pdfrwt beam="1">  1       -2 0.23328147E-01 0.90526679E+02</pdfrwt>
<totfact> 0.70852754E+04</totfact>
</mgrwt>
</event>
<event>
 7    1  0.3337990E-009  0.9198196E+02  0.7818608E-02  0.1298122E+00
          2   -1    0    0  501    0  0.00000000000E+00  0.00000000000E+00  0.31307443842E+03  0.31307443843E+03  0.25500000000E-02 0. -1.
         -2   -1    0    0    0  501 -0.00000000000E+00 -0.00000000000E+00 -0.67561253451E+01  0.67561258264E+01  0.25500000000E-02 0.  1.
         23    2    1    2    0    0  0.00000000000E+00  0.00000000000E+00  0.30631831308E+03  0.31983056426E+03  0.91981959687E+02 0.  0.
    9000005    2    3    3    0    0 -0.21133861592E+02  0.37172915967E+02  0.20420704592E+03  0.20912746282E+03  0.14328723451E+02 0.  0.
         22    1    3    3    0    0  0.21133861592E+02 -0.37172915967E+02  0.10211126715E+03  0.11070310143E+03  0.00000000000E+00 0.  1.
         22    1    4    4    0    0 -0.11469478285E+01  0.15593380692E+02  0.75556245760E+02  0.77157081879E+02  0.00000000000E+00 0.  1.
         22    1    4    4    0    0 -0.19986913763E+02  0.21579535275E+02  0.12865080016E+03  0.13197038095E+03  0.00000000000E+00 0.  1.
<mgrwt>
<rscale>  0 0.91981960E+02</rscale>
<asrwt>0</asrwt>
<pdfrwt beam="1">  1        2 0.48165297E-01 0.91981960E+02</pdfrwt>
<pdfrwt beam="2">  1       -2 0.10394040E-02 0.91981960E+02</pdfrwt>
<totfact> 0.17829952E+05</totfact>
</mgrwt>
</event>
<event>
 7    1  0.3337990E-009  0.9097842E+02  0.7818608E-02  0.1300499E+00
         -2   -1    0    0    0  501 -0.00000000000E+00  0.00000000000E+00  0.61361011122E+01  0.61361016420E+01  0.25500000000E-02 0.  1.
          2   -1    0    0  501    0  0.00000000000E+00 -0.00000000000E+00 -0.33722848129E+03  0.33722848130E+03  0.25500000000E-02 0. -1.
         23    2    1    2    0    0  0.00000000000E+00  0.00000000000E+00 -0.33109238018E+03  0.34336458294E+03  0.90978418358E+02 0.  0.
    9000005    2    3    3    0    0  0.37167263226E+02  0.23597825800E+02 -0.18856381412E+03  0.19419134479E+03  0.14686849822E+02 0.  0.
         22    1    3    3    0    0 -0.37167263226E+02 -0.23597825800E+02 -0.14252856606E+03  0.14917323815E+03  0.00000000000E+00 0.  1.
         22    1    4    4    0    0  0.20519817407E+02  0.46840270265E+01 -0.77697069031E+02  0.80497438168E+02  0.00000000000E+00 0. -1.
         22    1    4    4    0    0  0.16647445818E+02  0.18913798774E+02 -0.11086674509E+03  0.11369390662E+03  0.00000000000E+00 0. -1.
<mgrwt>
<rscale>  0 0.90978418E+02</rscale>
<asrwt>0</asrwt>
<pdfrwt beam="2">  1        2 0.51881290E-01 0.90978418E+02</pdfrwt>
<pdfrwt beam="1">  1       -2 0.94401586E-03 0.90978418E+02</pdfrwt>
<totfact> 0.18871087E+05</totfact>
</mgrwt>
</event>
<event>
 7    1  0.3337990E-009  0.9027569E+02  0.7818608E-02  0.1302185E+00
          2   -1    0    0  501    0  0.00000000000E+00  0.00000000000E+00  0.13877753175E+04  0.13877753175E+04  0.25500000000E-02 0.  1.
         -2   -1    0    0    0  501 -0.00000000000E+00 -0.00000000000E+00 -0.14681219406E+01  0.14681241552E+01  0.25500000000E-02 0. -1.
         23    2    1    2    0    0 -0.22204460493E-15  0.17763568394E-14  0.13863071956E+04  0.13892434417E+04  0.90275687363E+02 0.  0.
    9000005    2    3    3    0    0  0.13724438862E+01 -0.12496089784E+02  0.13599452527E+04  0.13600374852E+04  0.96350876415E+01 0.  0.
         22    1    3    3    0    0 -0.13724438862E+01  0.12496089784E+02  0.26361942885E+02  0.29205956495E+02  0.00000000000E+00 0. -1.
         22    1    4    4    0    0  0.22787083257E+01 -0.13634566930E+02  0.13041459395E+04  0.13042192014E+04  0.00000000000E+00 0.  1.
         22    1    4    4    0    0 -0.90626443949E+00  0.11384771465E+01  0.55799313240E+02  0.55818283774E+02  0.00000000000E+00 0.  1.
<mgrwt>
<rscale>  0 0.90275687E+02</rscale>
<asrwt>0</asrwt>
<pdfrwt beam="1">  1        2 0.21350338E+00 0.90275687E+02</pdfrwt>
<pdfrwt beam="2">  1       -2 0.22586563E-03 0.90275687E+02</pdfrwt>
<totfact> 0.24840118E+05</totfact>
</mgrwt>
</event>
<event>
 7    1  0.3337990E-009  0.9032234E+02  0.7818608E-02  0.1302073E+00
          2   -1    0    0  501    0  0.00000000000E+00  0.00000000000E+00  0.52878892103E+01  0.52878898251E+01  0.25500000000E-02 0. -1.
         -2   -1    0    0    0  501 -0.00000000000E+00 -0.00000000000E+00 -0.38569856805E+03  0.38569856806E+03  0.25500000000E-02 0.  1.
         23    2    1    2    0    0  0.00000000000E+00  0.00000000000E+00 -0.38041067884E+03  0.39098645789E+03  0.90322343155E+02 0.  0.
    9000005    2    3    3    0    0  0.23127722283E+01 -0.22227333387E+02 -0.35939718284E+03  0.36031121903E+03  0.12587146511E+02 0.  0.
         22    1    3    3    0    0 -0.23127722283E+01  0.22227333387E+02 -0.21013495999E+02  0.30675238858E+02  0.00000000000E+00 0. -1.
         22    1    4    4    0    0  0.45594902604E+01 -0.18052303635E+02 -0.20570672043E+03  0.20654764450E+03  0.00000000000E+00 0.  1.
         22    1    4    4    0    0 -0.22467180321E+01 -0.41750297520E+01 -0.15369046241E+03  0.15376357453E+03  0.00000000000E+00 0.  1.
<mgrwt>
<rscale>  0 0.90322343E+02</rscale>
<asrwt>0</asrwt>
<pdfrwt beam="1">  1        2 0.81352177E-03 0.90322343E+02</pdfrwt>
<pdfrwt beam="2">  1       -2 0.59338219E-01 0.90322343E+02</pdfrwt>
<totfact> 0.44821073E+04</totfact>
</mgrwt>
</event>
<event>
 7    1  0.3337990E-009  0.9640081E+02  0.7818608E-02  0.1288052E+00
         -2   -1    0    0    0  501 -0.00000000000E+00  0.00000000000E+00  0.23939705544E+03  0.23939705545E+03  0.25500000000E-02 0.  1.
          2   -1    0    0  501    0  0.00000000000E+00 -0.00000000000E+00 -0.97047095801E+01  0.97047099151E+01  0.25500000000E-02 0. -1.
         23    2    1    2    0    0  0.00000000000E+00  0.71054273576E-14  0.22969234586E+03  0.24910176537E+03  0.96400807897E+02 0.  0.
    9000005    2    3    3    0    0 -0.28241149508E+02  0.37220417594E+02  0.10249114925E+03  0.11359137303E+03  0.14684765642E+02 0.  0.
         22    1    3    3    0    0  0.28241149508E+02 -0.37220417594E+02  0.12720119661E+03  0.13551039233E+03  0.00000000000E+00 0. -1.
         22    1    4    4    0    0 -0.21305171493E+02  0.35003768457E+02  0.78967380019E+02  0.88966405152E+02  0.00000000000E+00 0.  1.
         22    1    4    4    0    0 -0.69359780151E+01  0.22166491369E+01  0.23523769231E+02  0.24624967883E+02  0.00000000000E+00 0.  1.
<mgrwt>
<rscale>  0 0.96400808E+02</rscale>
<asrwt>0</asrwt>
<pdfrwt beam="2">  1        2 0.14930324E-02 0.96400808E+02</pdfrwt>
<pdfrwt beam="1">  1       -2 0.36830314E-01 0.96400808E+02</pdfrwt>
<totfact> 0.49735923E+04</totfact>
</mgrwt>
</event>
<event>
 7    1  0.3337990E-009  0.1039858E+03  0.7818608E-02  0.1272131E+00
         -2   -1    0    0    0  501 -0.00000000000E+00  0.00000000000E+00  0.42717646676E+02  0.42717646752E+02  0.25500000000E-02 0.  1.
          2   -1    0    0  501    0  0.00000000000E+00 -0.00000000000E+00 -0.63282107461E+02  0.63282107512E+02  0.25500000000E-02 0. -1.
         23    2    1    2    0    0  0.00000000000E+00  0.00000000000E+00 -0.20564460785E+02  0.10599975426E+03  0.10398582046E+03 0.  0.
    9000005    2    3    3    0    0 -0.41776366156E+02  0.27752009735E+02 -0.23928524207E+02  0.55732908966E+02  0.42595842086E+01 0.  0.
         22    1    3    3    0    0  0.41776366156E+02 -0.27752009735E+02  0.33640634223E+01  0.50266845298E+02  0.00000000000E+00 0.  1.
         22    1    4    4    0    0 -0.37502969214E+02  0.26085407865E+02 -0.20902494163E+02  0.50237789218E+02  0.00000000000E+00 0.  1.
         22    1    4    4    0    0 -0.42733969420E+01  0.16666018700E+01 -0.30260300441E+01  0.54951197480E+01  0.00000000000E+00 0.  1.
<mgrwt>
<rscale>  0 0.10398582E+03</rscale>
<asrwt>0</asrwt>
<pdfrwt beam="2">  1        2 0.97357089E-02 0.10398582E+03</pdfrwt>
<pdfrwt beam="1">  1       -2 0.65719456E-02 0.10398582E+03</pdfrwt>
<totfact> 0.74000639E+04</totfact>
</mgrwt>
</event>
<event>
 7    1  0.3337990E-009  0.9092410E+02  0.7818608E-02  0.1300629E+00
         -2   -1    0    0    0  501 -0.00000000000E+00  0.00000000000E+00  0.66656228538E+02  0.66656228586E+02  0.25500000000E-02 0.  1.
          2   -1    0    0  501    0  0.00000000000E+00 -0.00000000000E+00 -0.31006824915E+02  0.31006825020E+02  0.25500000000E-02 0. -1.
         23    2    1    2    0    0  0.00000000000E+00  0.00000000000E+00  0.35649403622E+02  0.97663053607E+02  0.90924100552E+02 0.  0.
    9000005    2    3    3    0    0  0.69421810763E+01  0.27929764481E+02  0.54960528321E+02  0.63004935378E+02  0.10986199825E+02 0.  0.
         22    1    3    3    0    0 -0.69421810763E+01 -0.27929764481E+02 -0.19311124698E+02  0.34658118229E+02  0.00000000000E+00 0. -1.
         22    1    4    4    0    0 -0.24378160121E+00  0.32114250522E+01  0.15914653165E+02  0.16237267803E+02  0.00000000000E+00 0. -1.
         22    1    4    4    0    0  0.71859626775E+01  0.24718339429E+02  0.39045875155E+02  0.46767667575E+02  0.00000000000E+00 0. -1.
<mgrwt>
<rscale>  0 0.90924101E+02</rscale>
<asrwt>0</asrwt>
<pdfrwt beam="2">  1        2 0.47702808E-02 0.90924101E+02</pdfrwt>
<pdfrwt beam="1">  1       -2 0.10254804E-01 0.90924101E+02</pdfrwt>
<totfact> 0.89982762E+04</totfact>
</mgrwt>
</event>
<event>
 7    1  0.3337990E-009  0.9203490E+02  0.7818608E-02  0.1297997E+00
          2   -1    0    0  501    0  0.00000000000E+00  0.00000000000E+00  0.13307264542E+02  0.13307264787E+02  0.25500000000E-02 0. -1.
         -2   -1    0    0    0  501 -0.00000000000E+00 -0.00000000000E+00 -0.15913156998E+03  0.15913157000E+03  0.25500000000E-02 0.  1.
         23    2    1    2    0    0  0.88817841970E-15  0.00000000000E+00 -0.14582430544E+03  0.17243883479E+03  0.92034904718E+02 0.  0.
    9000005    2    3    3    0    0 -0.77313825437E+01  0.35269772402E+02 -0.12430134240E+03  0.13040350370E+03  0.15827789954E+02 0.  0.
         22    1    3    3    0    0  0.77313825437E+01 -0.35269772402E+02 -0.21522963040E+02  0.42035331085E+02  0.00000000000E+00 0. -1.
         22    1    4    4    0    0 -0.57859608733E+01  0.69968213158E+01 -0.15419616562E+02  0.17894061212E+02  0.00000000000E+00 0. -1.
         22    1    4    4    0    0 -0.19454216705E+01  0.28272951087E+02 -0.10888172583E+03  0.11250944249E+03  0.00000000000E+00 0. -1.
<mgrwt>
<rscale>  0 0.92034905E+02</rscale>
<asrwt>0</asrwt>
<pdfrwt beam="1">  1        2 0.20472716E-02 0.92034905E+02</pdfrwt>
<pdfrwt beam="2">  1       -2 0.24481779E-01 0.92034905E+02</pdfrwt>
<totfact> 0.66738617E+04</totfact>
</mgrwt>
</event>
<event>
 7    1  0.3337990E-009  0.9029283E+02  0.7818608E-02  0.1302144E+00
          2   -1    0    0  501    0  0.00000000000E+00  0.00000000000E+00  0.57010521326E+02  0.57010521383E+02  0.25500000000E-02 0. -1.
         -2   -1    0    0    0  501 -0.00000000000E+00 -0.00000000000E+00 -0.35751272433E+02  0.35751272524E+02  0.25500000000E-02 0.  1.
         23    2    1    2    0    0  0.17763568394E-14  0.00000000000E+00  0.21259248893E+02  0.92761793907E+02  0.90292827763E+02 0.  0.
    9000005    2    3    3    0    0  0.86510733821E+01 -0.79171582190E+01 -0.33074479937E+02  0.37176934876E+02  0.12275210740E+02 0.  0.
         22    1    3    3    0    0 -0.86510733821E+01  0.79171582190E+01  0.54333728830E+02  0.55584859032E+02  0.00000000000E+00 0. -1.
         22    1    4    4    0    0  0.35878026462E+01 -0.78481957771E+01 -0.85961179464E+01  0.12180301660E+02  0.00000000000E+00 0.  1.
         22    1    4    4    0    0  0.50632707359E+01 -0.68962441863E-01 -0.24478361991E+02  0.24996633215E+02  0.00000000000E+00 0.  1.
<mgrwt>
<rscale>  0 0.90292828E+02</rscale>
<asrwt>0</asrwt>
<pdfrwt beam="1">  1        2 0.87708492E-02 0.90292828E+02</pdfrwt>
<pdfrwt beam="2">  1       -2 0.55001959E-02 0.90292828E+02</pdfrwt>
<totfact> 0.10755072E+05</totfact>
</mgrwt>
</event>
<event>
 7    1  0.3337990E-009  0.9359757E+02  0.7818608E-02  0.1294366E+00
         -2   -1    0    0    0  501 -0.00000000000E+00  0.00000000000E+00  0.98068346978E+01  0.98068350293E+01  0.25500000000E-02 0.  1.
          2   -1    0    0  501    0  0.00000000000E+00 -0.00000000000E+00 -0.22332652385E+03  0.22332652386E+03  0.25500000000E-02 0. -1.
         23    2    1    2    0    0  0.44408920985E-15  0.00000000000E+00 -0.21351968915E+03  0.23313335889E+03  0.93597571407E+02 0.  0.
    9000005    2    3    3    0    0 -0.38708484762E+01 -0.23147470053E+02 -0.20750266847E+03  0.20890541272E+03  0.57727987766E+01 0.  0.
         22    1    3    3    0    0  0.38708484762E+01  0.23147470053E+02 -0.60170206843E+01  0.24227946171E+02  0.00000000000E+00 0.  1.
         22    1    4    4    0    0 -0.53206438125E+01 -0.17601559334E+02 -0.15236634203E+03  0.15347190728E+03  0.00000000000E+00 0. -1.
         22    1    4    4    0    0  0.14497953363E+01 -0.55459107182E+01 -0.55136326440E+02  0.55433505441E+02  0.00000000000E+00 0. -1.
<mgrwt>
<rscale>  0 0.93597571E+02</rscale>
<asrwt>0</asrwt>
<pdfrwt beam="2">  1        2 0.34357923E-01 0.93597571E+02</pdfrwt>
<pdfrwt beam="1">  1       -2 0.15087440E-02 0.93597571E+02</pdfrwt>
<totfact> 0.15005943E+05</totfact>
</mgrwt>
</event>
<event>
 7    1  0.3337990E-009  0.9084245E+02  0.7818608E-02  0.1300824E+00
          2   -1    0    0  501    0  0.00000000000E+00  0.00000000000E+00  0.77017046658E+02  0.77017046700E+02  0.25500000000E-02 0. -1.
         -2   -1    0    0    0  501 -0.00000000000E+00 -0.00000000000E+00 -0.26787418775E+02  0.26787418896E+02  0.25500000000E-02 0.  1.
         23    2    1    2    0    0  0.00000000000E+00  0.00000000000E+00  0.50229627883E+02  0.10380446560E+03  0.90842454614E+02 0.  0.
    9000005    2    3    3    0    0 -0.18858738809E+02 -0.14871718752E+02 -0.16699357533E+02  0.32696736502E+02  0.14607805715E+02 0.  0.
         22    1    3    3    0    0  0.18858738809E+02  0.14871718752E+02  0.66928985416E+02  0.71107729094E+02  0.00000000000E+00 0. -1.
         22    1    4    4    0    0 -0.13077154818E+01 -0.73752846581E+01 -0.23923022826E+00  0.74941426909E+01  0.00000000000E+00 0. -1.
         22    1    4    4    0    0 -0.17551023327E+02 -0.74964340935E+01 -0.16460127304E+02  0.25202593811E+02  0.00000000000E+00 0. -1.
<mgrwt>
<rscale>  0 0.90842455E+02</rscale>
<asrwt>0</asrwt>
<pdfrwt beam="1">  1        2 0.11848776E-01 0.90842455E+02</pdfrwt>
<pdfrwt beam="2">  1       -2 0.41211414E-02 0.90842455E+02</pdfrwt>
<totfact> 0.11478783E+05</totfact>
</mgrwt>
</event>
<event>
 7    1  0.3337990E-009  0.9130809E+02  0.7818608E-02  0.1299715E+00
         -2   -1    0    0    0  501 -0.00000000000E+00  0.00000000000E+00  0.19794925213E+02  0.19794925377E+02  0.25500000000E-02 0.  1.
          2   -1    0    0  501    0  0.00000000000E+00 -0.00000000000E+00 -0.10529425489E+03  0.10529425492E+03  0.25500000000E-02 0. -1.
         23    2    1    2    0    0  0.35527136788E-14  0.00000000000E+00 -0.85499329678E+02  0.12508918030E+03  0.91308091933E+02 0.  0.
    9000005    2    3    3    0    0 -0.24905755460E+02 -0.32251971332E+02 -0.18968355607E+02  0.47070869495E+02  0.13977908668E+02 0.  0.
         22    1    3    3    0    0  0.24905755460E+02  0.32251971332E+02 -0.66530974071E+02  0.78018310804E+02  0.00000000000E+00 0. -1.
         22    1    4    4    0    0 -0.81510529709E+01 -0.21646604013E+02 -0.84566230364E+01  0.24627821727E+02  0.00000000000E+00 0.  1.
         22    1    4    4    0    0 -0.16754702489E+02 -0.10605367319E+02 -0.10511732571E+02  0.22443047768E+02  0.00000000000E+00 0.  1.
<mgrwt>
<rscale>  0 0.91308092E+02</rscale>
<asrwt>0</asrwt>
<pdfrwt beam="2">  1        2 0.16199116E-01 0.91308092E+02</pdfrwt>
<pdfrwt beam="1">  1       -2 0.30453732E-02 0.91308092E+02</pdfrwt>
<totfact> 0.12414063E+05</totfact>
</mgrwt>
</event>
<event>
 7    1  0.3337990E-009  0.9234701E+02  0.7818608E-02  0.1297266E+00
          2   -1    0    0  501    0  0.00000000000E+00  0.00000000000E+00  0.30144604624E+02  0.30144604732E+02  0.25500000000E-02 0. -1.
         -2   -1    0    0    0  501 -0.00000000000E+00 -0.00000000000E+00 -0.70725516151E+02  0.70725516197E+02  0.25500000000E-02 0.  1.
         23    2    1    2    0    0  0.35527136788E-14  0.00000000000E+00 -0.40580911527E+02  0.10087012093E+03  0.92347013573E+02 0.  0.
    9000005    2    3    3    0    0  0.26767214950E+02 -0.28089314756E+02  0.67966599320E+01  0.39631834889E+02  0.43582508890E+01 0.  0.
         22    1    3    3    0    0 -0.26767214950E+02  0.28089314756E+02 -0.47377571459E+02  0.61238286039E+02  0.00000000000E+00 0.  1.
         22    1    4    4    0    0  0.86907907255E+01 -0.79026501002E+01  0.39151698486E+01  0.12381852728E+02  0.00000000000E+00 0. -1.
         22    1    4    4    0    0  0.18076424224E+02 -0.20186664656E+02  0.28814900834E+01  0.27249982161E+02  0.00000000000E+00 0. -1.
<mgrwt>
<rscale>  0 0.92347014E+02</rscale>
<asrwt>0</asrwt>
<pdfrwt beam="1">  1        2 0.46376315E-02 0.92347014E+02</pdfrwt>
<pdfrwt beam="2">  1       -2 0.10880849E-01 0.92347014E+02</pdfrwt>
<totfact> 0.85283208E+04</totfact>
</mgrwt>
</event>
<event>
 7    1  0.3337990E-009  0.9634171E+02  0.7818608E-02  0.1288182E+00
          2   -1    0    0  501    0  0.00000000000E+00  0.00000000000E+00  0.74382393541E+03  0.74382393541E+03  0.25500000000E-02 0. -1.
         -2   -1    0    0    0  501 -0.00000000000E+00 -0.00000000000E+00 -0.31195970838E+01  0.31195981260E+01  0.25500000000E-02 0.  1.
         23    2    1    2    0    0  0.00000000000E+00  0.00000000000E+00  0.74070433832E+03  0.74694353354E+03  0.96341712059E+02 0.  0.
    9000005    2    3    3    0    0  0.37505344596E+02 -0.44892545972E+01  0.59975622586E+03  0.60102172335E+03  0.96320925090E+01 0.  0.
         22    1    3    3    0    0 -0.37505344596E+02  0.44892545972E+01  0.14094811247E+03  0.14592181019E+03  0.00000000000E+00 0.  1.
         22    1    4    4    0    0  0.12536688091E+02 -0.87617358890E-01  0.27072052666E+03  0.27101066359E+03  0.00000000000E+00 0.  1.
         22    1    4    4    0    0  0.24968656506E+02 -0.44016372383E+01  0.32903569920E+03  0.33001105976E+03  0.00000000000E+00 0.  1.
<mgrwt>
<rscale>  0 0.96341712E+02</rscale>
<asrwt>0</asrwt>
<pdfrwt beam="1">  1        2 0.11443443E+00 0.96341712E+02</pdfrwt>
<pdfrwt beam="2">  1       -2 0.47993817E-03 0.96341712E+02</pdfrwt>
<totfact> 0.20775940E+05</totfact>
</mgrwt>
</event>
<event>
 7    1  0.3337990E-009  0.9185500E+02  0.7818608E-02  0.1298421E+00
          2   -1    0    0  501    0  0.00000000000E+00  0.00000000000E+00  0.23995202299E+03  0.23995202300E+03  0.25500000000E-02 0. -1.
         -2   -1    0    0    0  501 -0.00000000000E+00 -0.00000000000E+00 -0.87906540639E+01  0.87906544338E+01  0.25500000000E-02 0.  1.
         23    2    1    2    0    0  0.00000000000E+00  0.00000000000E+00  0.23116136892E+03  0.24874267743E+03  0.91855000380E+02 0.  0.
    9000005    2    3    3    0    0 -0.43144594818E+02 -0.10327083260E+02  0.84950487589E+02  0.95949593392E+02  0.46512815177E+01 0.  0.
         22    1    3    3    0    0  0.43144594818E+02  0.10327083260E+02  0.14621088133E+03  0.15279308404E+03  0.00000000000E+00 0. -1.
         22    1    4    4    0    0 -0.45175313961E+01 -0.21876130350E+01  0.75916577987E+01  0.91009345035E+01  0.00000000000E+00 0. -1.
         22    1    4    4    0    0 -0.38627063422E+02 -0.81394702248E+01  0.77358829790E+02  0.86848658888E+02  0.00000000000E+00 0. -1.
<mgrwt>
<rscale>  0 0.91855000E+02</rscale>
<asrwt>0</asrwt>
<pdfrwt beam="1">  1        2 0.36915694E-01 0.91855000E+02</pdfrwt>
<pdfrwt beam="2">  1       -2 0.13524084E-02 0.91855000E+02</pdfrwt>
<totfact> 0.16207932E+05</totfact>
</mgrwt>
</event>
<event>
 7    1  0.3337990E-009  0.9196219E+02  0.7818608E-02  0.1298168E+00
         -2   -1    0    0    0  501 -0.00000000000E+00  0.00000000000E+00  0.18134954807E+02  0.18134954986E+02  0.25500000000E-02 0.  1.
          2   -1    0    0  501    0  0.00000000000E+00 -0.00000000000E+00 -0.11658484679E+03  0.11658484682E+03  0.25500000000E-02 0. -1.
         23    2    1    2    0    0  0.00000000000E+00  0.00000000000E+00 -0.98449891988E+02  0.13471980181E+03  0.91962186615E+02 0.  0.
    9000005    2    3    3    0    0 -0.42578462386E+02  0.12387197314E+02 -0.32802513855E+02  0.55498930997E+02  0.61447791008E+01 0.  0.
         22    1    3    3    0    0  0.42578462386E+02 -0.12387197314E+02 -0.65647378133E+02  0.79220870812E+02  0.00000000000E+00 0.  1.
         22    1    4    4    0    0 -0.22436352641E+02  0.66566067624E+01 -0.13494550298E+02  0.27014870371E+02  0.00000000000E+00 0. -1.
         22    1    4    4    0    0 -0.20142109745E+02  0.57305905511E+01 -0.19307963557E+02  0.28484060626E+02  0.00000000000E+00 0. -1.
<mgrwt>
<rscale>  0 0.91962187E+02</rscale>
<asrwt>0</asrwt>
<pdfrwt beam="2">  1        2 0.17936130E-01 0.91962187E+02</pdfrwt>
<pdfrwt beam="1">  1       -2 0.27899931E-02 0.91962187E+02</pdfrwt>
<totfact> 0.12568430E+05</totfact>
</mgrwt>
</event>
<event>
 7    1  0.3337990E-009  0.9439849E+02  0.7818608E-02  0.1292537E+00
         -2   -1    0    0    0  501 -0.00000000000E+00  0.00000000000E+00  0.24254612429E+02  0.24254612563E+02  0.25500000000E-02 0.  1.
          2   -1    0    0  501    0  0.00000000000E+00 -0.00000000000E+00 -0.91849274937E+02  0.91849274972E+02  0.25500000000E-02 0. -1.
         23    2    1    2    0    0  0.00000000000E+00 -0.16653345369E-15 -0.67594662508E+02  0.11610388754E+03  0.94398486753E+02 0.  0.
    9000005    2    3    3    0    0  0.16736300361E+02 -0.44082528504E+00  0.19825174788E+02  0.27095314749E+02  0.77987466465E+01 0.  0.
         22    1    3    3    0    0 -0.16736300361E+02  0.44082528504E+00 -0.87419837295E+02  0.89008572786E+02  0.00000000000E+00 0. -1.
         22    1    4    4    0    0  0.80298533923E+01  0.21567645743E+01  0.49838863177E+01  0.96937764446E+01  0.00000000000E+00 0.  1.
         22    1    4    4    0    0  0.87064469691E+01 -0.25975898593E+01  0.14841288470E+02  0.17401538304E+02  0.00000000000E+00 0.  1.
<mgrwt>
<rscale>  0 0.94398487E+02</rscale>
<asrwt>0</asrwt>
<pdfrwt beam="2">  1        2 0.14130658E-01 0.94398487E+02</pdfrwt>
<pdfrwt beam="1">  1       -2 0.37314789E-02 0.94398487E+02</pdfrwt>
<totfact> 0.10860334E+05</totfact>
</mgrwt>
</event>
<event>
 7    1  0.3337990E-009  0.8929895E+02  0.7818608E-02  0.1304558E+00
         -2   -1    0    0    0  501 -0.00000000000E+00  0.00000000000E+00  0.15960847240E+03  0.15960847242E+03  0.25500000000E-02 0.  1.
          2   -1    0    0  501    0  0.00000000000E+00 -0.00000000000E+00 -0.12490412300E+02  0.12490412561E+02  0.25500000000E-02 0. -1.
         23    2    1    2    0    0  0.00000000000E+00  0.71054273576E-14  0.14711806010E+03  0.17209888498E+03  0.89298950746E+02 0.  0.
    9000005    2    3    3    0    0 -0.59834925933E+01 -0.42556713854E+02  0.96710274397E+02  0.10585825593E+03  0.24934106927E+01 0.  0.
         22    1    3    3    0    0  0.59834925933E+01  0.42556713854E+02  0.50407785705E+02  0.66240629053E+02  0.00000000000E+00 0. -1.
         22    1    4    4    0    0 -0.15963326986E+01 -0.14288464222E+02  0.29681734650E+02  0.32980507269E+02  0.00000000000E+00 0. -1.
         22    1    4    4    0    0 -0.43871598947E+01 -0.28268249632E+02  0.67028539747E+02  0.72877748661E+02  0.00000000000E+00 0. -1.
<mgrwt>
<rscale>  0 0.89298951E+02</rscale>
<asrwt>0</asrwt>
<pdfrwt beam="2">  1        2 0.19216018E-02 0.89298951E+02</pdfrwt>
<pdfrwt beam="1">  1       -2 0.24555151E-01 0.89298951E+02</pdfrwt>
<totfact> 0.71965118E+04</totfact>
</mgrwt>
</event>
<event>
 7    1  0.3337990E-009  0.9354459E+02  0.7818608E-02  0.1294488E+00
         -2   -1    0    0    0  501 -0.00000000000E+00  0.00000000000E+00  0.30057342282E+02  0.30057342391E+02  0.25500000000E-02 0.  1.
          2   -1    0    0  501    0  0.00000000000E+00 -0.00000000000E+00 -0.72782472075E+02  0.72782472120E+02  0.25500000000E-02 0. -1.
         23    2    1    2    0    0  0.00000000000E+00  0.17763568394E-14 -0.42725129793E+02  0.10283981451E+03  0.93544592215E+02 0.  0.
    9000005    2    3    3    0    0  0.43291380389E+02 -0.15450677259E+02 -0.24971616338E+02  0.53564523707E+02  0.11519962397E+02 0.  0.
         22    1    3    3    0    0 -0.43291380389E+02  0.15450677259E+02 -0.17753513454E+02  0.49275290803E+02  0.00000000000E+00 0.  1.
         22    1    4    4    0    0  0.33331316352E+02 -0.16571432947E+02 -0.21322438898E+02  0.42897965456E+02  0.00000000000E+00 0. -1.
         22    1    4    4    0    0  0.99600640373E+01  0.11207556876E+01 -0.36491774400E+01  0.10666558251E+02  0.00000000000E+00 0. -1.
<mgrwt>
<rscale>  0 0.93544592E+02</rscale>
<asrwt>0</asrwt>
<pdfrwt beam="2">  1        2 0.11197303E-01 0.93544592E+02</pdfrwt>
<pdfrwt beam="1">  1       -2 0.46242065E-02 0.93544592E+02</pdfrwt>
<totfact> 0.10407802E+05</totfact>
</mgrwt>
</event>
<event>
 7    1  0.3523212E-009  0.9034410E+02  0.7818608E-02  0.1302021E+00
         -2   -1    0    0    0  501 -0.00000000000E+00  0.00000000000E+00  0.52698815691E+01  0.52698821861E+01  0.25500000000E-02 0.  1.
          2   -1    0    0  501    0  0.00000000000E+00 -0.00000000000E+00 -0.38720302029E+03  0.38720302030E+03  0.25500000000E-02 0. -1.
         23    2    1    2    0    0 -0.71054273576E-14  0.17763568394E-14 -0.38193313872E+03  0.39247290248E+03  0.90344101807E+02 0.  0.
    9000005    2    3    3    0    0  0.34527473318E+02 -0.12530477962E+02 -0.30078317334E+03  0.30339722582E+03  0.15172342590E+02 0.  0.
         22    1    3    3    0    0 -0.34527473318E+02  0.12530477962E+02 -0.81149965377E+02  0.89075676659E+02  0.00000000000E+00 0.  1.
         22    1    4    4    0    0  0.86467541565E+01 -0.10589619638E+02 -0.93015531343E+02  0.94014868359E+02  0.00000000000E+00 0.  1.
         22    1    4    4    0    0  0.25880719161E+02 -0.19408583238E+01 -0.20776764200E+03  0.20938235747E+03  0.00000000000E+00 0.  1.
<mgrwt>
<rscale>  0 0.90344102E+02</rscale>
<asrwt>0</asrwt>
<pdfrwt beam="2">  1        2 0.59569673E-01 0.90344102E+02</pdfrwt>
<pdfrwt beam="1">  1       -2 0.81075136E-03 0.90344102E+02</pdfrwt>
<totfact> 0.20217092E+05</totfact>
</mgrwt>
</event>
<event>
 7    1  0.3337990E-009  0.9231392E+02  0.7818608E-02  0.1297343E+00
         -2   -1    0    0    0  501 -0.00000000000E+00  0.00000000000E+00  0.41183790297E+02  0.41183790376E+02  0.25500000000E-02 0. -1.
          2   -1    0    0  501    0  0.00000000000E+00 -0.00000000000E+00 -0.51730668881E+02  0.51730668944E+02  0.25500000000E-02 0.  1.
         23    2    1    2    0    0 -0.71054273576E-14  0.00000000000E+00 -0.10546878583E+02  0.92914459320E+02  0.92313921501E+02 0.  0.
    9000005    2    3    3    0    0  0.34966954212E+02  0.29000048125E+02 -0.28938258907E+01  0.46846467247E+02  0.11069172829E+02 0.  0.
         22    1    3    3    0    0 -0.34966954212E+02 -0.29000048125E+02 -0.76530526927E+01  0.46067992073E+02  0.00000000000E+00 0.  1.
         22    1    4    4    0    0  0.22978382686E+02  0.16069649426E+02 -0.66503198225E+01  0.28817814929E+02  0.00000000000E+00 0.  1.
         22    1    4    4    0    0  0.11988571526E+02  0.12930398699E+02  0.37564939318E+01  0.18028652318E+02  0.00000000000E+00 0.  1.
<mgrwt>
<rscale>  0 0.92313922E+02</rscale>
<asrwt>0</asrwt>
<pdfrwt beam="2">  1        2 0.79585644E-02 0.92313922E+02</pdfrwt>
<pdfrwt beam="1">  1       -2 0.63359678E-02 0.92313922E+02</pdfrwt>
<totfact> 0.98439959E+04</totfact>
</mgrwt>
</event>
<event>
 7    1  0.3337990E-009  0.9323711E+02  0.7818608E-02  0.1295197E+00
         -2   -1    0    0    0  501 -0.00000000000E+00  0.00000000000E+00  0.15723758553E+01  0.15723779230E+01  0.25500000000E-02 0. -1.
          2   -1    0    0  501    0  0.00000000000E+00 -0.00000000000E+00 -0.13821683980E+04  0.13821683980E+04  0.25500000000E-02 0.  1.
         23    2    1    2    0    0 -0.44408920985E-15  0.00000000000E+00 -0.13805960221E+04  0.13837407759E+04  0.93237109545E+02 0.  0.
    9000005    2    3    3    0    0  0.30692290276E+01 -0.10546725386E+02 -0.13622303224E+04  0.13623409509E+04  0.13444764543E+02 0.  0.
         22    1    3    3    0    0 -0.30692290276E+01  0.10546725386E+02 -0.18365699726E+02  0.21399824990E+02  0.00000000000E+00 0. -1.
         22    1    4    4    0    0 -0.48920917439E+01 -0.71373084026E+01 -0.73127940183E+03  0.73133059370E+03  0.00000000000E+00 0.  1.
         22    1    4    4    0    0  0.79613207714E+01 -0.34094169838E+01 -0.63095092056E+03  0.63101035721E+03  0.00000000000E+00 0.  1.
<mgrwt>
<rscale>  0 0.93237110E+02</rscale>
<asrwt>0</asrwt>
<pdfrwt beam="2">  1        2 0.21264032E+00 0.93237110E+02</pdfrwt>
<pdfrwt beam="1">  1       -2 0.24190524E-03 0.93237110E+02</pdfrwt>
<totfact> 0.22839531E+05</totfact>
</mgrwt>
</event>
<event>
 7    1  0.3337990E-009  0.8908459E+02  0.7818608E-02  0.1305084E+00
          2   -1    0    0  501    0  0.00000000000E+00  0.00000000000E+00  0.46432178754E+02  0.46432178824E+02  0.25500000000E-02 0. -1.
         -2   -1    0    0    0  501 -0.00000000000E+00 -0.00000000000E+00 -0.42729335727E+02  0.42729335803E+02  0.25500000000E-02 0.  1.
         23    2    1    2    0    0  0.00000000000E+00  0.00000000000E+00  0.37028430273E+01  0.89161514628E+02  0.89084592631E+02 0.  0.
    9000005    2    3    3    0    0 -0.17432588392E+02  0.21384459140E+02  0.35741969648E+02  0.46880362025E+02  0.12613077281E+02 0.  0.
         22    1    3    3    0    0  0.17432588392E+02 -0.21384459140E+02 -0.32039126621E+02  0.42281152603E+02  0.00000000000E+00 0.  1.
         22    1    4    4    0    0 -0.14939690232E+02  0.88590977275E+01  0.23192948934E+02  0.28975693901E+02  0.00000000000E+00 0. -1.
         22    1    4    4    0    0 -0.24928981607E+01  0.12525361413E+02  0.12549020714E+02  0.17904668124E+02  0.00000000000E+00 0. -1.
<mgrwt>
<rscale>  0 0.89084593E+02</rscale>
<asrwt>0</asrwt>
<pdfrwt beam="1">  1        2 0.71434121E-02 0.89084593E+02</pdfrwt>
<pdfrwt beam="2">  1       -2 0.65737440E-02 0.89084593E+02</pdfrwt>
<totfact> 0.10594478E+05</totfact>
</mgrwt>
</event>
<event>
 7    1  0.3337990E-009  0.9368943E+02  0.7818608E-02  0.1294155E+00
         -2   -1    0    0    0  501 -0.00000000000E+00  0.00000000000E+00  0.60652047667E+01  0.60652053028E+01  0.25500000000E-02 0.  1.
          2   -1    0    0  501    0  0.00000000000E+00 -0.00000000000E+00 -0.36180593629E+03  0.36180593630E+03  0.25500000000E-02 0. -1.
         23    2    1    2    0    0  0.00000000000E+00  0.00000000000E+00 -0.35574073152E+03  0.36787114160E+03  0.93689427144E+02 0.  0.
    9000005    2    3    3    0    0  0.32867269614E+02  0.23035009297E+01 -0.30832928981E+03  0.31013546517E+03  0.56117972620E+01 0.  0.
         22    1    3    3    0    0 -0.32867269614E+02 -0.23035009297E+01 -0.47411441706E+02  0.57735676432E+02  0.00000000000E+00 0.  1.
         22    1    4    4    0    0  0.12409172524E+02 -0.33498013541E+00 -0.13934532340E+03  0.13989717269E+03  0.00000000000E+00 0. -1.
         22    1    4    4    0    0  0.20458097090E+02  0.26384810651E+01 -0.16898396642E+03  0.17023829248E+03  0.00000000000E+00 0. -1.
<mgrwt>
<rscale>  0 0.93689427E+02</rscale>
<asrwt>0</asrwt>
<pdfrwt beam="2">  1        2 0.55662435E-01 0.93689427E+02</pdfrwt>
<pdfrwt beam="1">  1       -2 0.93310875E-03 0.93689427E+02</pdfrwt>
<totfact> 0.17906281E+05</totfact>
</mgrwt>
</event>
<event>
 7    1  0.3337990E-009  0.9091742E+02  0.7818608E-02  0.1300645E+00
         -2   -1    0    0    0  501 -0.00000000000E+00  0.00000000000E+00  0.26795320891E+03  0.26795320892E+03  0.25500000000E-02 0. -1.
          2   -1    0    0  501    0  0.00000000000E+00 -0.00000000000E+00 -0.77121464150E+01  0.77121468366E+01  0.25500000000E-02 0.  1.
         23    2    1    2    0    0  0.00000000000E+00  0.00000000000E+00  0.26024106250E+03  0.27566535576E+03  0.90917422737E+02 0.  0.
    9000005    2    3    3    0    0 -0.30890523056E+02 -0.12428074155E+02  0.22314952714E+03  0.22582096353E+03  0.95244245704E+01 0.  0.
         22    1    3    3    0    0  0.30890523056E+02  0.12428074155E+02  0.37091535352E+02  0.49844392229E+02  0.00000000000E+00 0.  1.
         22    1    4    4    0    0 -0.69499680688E+01  0.12351867297E+01  0.43531526147E+02  0.44100130511E+02  0.00000000000E+00 0. -1.
         22    1    4    4    0    0 -0.23940554988E+02 -0.13663260885E+02  0.17961800100E+03  0.18172083302E+03  0.00000000000E+00 0. -1.
<mgrwt>
<rscale>  0 0.90917423E+02</rscale>
<asrwt>0</asrwt>
<pdfrwt beam="2">  1        2 0.11864840E-02 0.90917423E+02</pdfrwt>
<pdfrwt beam="1">  1       -2 0.41223572E-01 0.90917423E+02</pdfrwt>
<totfact> 0.54620825E+04</totfact>
</mgrwt>
</event>
<event>
 7    1  0.3337990E-009  0.9069885E+02  0.7818608E-02  0.1301168E+00
          2   -1    0    0  501    0  0.00000000000E+00  0.00000000000E+00  0.33353048234E+02  0.33353048332E+02  0.25500000000E-02 0. -1.
         -2   -1    0    0    0  501 -0.00000000000E+00 -0.00000000000E+00 -0.61660641865E+02  0.61660641918E+02  0.25500000000E-02 0.  1.
         23    2    1    2    0    0  0.71054273576E-14  0.35527136788E-14 -0.28307593631E+02  0.95013690250E+02  0.90698850476E+02 0.  0.
    9000005    2    3    3    0    0 -0.38375222480E+02  0.22024344497E+02 -0.21829127851E+02  0.50295685265E+02  0.97680951357E+01 0.  0.
         22    1    3    3    0    0  0.38375222480E+02 -0.22024344497E+02 -0.64784657795E+01  0.44718004985E+02  0.00000000000E+00 0. -1.
         22    1    4    4    0    0 -0.31208275049E+02  0.20765867041E+02 -0.21012831428E+02  0.42973442381E+02  0.00000000000E+00 0.  1.
         22    1    4    4    0    0 -0.71669474317E+01  0.12584774562E+01 -0.81629642317E+00  0.73222428836E+01  0.00000000000E+00 0.  1.
<mgrwt>
<rscale>  0 0.90698850E+02</rscale>
<asrwt>0</asrwt>
<pdfrwt beam="1">  1        2 0.51312382E-02 0.90698850E+02</pdfrwt>
<pdfrwt beam="2">  1       -2 0.94862526E-02 0.90698850E+02</pdfrwt>
<totfact> 0.92397396E+04</totfact>
</mgrwt>
</event>
<event>
 7    1  0.3337990E-009  0.9103126E+02  0.7818608E-02  0.1300373E+00
         -2   -1    0    0    0  501 -0.00000000000E+00  0.00000000000E+00  0.39118328683E+02  0.39118328767E+02  0.25500000000E-02 0. -1.
          2   -1    0    0  501    0  0.00000000000E+00 -0.00000000000E+00 -0.52959130904E+02  0.52959130966E+02  0.25500000000E-02 0.  1.
         23    2    1    2    0    0  0.00000000000E+00  0.35527136788E-14 -0.13840802221E+02  0.92077459732E+02  0.91031262677E+02 0.  0.
    9000005    2    3    3    0    0  0.37158364973E+02  0.17316948127E+02  0.10695881356E+02  0.44300167837E+02  0.12941491893E+02 0.  0.
         22    1    3    3    0    0 -0.37158364973E+02 -0.17316948127E+02 -0.24536683577E+02  0.47777291896E+02  0.00000000000E+00 0. -1.
         22    1    4    4    0    0  0.32947995157E+02  0.19435397980E+02  0.99723927125E+01  0.39531679650E+02  0.00000000000E+00 0.  1.
         22    1    4    4    0    0  0.42103698165E+01 -0.21184498530E+01  0.72348864383E+00  0.47684881869E+01  0.00000000000E+00 0.  1.
<mgrwt>
<rscale>  0 0.91031263E+02</rscale>
<asrwt>0</asrwt>
<pdfrwt beam="2">  1        2 0.81475586E-02 0.91031263E+02</pdfrwt>
<pdfrwt beam="1">  1       -2 0.60182044E-02 0.91031263E+02</pdfrwt>
<totfact> 0.10308006E+05</totfact>
</mgrwt>
</event>
<event>
 7    1  0.3337990E-009  0.9173573E+02  0.7818608E-02  0.1298702E+00
         -2   -1    0    0    0  501 -0.00000000000E+00  0.00000000000E+00  0.56373469221E+02  0.56373469279E+02  0.25500000000E-02 0.  1.
          2   -1    0    0  501    0  0.00000000000E+00 -0.00000000000E+00 -0.37320055261E+02  0.37320055348E+02  0.25500000000E-02 0. -1.
         23    2    1    2    0    0  0.00000000000E+00  0.00000000000E+00  0.19053413960E+02  0.93693524627E+02  0.91735728991E+02 0.  0.
    9000005    2    3    3    0    0 -0.27149453897E+02 -0.17439036045E+02 -0.22514396085E+02  0.41071327247E+02  0.11778924641E+02 0.  0.
         22    1    3    3    0    0  0.27149453897E+02  0.17439036045E+02  0.41567810045E+02  0.52622197379E+02  0.00000000000E+00 0.  1.
         22    1    4    4    0    0 -0.18296042932E+02 -0.48103438340E+01 -0.11916286637E+02  0.22358051838E+02  0.00000000000E+00 0.  1.
         22    1    4    4    0    0 -0.88534109654E+01 -0.12628692211E+02 -0.10598109448E+02  0.18713275410E+02  0.00000000000E+00 0.  1.
<mgrwt>
<rscale>  0 0.91735729E+02</rscale>
<asrwt>0</asrwt>
<pdfrwt beam="2">  1        2 0.57415470E-02 0.91735729E+02</pdfrwt>
<pdfrwt beam="1">  1       -2 0.86728414E-02 0.91735729E+02</pdfrwt>
<totfact> 0.92034448E+04</totfact>
</mgrwt>
</event>
<event>
 7    1  0.3337990E-009  0.9424768E+02  0.7818608E-02  0.1292880E+00
          2   -1    0    0  501    0  0.00000000000E+00  0.00000000000E+00  0.57255561855E+03  0.57255561856E+03  0.25500000000E-02 0.  1.
         -2   -1    0    0    0  501 -0.00000000000E+00 -0.00000000000E+00 -0.38784983800E+01  0.38784992183E+01  0.25500000000E-02 0. -1.
         23    2    1    2    0    0  0.00000000000E+00  0.44408920985E-15  0.56867712017E+03  0.57643411778E+03  0.94247679701E+02 0.  0.
    9000005    2    3    3    0    0  0.23229746041E+02  0.32317322565E+01  0.53320855003E+03  0.53391253899E+03  0.14183662141E+02 0.  0.
         22    1    3    3    0    0 -0.23229746041E+02 -0.32317322565E+01  0.35468570143E+02  0.42521578787E+02  0.00000000000E+00 0. -1.
         22    1    4    4    0    0  0.14353341120E+01  0.36289225638E+01  0.33115524383E+02  0.33344673010E+02  0.00000000000E+00 0.  1.
         22    1    4    4    0    0  0.21794411929E+02 -0.39719030725E+00  0.50009302565E+03  0.50056786598E+03  0.00000000000E+00 0.  1.
<mgrwt>
<rscale>  0 0.94247680E+02</rscale>
<asrwt>0</asrwt>
<pdfrwt beam="1">  1        2 0.88085518E-01 0.94247680E+02</pdfrwt>
<pdfrwt beam="2">  1       -2 0.59669187E-03 0.94247680E+02</pdfrwt>
<totfact> 0.20590303E+05</totfact>
</mgrwt>
</event>
<event>
 7    1  0.3337990E-009  0.9365796E+02  0.7818608E-02  0.1294228E+00
         -2   -1    0    0    0  501 -0.00000000000E+00  0.00000000000E+00  0.60986346167E+01  0.60986351498E+01  0.25500000000E-02 0. -1.
          2   -1    0    0  501    0  0.00000000000E+00 -0.00000000000E+00 -0.35958105496E+03  0.35958105497E+03  0.25500000000E-02 0.  1.
         23    2    1    2    0    0 -0.35527136788E-14 -0.35527136788E-14 -0.35348242034E+03  0.36567969012E+03  0.93657964283E+02 0.  0.
    9000005    2    3    3    0    0 -0.26682586097E+02 -0.17942002341E+02 -0.30964703273E+03  0.31131594249E+03  0.15669467793E+01 0.  0.
         22    1    3    3    0    0  0.26682586097E+02  0.17942002341E+02 -0.43835387610E+02  0.54363747624E+02  0.00000000000E+00 0. -1.
         22    1    4    4    0    0 -0.17281207119E+02 -0.10714904324E+02 -0.19637473484E+03  0.19742463316E+03  0.00000000000E+00 0. -1.
         22    1    4    4    0    0 -0.94013789777E+01 -0.72270980168E+01 -0.11327229789E+03  0.11389130933E+03  0.00000000000E+00 0. -1.
<mgrwt>
<rscale>  0 0.93657964E+02</rscale>
<asrwt>0</asrwt>
<pdfrwt beam="2">  1        2 0.55320146E-01 0.93657964E+02</pdfrwt>
<pdfrwt beam="1">  1       -2 0.93825180E-03 0.93657964E+02</pdfrwt>
<totfact> 0.17881998E+05</totfact>
</mgrwt>
</event>
<event>
 7    1  0.3337990E-009  0.9032830E+02  0.7818608E-02  0.1302059E+00
         -2   -1    0    0    0  501 -0.00000000000E+00  0.00000000000E+00  0.17187508225E+02  0.17187508414E+02  0.25500000000E-02 0.  1.
          2   -1    0    0  501    0  0.00000000000E+00 -0.00000000000E+00 -0.11867924693E+03  0.11867924695E+03  0.25500000000E-02 0. -1.
         23    2    1    2    0    0  0.35527136788E-14  0.00000000000E+00 -0.10149173870E+03  0.13586675537E+03  0.90328302262E+02 0.  0.
    9000005    2    3    3    0    0  0.25274804184E+02 -0.24761881807E+02 -0.91156536039E+01  0.36946041586E+02  0.54725068384E+01 0.  0.
         22    1    3    3    0    0 -0.25274804184E+02  0.24761881807E+02 -0.92376085098E+02  0.98920713782E+02  0.00000000000E+00 0. -1.
         22    1    4    4    0    0  0.63366752284E+01 -0.93778076812E+01 -0.40920720744E+01  0.12035023212E+02  0.00000000000E+00 0.  1.
         22    1    4    4    0    0  0.18938128955E+02 -0.15384074126E+02 -0.50235815296E+01  0.24911018374E+02  0.00000000000E+00 0.  1.
<mgrwt>
<rscale>  0 0.90328302E+02</rscale>
<asrwt>0</asrwt>
<pdfrwt beam="2">  1        2 0.18258345E-01 0.90328302E+02</pdfrwt>
<pdfrwt beam="1">  1       -2 0.26442321E-02 0.90328302E+02</pdfrwt>
<totfact> 0.13275306E+05</totfact>
</mgrwt>
</event>
<event>
 7    1  0.3337990E-009  0.9111690E+02  0.7818608E-02  0.1300169E+00
         -2   -1    0    0    0  501 -0.00000000000E+00  0.00000000000E+00  0.15339148189E+02  0.15339148401E+02  0.25500000000E-02 0.  1.
          2   -1    0    0  501    0  0.00000000000E+00 -0.00000000000E+00 -0.13531210259E+03  0.13531210261E+03  0.25500000000E-02 0. -1.
         23    2    1    2    0    0 -0.44408920985E-15  0.00000000000E+00 -0.11997295440E+03  0.15065125101E+03  0.91116900983E+02 0.  0.
    9000005    2    3    3    0    0  0.26219569029E+01  0.21973463909E+02 -0.12569847341E+03  0.12779322524E+03  0.64260740207E+01 0.  0.
         22    1    3    3    0    0 -0.26219569029E+01 -0.21973463909E+02  0.57255190082E+01  0.22858025769E+02  0.00000000000E+00 0.  1.
         22    1    4    4    0    0  0.75764511677E+00 -0.11405301611E+00 -0.70904966641E+01  0.71317723714E+01  0.00000000000E+00 0. -1.
         22    1    4    4    0    0  0.18643117861E+01  0.22087516925E+02 -0.11860797674E+03  0.12066145287E+03  0.00000000000E+00 0. -1.
<mgrwt>
<rscale>  0 0.91116901E+02</rscale>
<asrwt>0</asrwt>
<pdfrwt beam="2">  1        2 0.20817246E-01 0.91116901E+02</pdfrwt>
<pdfrwt beam="1">  1       -2 0.23598691E-02 0.91116901E+02</pdfrwt>
<totfact> 0.13529517E+05</totfact>
</mgrwt>
</event>
<event>
 7    1  0.3337990E-009  0.9363223E+02  0.7818608E-02  0.1294287E+00
         -2   -1    0    0    0  501 -0.00000000000E+00  0.00000000000E+00  0.97950119634E+01  0.97950122953E+01  0.25500000000E-02 0.  1.
          2   -1    0    0  501    0  0.00000000000E+00 -0.00000000000E+00 -0.22376169537E+03  0.22376169539E+03  0.25500000000E-02 0. -1.
         23    2    1    2    0    0 -0.44408920985E-15 -0.71054273576E-14 -0.21396668341E+03  0.23355670768E+03  0.93632227862E+02 0.  0.
    9000005    2    3    3    0    0 -0.22403024656E+01  0.45489036531E+02 -0.82980310567E+02  0.94878298152E+02  0.64721031102E+01 0.  0.
         22    1    3    3    0    0  0.22403024656E+01 -0.45489036531E+02 -0.13098637284E+03  0.13867840953E+03  0.00000000000E+00 0. -1.
         22    1    4    4    0    0  0.20729816050E+01  0.18882391763E+02 -0.36539344689E+02  0.41182103901E+02  0.00000000000E+00 0.  1.
         22    1    4    4    0    0 -0.43132840706E+01  0.26606644768E+02 -0.46440965878E+02  0.53696194250E+02  0.00000000000E+00 0.  1.
<mgrwt>
<rscale>  0 0.93632228E+02</rscale>
<asrwt>0</asrwt>
<pdfrwt beam="2">  1        2 0.34424872E-01 0.93632228E+02</pdfrwt>
<pdfrwt beam="1">  1       -2 0.15069251E-02 0.93632228E+02</pdfrwt>
<totfact> 0.15001737E+05</totfact>
</mgrwt>
</event>
<event>
 7    1  0.3337990E-009  0.9099933E+02  0.7818608E-02  0.1300450E+00
         -2   -1    0    0    0  501 -0.00000000000E+00  0.00000000000E+00  0.16911120655E+02  0.16911120847E+02  0.25500000000E-02 0.  1.
          2   -1    0    0  501    0  0.00000000000E+00 -0.00000000000E+00 -0.12241764538E+03  0.12241764540E+03  0.25500000000E-02 0. -1.
         23    2    1    2    0    0  0.35527136788E-14 -0.71054273576E-14 -0.10550652472E+03  0.13932876625E+03  0.90999331569E+02 0.  0.
    9000005    2    3    3    0    0 -0.17779509344E+02 -0.41058760190E+02 -0.50892715164E+02  0.68727059931E+02  0.11463314056E+02 0.  0.
         22    1    3    3    0    0  0.17779509344E+02  0.41058760190E+02 -0.54613809556E+02  0.70601706318E+02  0.00000000000E+00 0. -1.
         22    1    4    4    0    0 -0.15671918639E+02 -0.36081598279E+02 -0.49341861505E+02  0.63103962355E+02  0.00000000000E+00 0.  1.
         22    1    4    4    0    0 -0.21075907056E+01 -0.49771619110E+01 -0.15508536586E+01  0.56230975753E+01  0.00000000000E+00 0.  1.
<mgrwt>
<rscale>  0 0.90999332E+02</rscale>
<asrwt>0</asrwt>
<pdfrwt beam="2">  1        2 0.18833483E-01 0.90999332E+02</pdfrwt>
<pdfrwt beam="1">  1       -2 0.26017110E-02 0.90999332E+02</pdfrwt>
<totfact> 0.13139716E+05</totfact>
</mgrwt>
</event>
<event>
 7    1  0.3337990E-009  0.1086437E+03  0.7818608E-02  0.1263102E+00
          2   -1    0    0  501    0  0.00000000000E+00  0.00000000000E+00  0.20533916738E+02  0.20533916897E+02  0.25500000000E-02 0. -1.
         -2   -1    0    0    0  501 -0.00000000000E+00 -0.00000000000E+00 -0.14370689018E+03  0.14370689020E+03  0.25500000000E-02 0.  1.
         23    2    1    2    0    0  0.71054273576E-14 -0.17763568394E-14 -0.12317297344E+03  0.16424080710E+03  0.10864373581E+03 0.  0.
    9000005    2    3    3    0    0  0.40485441360E+02  0.13643190383E+02 -0.11084242600E+03  0.11977452767E+03  0.15319480112E+02 0.  0.
         22    1    3    3    0    0 -0.40485441360E+02 -0.13643190383E+02 -0.12330547440E+02  0.44466279428E+02  0.00000000000E+00 0. -1.
         22    1    4    4    0    0  0.32160587939E+02  0.70999760325E+01 -0.96368099698E+02  0.10184067810E+03  0.00000000000E+00 0. -1.
         22    1    4    4    0    0  0.83248534212E+01  0.65432143504E+01 -0.14474326303E+02  0.17933849571E+02  0.00000000000E+00 0. -1.
<mgrwt>
<rscale>  0 0.10864374E+03</rscale>
<asrwt>0</asrwt>
<pdfrwt beam="1">  1        2 0.31590642E-02 0.10864374E+03</pdfrwt>
<pdfrwt beam="2">  1       -2 0.22108752E-01 0.10864374E+03</pdfrwt>
<totfact> 0.45547772E+04</totfact>
</mgrwt>
</event>
<event>
 7    1  0.3337990E-009  0.1220141E+03  0.7818608E-02  0.1239811E+00
          2   -1    0    0  501    0  0.00000000000E+00  0.00000000000E+00  0.78896197427E+03  0.78896197427E+03  0.25500000000E-02 0. -1.
         -2   -1    0    0    0  501 -0.00000000000E+00 -0.00000000000E+00 -0.47174129589E+01  0.47174136481E+01  0.25500000000E-02 0.  1.
         23    2    1    2    0    0  0.00000000000E+00  0.00000000000E+00  0.78424456131E+03  0.79367938792E+03  0.12201409290E+03 0.  0.
    9000005    2    3    3    0    0  0.67710833026E+01  0.56205464009E+02  0.53153781973E+03  0.53470912130E+03  0.13284910423E+02 0.  0.
         22    1    3    3    0    0 -0.67710833026E+01 -0.56205464009E+02  0.25270674158E+03  0.25897026662E+03  0.00000000000E+00 0. -1.
         22    1    4    4    0    0  0.31447285930E+01  0.25874442441E+02  0.18492747250E+03  0.18675531097E+03  0.00000000000E+00 0.  1.
         22    1    4    4    0    0  0.36263547096E+01  0.30331021568E+02  0.34661034723E+03  0.34795381033E+03  0.00000000000E+00 0.  1.
<mgrwt>
<rscale>  0 0.12201409E+03</rscale>
<asrwt>0</asrwt>
<pdfrwt beam="1">  1        2 0.12137892E+00 0.12201409E+03</pdfrwt>
<pdfrwt beam="2">  1       -2 0.72575499E-03 0.12201409E+03</pdfrwt>
<totfact> 0.11155757E+05</totfact>
</mgrwt>
</event>
<event>
 7    1  0.3337990E-009  0.8995666E+02  0.7818608E-02  0.1302957E+00
          2   -1    0    0  501    0  0.00000000000E+00  0.00000000000E+00  0.93435413044E+01  0.93435416524E+01  0.25500000000E-02 0. -1.
         -2   -1    0    0    0  501 -0.00000000000E+00 -0.00000000000E+00 -0.21651856940E+03  0.21651856942E+03  0.25500000000E-02 0.  1.
         23    2    1    2    0    0 -0.35527136788E-14  0.00000000000E+00 -0.20717502810E+03  0.22586211107E+03  0.89956661507E+02 0.  0.
    9000005    2    3    3    0    0 -0.27264782665E+02  0.33380354956E+02 -0.83268399000E+02  0.94673433185E+02  0.13107868181E+02 0.  0.
         22    1    3    3    0    0  0.27264782665E+02 -0.33380354956E+02 -0.12390662910E+03  0.13118867788E+03  0.00000000000E+00 0. -1.
         22    1    4    4    0    0  0.98424019887E+00  0.45281929937E+01 -0.74675243469E+01  0.87884686054E+01  0.00000000000E+00 0.  1.
         22    1    4    4    0    0 -0.28249022863E+02  0.28852161962E+02 -0.75800874653E+02  0.85884964580E+02  0.00000000000E+00 0.  1.
<mgrwt>
<rscale>  0 0.89956662E+02</rscale>
<asrwt>0</asrwt>
<pdfrwt beam="1">  1        2 0.14374681E-02 0.89956662E+02</pdfrwt>
<pdfrwt beam="2">  1       -2 0.33310545E-01 0.89956662E+02</pdfrwt>
<totfact> 0.62270302E+04</totfact>
</mgrwt>
</event>
<event>
 7    1  0.3337990E-009  0.9153577E+02  0.7818608E-02  0.1299175E+00
         -2   -1    0    0    0  501 -0.00000000000E+00  0.00000000000E+00  0.24550406247E+02  0.24550406379E+02  0.25500000000E-02 0.  1.
          2   -1    0    0  501    0  0.00000000000E+00 -0.00000000000E+00 -0.85322391788E+02  0.85322391826E+02  0.25500000000E-02 0. -1.
         23    2    1    2    0    0  0.00000000000E+00  0.17763568394E-14 -0.60771985541E+02  0.10987279820E+03  0.91535772017E+02 0.  0.
    9000005    2    3    3    0    0  0.42193487674E+02 -0.13931333891E+02 -0.32913424379E+02  0.57427856636E+02  0.15501378886E+02 0.  0.
         22    1    3    3    0    0 -0.42193487674E+02  0.13931333891E+02 -0.27858561162E+02  0.52444941569E+02  0.00000000000E+00 0.  1.
         22    1    4    4    0    0  0.97598195523E+00  0.14975019621E+01 -0.50044941879E+01  0.53141335117E+01  0.00000000000E+00 0.  1.
         22    1    4    4    0    0  0.41217505719E+02 -0.15428835853E+02 -0.27908930191E+02  0.52113723124E+02  0.00000000000E+00 0.  1.
<mgrwt>
<rscale>  0 0.91535772E+02</rscale>
<asrwt>0</asrwt>
<pdfrwt beam="2">  1        2 0.13126522E-01 0.91535772E+02</pdfrwt>
<pdfrwt beam="1">  1       -2 0.37769856E-02 0.91535772E+02</pdfrwt>
<totfact> 0.11574200E+05</totfact>
</mgrwt>
</event>
<event>
 7    1  0.3337990E-009  0.9039688E+02  0.7818608E-02  0.1301893E+00
          2   -1    0    0  501    0  0.00000000000E+00  0.00000000000E+00  0.32263562259E+03  0.32263562260E+03  0.25500000000E-02 0. -1.
         -2   -1    0    0    0  501 -0.00000000000E+00 -0.00000000000E+00 -0.63319077818E+01  0.63319082952E+01  0.25500000000E-02 0.  1.
         23    2    1    2    0    0  0.00000000000E+00  0.00000000000E+00  0.31630371481E+03  0.32896753090E+03  0.90396882590E+02 0.  0.
    9000005    2    3    3    0    0 -0.41161460260E+02 -0.15458160150E+02  0.19348096476E+03  0.19851198883E+03  0.62374240716E+01 0.  0.
         22    1    3    3    0    0  0.41161460260E+02  0.15458160150E+02  0.12282275005E+03  0.13045554207E+03  0.00000000000E+00 0.  1.
         22    1    4    4    0    0 -0.36710926567E+01 -0.16147164183E+01  0.11061587007E+02  0.11766177693E+02  0.00000000000E+00 0. -1.
         22    1    4    4    0    0 -0.37490367604E+02 -0.13843443732E+02  0.18241937775E+03  0.18674581114E+03  0.00000000000E+00 0. -1.
<mgrwt>
<rscale>  0 0.90396883E+02</rscale>
<asrwt>0</asrwt>
<pdfrwt beam="1">  1        2 0.49636245E-01 0.90396883E+02</pdfrwt>
<pdfrwt beam="2">  1       -2 0.97413979E-03 0.90396883E+02</pdfrwt>
<totfact> 0.18885020E+05</totfact>
</mgrwt>
</event>
<event>
 7    1  0.3337990E-009  0.9117069E+02  0.7818608E-02  0.1300041E+00
          2   -1    0    0  501    0  0.00000000000E+00  0.00000000000E+00  0.10803881444E+04  0.10803881444E+04  0.25500000000E-02 0. -1.
         -2   -1    0    0    0  501 -0.00000000000E+00 -0.00000000000E+00 -0.19234040910E+01  0.19234057813E+01  0.25500000000E-02 0.  1.
         23    2    1    2    0    0  0.00000000000E+00 -0.17763568394E-14  0.10784647403E+04  0.10823115501E+04  0.91170694701E+02 0.  0.
    9000005    2    3    3    0    0  0.31877586208E+02  0.96077028944E+01  0.90882992365E+03  0.90944032794E+03  0.11796197258E+01 0.  0.
         22    1    3    3    0    0 -0.31877586208E+02 -0.96077028944E+01  0.16963481661E+03  0.17287122220E+03  0.00000000000E+00 0.  1.
         22    1    4    4    0    0  0.24346896203E+00 -0.18722750567E-01  0.80285753840E+01  0.80322879912E+01  0.00000000000E+00 0.  1.
         22    1    4    4    0    0  0.31634117246E+02  0.96264256450E+01  0.90080134827E+03  0.90140803995E+03  0.00000000000E+00 0.  1.
<mgrwt>
<rscale>  0 0.91170695E+02</rscale>
<asrwt>0</asrwt>
<pdfrwt beam="1">  1        2 0.16621352E+00 0.91170695E+02</pdfrwt>
<pdfrwt beam="2">  1       -2 0.29590853E-03 0.91170695E+02</pdfrwt>
<totfact> 0.25033891E+05</totfact>
</mgrwt>
</event>
<event>
 7    1  0.3337990E-009  0.9499201E+02  0.7818608E-02  0.1291194E+00
          2   -1    0    0  501    0  0.00000000000E+00  0.00000000000E+00  0.95835919440E+03  0.95835919440E+03  0.25500000000E-02 0.  1.
         -2   -1    0    0    0  501 -0.00000000000E+00 -0.00000000000E+00 -0.23538877195E+01  0.23538891007E+01  0.25500000000E-02 0. -1.
         23    2    1    2    0    0  0.00000000000E+00  0.00000000000E+00  0.95600530668E+03  0.96071308350E+03  0.94992012374E+02 0.  0.
    9000005    2    3    3    0    0 -0.23186291213E+02  0.20789064359E+02  0.83829774740E+03  0.83895570669E+03  0.11566122653E+02 0.  0.
         22    1    3    3    0    0  0.23186291213E+02 -0.20789064359E+02  0.11770755928E+03  0.12175737682E+03  0.00000000000E+00 0. -1.
         22    1    4    4    0    0 -0.23740232954E+02  0.19680790031E+02  0.82929048491E+03  0.82986362767E+03  0.00000000000E+00 0.  1.
         22    1    4    4    0    0  0.55394174169E+00  0.11082743280E+01  0.90072624844E+01  0.90920790198E+01  0.00000000000E+00 0.  1.
<mgrwt>
<rscale>  0 0.94992012E+02</rscale>
<asrwt>0</asrwt>
<pdfrwt beam="1">  1        2 0.14743999E+00 0.94992012E+02</pdfrwt>
<pdfrwt beam="2">  1       -2 0.36213639E-03 0.94992012E+02</pdfrwt>
<totfact> 0.22382538E+05</totfact>
</mgrwt>
</event>
<event>
 7    1  0.3337990E-009  0.9185065E+02  0.7818608E-02  0.1298431E+00
         -2   -1    0    0    0  501 -0.00000000000E+00  0.00000000000E+00  0.17185867128E+03  0.17185867130E+03  0.25500000000E-02 0.  1.
          2   -1    0    0  501    0  0.00000000000E+00 -0.00000000000E+00 -0.12272498610E+02  0.12272498875E+02  0.25500000000E-02 0. -1.
         23    2    1    2    0    0  0.44408920985E-15  0.35527136788E-14  0.15958617267E+03  0.18413117018E+03  0.91850646825E+02 0.  0.
    9000005    2    3    3    0    0  0.33438345745E+01  0.26079665308E+02  0.15497980532E+03  0.15743756060E+03  0.87473000442E+01 0.  0.
         22    1    3    3    0    0 -0.33438345745E+01 -0.26079665308E+02  0.46063673563E+01  0.26693609581E+02  0.00000000000E+00 0. -1.
         22    1    4    4    0    0  0.59595744555E+01  0.22227607630E+02  0.13195828956E+03  0.13394989083E+03  0.00000000000E+00 0. -1.
         22    1    4    4    0    0 -0.26157398810E+01  0.38520576783E+01  0.23021515753E+02  0.23487669766E+02  0.00000000000E+00 0. -1.
<mgrwt>
<rscale>  0 0.91850647E+02</rscale>
<asrwt>0</asrwt>
<pdfrwt beam="2">  1        2 0.18880768E-02 0.91850647E+02</pdfrwt>
<pdfrwt beam="1">  1       -2 0.26439794E-01 0.91850647E+02</pdfrwt>
<totfact> 0.65117975E+04</totfact>
</mgrwt>
</event>
<event>
 7    1  0.3337990E-009  0.9404122E+02  0.7818608E-02  0.1293350E+00
          2   -1    0    0  501    0  0.00000000000E+00  0.00000000000E+00  0.34053264908E+02  0.34053265003E+02  0.25500000000E-02 0. -1.
         -2   -1    0    0    0  501 -0.00000000000E+00 -0.00000000000E+00 -0.64925873856E+02  0.64925873906E+02  0.25500000000E-02 0.  1.
         23    2    1    2    0    0  0.00000000000E+00  0.00000000000E+00 -0.30872608948E+02  0.98979138909E+02  0.94041224769E+02 0.  0.
    9000005    2    3    3    0    0 -0.18418962991E+02  0.31239608879E+02  0.15672050771E+02  0.39974251748E+02  0.60955940561E+01 0.  0.
         22    1    3    3    0    0  0.18418962991E+02 -0.31239608879E+02 -0.46544659719E+02  0.59004887161E+02  0.00000000000E+00 0.  1.
         22    1    4    4    0    0 -0.90324099452E+01  0.17268504339E+02  0.52708790249E+01  0.20188309419E+02  0.00000000000E+00 0. -1.
         22    1    4    4    0    0 -0.93865530454E+01  0.13971104540E+02  0.10401171746E+02  0.19785942329E+02  0.00000000000E+00 0. -1.
<mgrwt>
<rscale>  0 0.94041225E+02</rscale>
<asrwt>0</asrwt>
<pdfrwt beam="1">  1        2 0.52389639E-02 0.94041225E+02</pdfrwt>
<pdfrwt beam="2">  1       -2 0.99885959E-02 0.94041225E+02</pdfrwt>
<totfact> 0.83505693E+04</totfact>
</mgrwt>
</event>
<event>
 7    1  0.3337990E-009  0.1139319E+03  0.7818608E-02  0.1253457E+00
         -2   -1    0    0    0  501 -0.00000000000E+00  0.00000000000E+00  0.72102664519E+02  0.72102664564E+02  0.25500000000E-02 0.  1.
          2   -1    0    0  501    0  0.00000000000E+00 -0.00000000000E+00 -0.45006922060E+02  0.45006922132E+02  0.25500000000E-02 0. -1.
         23    2    1    2    0    0  0.17763568394E-14 -0.71054273576E-14  0.27095742460E+02  0.11710958670E+03  0.11393189210E+03 0.  0.
    9000005    2    3    3    0    0  0.66651772738E+01 -0.37819745153E+02 -0.27901887475E+02  0.50031296542E+02  0.15806884497E+02 0.  0.
         22    1    3    3    0    0 -0.66651772738E+01  0.37819745153E+02  0.54997629934E+02  0.67078290154E+02  0.00000000000E+00 0.  1.
         22    1    4    4    0    0  0.10355066761E+02 -0.19211423674E+02 -0.10223166336E+02  0.24100193716E+02  0.00000000000E+00 0.  1.
         22    1    4    4    0    0 -0.36898894869E+01 -0.18608321479E+02 -0.17678721139E+02  0.25931102826E+02  0.00000000000E+00 0.  1.
<mgrwt>
<rscale>  0 0.11393189E+03</rscale>
<asrwt>0</asrwt>
<pdfrwt beam="2">  1        2 0.69241419E-02 0.11393189E+03</pdfrwt>
<pdfrwt beam="1">  1       -2 0.11092718E-01 0.11393189E+03</pdfrwt>
<totfact> 0.51021825E+04</totfact>
</mgrwt>
</event>
<event>
 7    1  0.3337990E-009  0.9091353E+02  0.7818608E-02  0.1300654E+00
          2   -1    0    0  501    0  0.00000000000E+00  0.00000000000E+00  0.58814241617E+02  0.58814241672E+02  0.25500000000E-02 0. -1.
         -2   -1    0    0    0  501 -0.00000000000E+00 -0.00000000000E+00 -0.35132941950E+02  0.35132942043E+02  0.25500000000E-02 0.  1.
         23    2    1    2    0    0  0.00000000000E+00  0.00000000000E+00  0.23681299667E+02  0.93947183715E+02  0.90913526904E+02 0.  0.
    9000005    2    3    3    0    0 -0.30089413402E+01 -0.34506533520E+02 -0.16740229233E+02  0.40715101450E+02  0.13331527586E+02 0.  0.
         22    1    3    3    0    0  0.30089413402E+01  0.34506533520E+02  0.40421528900E+02  0.53232082265E+02  0.00000000000E+00 0. -1.
         22    1    4    4    0    0  0.18549771859E+01 -0.14290810153E+02 -0.13357327918E+02  0.19649081513E+02  0.00000000000E+00 0.  1.
         22    1    4    4    0    0 -0.48639185261E+01 -0.20215723368E+02 -0.33829013149E+01  0.21066019938E+02  0.00000000000E+00 0.  1.
<mgrwt>
<rscale>  0 0.90913527E+02</rscale>
<asrwt>0</asrwt>
<pdfrwt beam="1">  1        2 0.90483447E-02 0.90913527E+02</pdfrwt>
<pdfrwt beam="2">  1       -2 0.54050681E-02 0.90913527E+02</pdfrwt>
<totfact> 0.10636881E+05</totfact>
</mgrwt>
</event>
<event>
 7    1  0.3337990E-009  0.9002979E+02  0.7818608E-02  0.1302780E+00
         -2   -1    0    0    0  501 -0.00000000000E+00  0.00000000000E+00  0.45858378354E+03  0.45858378354E+03  0.25500000000E-02 0.  1.
          2   -1    0    0  501    0  0.00000000000E+00 -0.00000000000E+00 -0.44186921056E+01  0.44186928414E+01  0.25500000000E-02 0. -1.
         23    2    1    2    0    0  0.00000000000E+00  0.00000000000E+00  0.45416509143E+03  0.46300247639E+03  0.90029788760E+02 0.  0.
    9000005    2    3    3    0    0  0.17013528824E+02 -0.91144934261E+01  0.43604879106E+03  0.43653108631E+03  0.69503219826E+01 0.  0.
         22    1    3    3    0    0 -0.17013528824E+02  0.91144934261E+01  0.18116300373E+02  0.26471390078E+02  0.00000000000E+00 0. -1.
         22    1    4    4    0    0  0.73810808116E+01 -0.65310699902E+01  0.27278499728E+03  0.27296298278E+03  0.00000000000E+00 0. -1.
         22    1    4    4    0    0  0.96324480124E+01 -0.25834234359E+01  0.16326379378E+03  0.16356810352E+03  0.00000000000E+00 0. -1.
<mgrwt>
<rscale>  0 0.90029789E+02</rscale>
<asrwt>0</asrwt>
<pdfrwt beam="2">  1        2 0.67979858E-03 0.90029789E+02</pdfrwt>
<pdfrwt beam="1">  1       -2 0.70551379E-01 0.90029789E+02</pdfrwt>
<totfact> 0.40052341E+04</totfact>
</mgrwt>
</event>
<event>
 7    1  0.3337990E-009  0.8812330E+02  0.7818608E-02  0.1307461E+00
         -2   -1    0    0    0  501 -0.00000000000E+00  0.00000000000E+00  0.22666756022E+03  0.22666756024E+03  0.25500000000E-02 0.  1.
          2   -1    0    0  501    0  0.00000000000E+00 -0.00000000000E+00 -0.85650941978E+01  0.85650945774E+01  0.25500000000E-02 0. -1.
         23    2    1    2    0    0  0.00000000000E+00 -0.49960036108E-15  0.21810246603E+03  0.23523265482E+03  0.88123301146E+02 0.  0.
    9000005    2    3    3    0    0  0.35352790133E+02 -0.48382212660E+00  0.17871990714E+03  0.18230780434E+03  0.67287783903E+01 0.  0.
         22    1    3    3    0    0 -0.35352790133E+02  0.48382212660E+00  0.39382558882E+02  0.52924850479E+02  0.00000000000E+00 0. -1.
         22    1    4    4    0    0  0.19921601369E+02 -0.29537132692E+01  0.90424805638E+02  0.92640380493E+02  0.00000000000E+00 0.  1.
         22    1    4    4    0    0  0.15431188765E+02  0.24698911426E+01  0.88295101506E+02  0.89667423845E+02  0.00000000000E+00 0.  1.
<mgrwt>
<rscale>  0 0.88123301E+02</rscale>
<asrwt>0</asrwt>
<pdfrwt beam="2">  1        2 0.13177067E-02 0.88123301E+02</pdfrwt>
<pdfrwt beam="1">  1       -2 0.34871935E-01 0.88123301E+02</pdfrwt>
<totfact> 0.64265321E+04</totfact>
</mgrwt>
</event>
<event>
 7    1  0.3337990E-009  0.8999949E+02  0.7818608E-02  0.1302853E+00
          2   -1    0    0  501    0  0.00000000000E+00  0.00000000000E+00  0.83607161356E+03  0.83607161357E+03  0.25500000000E-02 0.  1.
         -2   -1    0    0    0  501 -0.00000000000E+00 -0.00000000000E+00 -0.24220129424E+01  0.24220142848E+01  0.25500000000E-02 0. -1.
         23    2    1    2    0    0 -0.35527136788E-14  0.00000000000E+00  0.83364960062E+03  0.83849362785E+03  0.89999485182E+02 0.  0.
    9000005    2    3    3    0    0  0.24888206038E+02 -0.31557121389E+02  0.59297866569E+03  0.59448999339E+03  0.13393265742E+02 0.  0.
         22    1    3    3    0    0 -0.24888206038E+02  0.31557121389E+02  0.24067093493E+03  0.24400363446E+03  0.00000000000E+00 0. -1.
         22    1    4    4    0    0  0.20836797115E+02 -0.26261461157E+02  0.40214626999E+03  0.40354114899E+03  0.00000000000E+00 0.  1.
         22    1    4    4    0    0  0.40514089227E+01 -0.52956602316E+01  0.19083239570E+03  0.19094884440E+03  0.00000000000E+00 0.  1.
<mgrwt>
<rscale>  0 0.89999485E+02</rscale>
<asrwt>0</asrwt>
<pdfrwt beam="1">  1        2 0.12862660E+00 0.89999485E+02</pdfrwt>
<pdfrwt beam="2">  1       -2 0.37261690E-03 0.89999485E+02</pdfrwt>
<totfact> 0.25406286E+05</totfact>
</mgrwt>
</event>
<event>
 7    1  0.3337990E-009  0.8410786E+02  0.7818608E-02  0.1317782E+00
          2   -1    0    0  501    0  0.00000000000E+00  0.00000000000E+00  0.44213451105E+03  0.44213451106E+03  0.25500000000E-02 0. -1.
         -2   -1    0    0    0  501 -0.00000000000E+00 -0.00000000000E+00 -0.39999882922E+01  0.39999891050E+01  0.25500000000E-02 0.  1.
         23    2    1    2    0    0  0.00000000000E+00 -0.35527136788E-14  0.43813452276E+03  0.44613450016E+03  0.84107860529E+02 0.  0.
    9000005    2    3    3    0    0  0.16493053912E+02  0.22249586503E+02  0.38529085621E+03  0.38647280373E+03  0.12046543798E+02 0.  0.
         22    1    3    3    0    0 -0.16493053912E+02 -0.22249586503E+02  0.52843666548E+02  0.59661696432E+02  0.00000000000E+00 0.  1.
         22    1    4    4    0    0  0.10939653002E+02  0.91093390026E+01  0.12853012200E+03  0.12931607915E+03  0.00000000000E+00 0. -1.
         22    1    4    4    0    0  0.55534009099E+01  0.13140247500E+02  0.25676073421E+03  0.25715672458E+03  0.00000000000E+00 0. -1.
<mgrwt>
<rscale>  0 0.84107861E+02</rscale>
<asrwt>0</asrwt>
<pdfrwt beam="1">  1        2 0.68020675E-01 0.84107861E+02</pdfrwt>
<pdfrwt beam="2">  1       -2 0.61538305E-03 0.84107861E+02</pdfrwt>
<totfact> 0.25585775E+05</totfact>
</mgrwt>
</event>
<event>
 7    1  0.3337990E-009  0.9161538E+02  0.7818608E-02  0.1298986E+00
         -2   -1    0    0    0  501 -0.00000000000E+00  0.00000000000E+00  0.46659508852E+01  0.46659515820E+01  0.25500000000E-02 0.  1.
          2   -1    0    0  501    0  0.00000000000E+00 -0.00000000000E+00 -0.44971420442E+03  0.44971420443E+03  0.25500000000E-02 0. -1.
         23    2    1    2    0    0 -0.71054273576E-14  0.88817841970E-15 -0.44504825354E+03  0.45438015601E+03  0.91615381900E+02 0.  0.
    9000005    2    3    3    0    0 -0.44022060064E+02 -0.68202402648E+01 -0.22160351292E+03  0.22653808449E+03  0.15064173813E+02 0.  0.
         22    1    3    3    0    0  0.44022060064E+02  0.68202402648E+01 -0.22344474061E+03  0.22784207153E+03  0.00000000000E+00 0.  1.
         22    1    4    4    0    0 -0.55244804312E+01  0.42431025572E+01 -0.31824242919E+02  0.32577695448E+02  0.00000000000E+00 0.  1.
         22    1    4    4    0    0 -0.38497579633E+02 -0.11063342822E+02 -0.18977927001E+03  0.19396038904E+03  0.00000000000E+00 0.  1.
<mgrwt>
<rscale>  0 0.91615382E+02</rscale>
<asrwt>0</asrwt>
<pdfrwt beam="2">  1        2 0.69186767E-01 0.91615382E+02</pdfrwt>
<pdfrwt beam="1">  1       -2 0.71783900E-03 0.91615382E+02</pdfrwt>
<totfact> 0.20536444E+05</totfact>
</mgrwt>
</event>
<event>
 7    1  0.3337990E-009  0.8972443E+02  0.7818608E-02  0.1303520E+00
          2   -1    0    0  501    0  0.00000000000E+00  0.00000000000E+00  0.28815126426E+03  0.28815126427E+03  0.25500000000E-02 0. -1.
         -2   -1    0    0    0  501 -0.00000000000E+00 -0.00000000000E+00 -0.69845891430E+01  0.69845896085E+01  0.25500000000E-02 0.  1.
         23    2    1    2    0    0  0.35527136788E-14  0.35527136788E-14  0.28116667512E+03  0.29513585388E+03  0.89724428385E+02 0.  0.
    9000005    2    3    3    0    0  0.20016204542E+02  0.30572182724E+02  0.61245405868E+02  0.72199379814E+02  0.11244727869E+02 0.  0.
         22    1    3    3    0    0 -0.20016204542E+02 -0.30572182724E+02  0.21992126925E+03  0.22293647407E+03  0.00000000000E+00 0. -1.
         22    1    4    4    0    0  0.10522371503E+02  0.20796768417E+02  0.47138066527E+02  0.52585389554E+02  0.00000000000E+00 0.  1.
         22    1    4    4    0    0  0.94938330389E+01  0.97754143069E+01  0.14107339341E+02  0.19613990260E+02  0.00000000000E+00 0.  1.
<mgrwt>
<rscale>  0 0.89724428E+02</rscale>
<asrwt>0</asrwt>
<pdfrwt beam="1">  1        2 0.44330963E-01 0.89724428E+02</pdfrwt>
<pdfrwt beam="2">  1       -2 0.10745522E-02 0.89724428E+02</pdfrwt>
<totfact> 0.18472436E+05</totfact>
</mgrwt>
</event>
<event>
 7    1  0.3337990E-009  0.8097069E+02  0.7818608E-02  0.1326319E+00
          2   -1    0    0  501    0  0.00000000000E+00  0.00000000000E+00  0.54253607937E+03  0.54253607937E+03  0.25500000000E-02 0.  1.
         -2   -1    0    0    0  501 -0.00000000000E+00 -0.00000000000E+00 -0.30211131457E+01  0.30211142219E+01  0.25500000000E-02 0. -1.
         23    2    1    2    0    0  0.00000000000E+00  0.00000000000E+00  0.53951496622E+03  0.54555719359E+03  0.80970690415E+02 0.  0.
    9000005    2    3    3    0    0  0.26941091566E+02 -0.19332334921E+02  0.42480024807E+03  0.42614602096E+03  0.67541717435E+01 0.  0.
         22    1    3    3    0    0 -0.26941091566E+02  0.19332334921E+02  0.11471471815E+03  0.11941117263E+03  0.00000000000E+00 0. -1.
         22    1    4    4    0    0  0.13857737570E+02 -0.10608388420E+02  0.26495044497E+03  0.26552459977E+03  0.00000000000E+00 0. -1.
         22    1    4    4    0    0  0.13083353997E+02 -0.87239465008E+01  0.15984980310E+03  0.16062142119E+03  0.00000000000E+00 0. -1.
<mgrwt>
<rscale>  0 0.80970690E+02</rscale>
<asrwt>0</asrwt>
<pdfrwt beam="1">  1        2 0.83467081E-01 0.80970690E+02</pdfrwt>
<pdfrwt beam="2">  1       -2 0.46478677E-03 0.80970690E+02</pdfrwt>
<totfact> 0.30208908E+05</totfact>
</mgrwt>
</event>
<event>
 7    1  0.3337990E-009  0.9357939E+02  0.7818608E-02  0.1294408E+00
         -2   -1    0    0    0  501 -0.00000000000E+00  0.00000000000E+00  0.33831204651E+02  0.33831204747E+02  0.25500000000E-02 0.  1.
          2   -1    0    0  501    0  0.00000000000E+00 -0.00000000000E+00 -0.64711716525E+02  0.64711716575E+02  0.25500000000E-02 0. -1.
         23    2    1    2    0    0  0.71054273576E-14  0.00000000000E+00 -0.30880511874E+02  0.98542921321E+02  0.93579385171E+02 0.  0.
    9000005    2    3    3    0    0  0.45048659975E+02 -0.63498735211E+01 -0.52035106926E+01  0.46302984023E+02  0.68692901049E+01 0.  0.
         22    1    3    3    0    0 -0.45048659975E+02  0.63498735211E+01 -0.25677001181E+02  0.52239937299E+02  0.00000000000E+00 0. -1.
         22    1    4    4    0    0  0.28703407805E+02 -0.69993770951E+00 -0.29691870246E+01  0.28865058531E+02  0.00000000000E+00 0.  1.
         22    1    4    4    0    0  0.16345252170E+02 -0.56499358115E+01 -0.22343236680E+01  0.17437925491E+02  0.00000000000E+00 0.  1.
<mgrwt>
<rscale>  0 0.93579385E+02</rscale>
<asrwt>0</asrwt>
<pdfrwt beam="2">  1        2 0.99556487E-02 0.93579385E+02</pdfrwt>
<pdfrwt beam="1">  1       -2 0.52048007E-02 0.93579385E+02</pdfrwt>
<totfact> 0.10060778E+05</totfact>
</mgrwt>
</event>
<event>
 7    1  0.3337990E-009  0.9067330E+02  0.7818608E-02  0.1301229E+00
          2   -1    0    0  501    0  0.00000000000E+00  0.00000000000E+00  0.17952244881E+03  0.17952244882E+03  0.25500000000E-02 0. -1.
         -2   -1    0    0    0  501 -0.00000000000E+00 -0.00000000000E+00 -0.11449330927E+02  0.11449331211E+02  0.25500000000E-02 0.  1.
         23    2    1    2    0    0  0.00000000000E+00  0.55511151231E-16  0.16807311788E+03  0.19097178004E+03  0.90673302665E+02 0.  0.
    9000005    2    3    3    0    0 -0.39075241024E+02 -0.29821877420E+00  0.42600986674E+02  0.59555574396E+02  0.14319880603E+02 0.  0.
         22    1    3    3    0    0  0.39075241024E+02  0.29821877420E+00  0.12547213121E+03  0.13141620564E+03  0.00000000000E+00 0. -1.
         22    1    4    4    0    0 -0.34941068350E+01 -0.50483788136E+00  0.12374698717E+02  0.12868442493E+02  0.00000000000E+00 0.  1.
         22    1    4    4    0    0 -0.35581134189E+02  0.20661910716E+00  0.30226287957E+02  0.46687131902E+02  0.00000000000E+00 0.  1.
<mgrwt>
<rscale>  0 0.90673303E+02</rscale>
<asrwt>0</asrwt>
<pdfrwt beam="1">  1        2 0.27618836E-01 0.90673303E+02</pdfrwt>
<pdfrwt beam="2">  1       -2 0.17614357E-02 0.90673303E+02</pdfrwt>
<totfact> 0.15104621E+05</totfact>
</mgrwt>
</event>
<event>
 7    1  0.3337990E-009  0.9253856E+02  0.7818608E-02  0.1296818E+00
          2   -1    0    0  501    0  0.00000000000E+00  0.00000000000E+00  0.10164969952E+03  0.10164969955E+03  0.25500000000E-02 0. -1.
         -2   -1    0    0    0  501 -0.00000000000E+00 -0.00000000000E+00 -0.21061019671E+02  0.21061019826E+02  0.25500000000E-02 0.  1.
         23    2    1    2    0    0  0.17763568394E-14  0.00000000000E+00  0.80588679851E+02  0.12271071938E+03  0.92538561317E+02 0.  0.
    9000005    2    3    3    0    0 -0.15624518752E+02  0.16825026185E+02 -0.10406195380E+02  0.28863639454E+02  0.14057513574E+02 0.  0.
         22    1    3    3    0    0  0.15624518752E+02 -0.16825026185E+02  0.90994875232E+02  0.93847079927E+02  0.00000000000E+00 0. -1.
         22    1    4    4    0    0 -0.65290512764E+01  0.11215096239E+02 -0.12449977330E+02  0.17983571106E+02  0.00000000000E+00 0. -1.
         22    1    4    4    0    0 -0.90954674751E+01  0.56099299459E+01  0.20437819497E+01  0.10880068348E+02  0.00000000000E+00 0. -1.
<mgrwt>
<rscale>  0 0.92538561E+02</rscale>
<asrwt>0</asrwt>
<pdfrwt beam="1">  1        2 0.15638415E-01 0.92538561E+02</pdfrwt>
<pdfrwt beam="2">  1       -2 0.32401569E-02 0.92538561E+02</pdfrwt>
<totfact> 0.11835345E+05</totfact>
</mgrwt>
</event>
<event>
 7    1  0.3337990E-009  0.9165289E+02  0.7818608E-02  0.1298898E+00
          2   -1    0    0  501    0  0.00000000000E+00  0.00000000000E+00  0.60597049052E+03  0.60597049053E+03  0.25500000000E-02 0. -1.
         -2   -1    0    0    0  501 -0.00000000000E+00 -0.00000000000E+00 -0.34656191860E+01  0.34656201241E+01  0.25500000000E-02 0.  1.
         23    2    1    2    0    0 -0.35527136788E-14  0.00000000000E+00  0.60250487133E+03  0.60943611065E+03  0.91652894021E+02 0.  0.
    9000005    2    3    3    0    0 -0.23820141650E+02 -0.48947451989E+01  0.55897943151E+03  0.55957809634E+03  0.88477893218E+01 0.  0.
         22    1    3    3    0    0  0.23820141650E+02  0.48947451989E+01  0.43525439822E+02  0.49858014305E+02  0.00000000000E+00 0.  1.
         22    1    4    4    0    0 -0.10545498197E+02 -0.45934471885E+01  0.18071982190E+03  0.18108550830E+03  0.00000000000E+00 0.  1.
         22    1    4    4    0    0 -0.13274643453E+02 -0.30129801042E+00  0.37825960961E+03  0.37849258805E+03  0.00000000000E+00 0.  1.
<mgrwt>
<rscale>  0 0.91652894E+02</rscale>
<asrwt>0</asrwt>
<pdfrwt beam="1">  1        2 0.93226223E-01 0.91652894E+02</pdfrwt>
<pdfrwt beam="2">  1       -2 0.53317229E-03 0.91652894E+02</pdfrwt>
<totfact> 0.22536397E+05</totfact>
</mgrwt>
</event>
<event>
 7    1  0.3337990E-009  0.9668137E+02  0.7818608E-02  0.1287434E+00
         -2   -1    0    0    0  501 -0.00000000000E+00  0.00000000000E+00  0.47409443774E+02  0.47409443843E+02  0.25500000000E-02 0.  1.
          2   -1    0    0  501    0  0.00000000000E+00 -0.00000000000E+00 -0.49290217002E+02  0.49290217068E+02  0.25500000000E-02 0. -1.
         23    2    1    2    0    0  0.35527136788E-14  0.00000000000E+00 -0.18807732277E+01  0.96699660910E+02  0.96681369003E+02 0.  0.
    9000005    2    3    3    0    0  0.15209971038E+02 -0.26629639733E+01 -0.46641570232E+02  0.49350283464E+02  0.46454072132E+01 0.  0.
         22    1    3    3    0    0 -0.15209971038E+02  0.26629639733E+01  0.44760797004E+02  0.47349377446E+02  0.00000000000E+00 0.  1.
         22    1    4    4    0    0  0.13775576804E-01  0.29478807412E+00 -0.35477123256E+01  0.35599652415E+01  0.00000000000E+00 0.  1.
         22    1    4    4    0    0  0.15196195462E+02 -0.29577520474E+01 -0.43093857906E+02  0.45790318222E+02  0.00000000000E+00 0.  1.
<mgrwt>
<rscale>  0 0.96681369E+02</rscale>
<asrwt>0</asrwt>
<pdfrwt beam="2">  1        2 0.75831103E-02 0.96681369E+02</pdfrwt>
<pdfrwt beam="1">  1       -2 0.72937606E-02 0.96681369E+02</pdfrwt>
<totfact> 0.85087075E+04</totfact>
</mgrwt>
</event>
<event>
 7    1  0.3337990E-009  0.9188423E+02  0.7818608E-02  0.1298352E+00
          2   -1    0    0  501    0  0.00000000000E+00  0.00000000000E+00  0.41763214082E+02  0.41763214160E+02  0.25500000000E-02 0.  1.
         -2   -1    0    0    0  501 -0.00000000000E+00 -0.00000000000E+00 -0.50539163837E+02  0.50539163901E+02  0.25500000000E-02 0. -1.
         23    2    1    2    0    0  0.00000000000E+00  0.11102230246E-15 -0.87759497544E+01  0.92302378061E+02  0.91884229885E+02 0.  0.
    9000005    2    3    3    0    0 -0.17080410282E+02 -0.97664168563E+00  0.37568804825E+02  0.42900652166E+02  0.11677183562E+02 0.  0.
         22    1    3    3    0    0  0.17080410282E+02  0.97664168563E+00 -0.46344754579E+02  0.49401725895E+02  0.00000000000E+00 0. -1.
         22    1    4    4    0    0 -0.16663442285E+02 -0.11177906044E+01  0.23527428162E+02  0.28852376688E+02  0.00000000000E+00 0. -1.
         22    1    4    4    0    0 -0.41696799671E+00  0.14114891877E+00  0.14041376663E+02  0.14048275478E+02  0.00000000000E+00 0. -1.
<mgrwt>
<rscale>  0 0.91884230E+02</rscale>
<asrwt>0</asrwt>
<pdfrwt beam="1">  1        2 0.64251099E-02 0.91884230E+02</pdfrwt>
<pdfrwt beam="2">  1       -2 0.77752560E-02 0.91884230E+02</pdfrwt>
<totfact> 0.94326784E+04</totfact>
</mgrwt>
</event>
<event>
 7    1  0.3337990E-009  0.9243021E+02  0.7818608E-02  0.1297071E+00
          2   -1    0    0  501    0  0.00000000000E+00  0.00000000000E+00  0.73870013265E+03  0.73870013265E+03  0.25500000000E-02 0. -1.
         -2   -1    0    0    0  501 -0.00000000000E+00 -0.00000000000E+00 -0.28913432147E+01  0.28913443391E+01  0.25500000000E-02 0.  1.
         23    2    1    2    0    0  0.00000000000E+00  0.17763568394E-14  0.73580878943E+03  0.74159147699E+03  0.92430212264E+02 0.  0.
    9000005    2    3    3    0    0 -0.10429639606E+02  0.15568360430E+02  0.70681678327E+03  0.70707064777E+03  0.27900891559E+01 0.  0.
         22    1    3    3    0    0  0.10429639606E+02 -0.15568360430E+02  0.28992006166E+02  0.34520829224E+02  0.00000000000E+00 0.  1.
         22    1    4    4    0    0 -0.39546837590E+01  0.36999515037E+01  0.19183656231E+03  0.19191299019E+03  0.00000000000E+00 0. -1.
         22    1    4    4    0    0 -0.64749558469E+01  0.11868408926E+02  0.51498022096E+03  0.51515765758E+03  0.00000000000E+00 0. -1.
<mgrwt>
<rscale>  0 0.92430212E+02</rscale>
<asrwt>0</asrwt>
<pdfrwt beam="1">  1        2 0.11364599E+00 0.92430212E+02</pdfrwt>
<pdfrwt beam="2">  1       -2 0.44482283E-03 0.92430212E+02</pdfrwt>
<totfact> 0.23150495E+05</totfact>
</mgrwt>
</event>
<event>
 7    1  0.3337990E-009  0.7334860E+02  0.7818608E-02  0.1349062E+00
          2   -1    0    0  501    0  0.00000000000E+00  0.00000000000E+00  0.37554499845E+02  0.37554499932E+02  0.25500000000E-02 0. -1.
         -2   -1    0    0    0  501 -0.00000000000E+00 -0.00000000000E+00 -0.35814729162E+02  0.35814729253E+02  0.25500000000E-02 0.  1.
         23    2    1    2    0    0  0.00000000000E+00  0.35527136788E-14  0.17397706835E+01  0.73369229185E+02  0.73348599095E+02 0.  0.
    9000005    2    3    3    0    0 -0.28284181317E+02  0.21704818713E+02 -0.57596090407E+01  0.36936623398E+02  0.77489988780E+01 0.  0.
         22    1    3    3    0    0  0.28284181317E+02 -0.21704818713E+02  0.74993797242E+01  0.36432605787E+02  0.00000000000E+00 0. -1.
         22    1    4    4    0    0 -0.12561670859E+02  0.13786208483E+02 -0.50310861800E+01  0.19317529533E+02  0.00000000000E+00 0.  1.
         22    1    4    4    0    0 -0.15722510458E+02  0.79186102308E+01 -0.72852286075E+00  0.17619093865E+02  0.00000000000E+00 0.  1.
<mgrwt>
<rscale>  0 0.73348599E+02</rscale>
<asrwt>0</asrwt>
<pdfrwt beam="1">  1        2 0.57776154E-02 0.73348599E+02</pdfrwt>
<pdfrwt beam="2">  1       -2 0.55099584E-02 0.73348599E+02</pdfrwt>
<totfact> 0.17419091E+05</totfact>
</mgrwt>
</event>
<event>
 7    1  0.3337990E-009  0.9491022E+02  0.7818608E-02  0.1291378E+00
          2   -1    0    0  501    0  0.00000000000E+00  0.00000000000E+00  0.57722774667E+03  0.57722774668E+03  0.25500000000E-02 0. -1.
         -2   -1    0    0    0  501 -0.00000000000E+00 -0.00000000000E+00 -0.39013844741E+01  0.39013853075E+01  0.25500000000E-02 0.  1.
         23    2    1    2    0    0  0.00000000000E+00 -0.11102230246E-15  0.57332636220E+03  0.58112913199E+03  0.94910223110E+02 0.  0.
    9000005    2    3    3    0    0 -0.32802929973E+02 -0.77921445243E+00  0.49593872776E+03  0.49707269051E+03  0.70284113458E+01 0.  0.
         22    1    3    3    0    0  0.32802929973E+02  0.77921445243E+00  0.77387634435E+02  0.84056441475E+02  0.00000000000E+00 0.  1.
         22    1    4    4    0    0 -0.13827342679E+02 -0.29726079187E+01  0.17826259042E+03  0.17882276966E+03  0.00000000000E+00 0. -1.
         22    1    4    4    0    0 -0.18975587294E+02  0.21933934663E+01  0.31767613734E+03  0.31824992085E+03  0.00000000000E+00 0. -1.
<mgrwt>
<rscale>  0 0.94910223E+02</rscale>
<asrwt>0</asrwt>
<pdfrwt beam="1">  1        2 0.88804317E-01 0.94910223E+02</pdfrwt>
<pdfrwt beam="2">  1       -2 0.60021274E-03 0.94910223E+02</pdfrwt>
<totfact> 0.20259851E+05</totfact>
</mgrwt>
</event>
<event>
 7    1  0.3337990E-009  0.9402320E+02  0.7818608E-02  0.1293391E+00
          2   -1    0    0  501    0  0.00000000000E+00  0.00000000000E+00  0.24651242729E+02  0.24651242861E+02  0.25500000000E-02 0. -1.
         -2   -1    0    0    0  501 -0.00000000000E+00 -0.00000000000E+00 -0.89654333809E+02  0.89654333845E+02  0.25500000000E-02 0.  1.
         23    2    1    2    0    0  0.00000000000E+00  0.00000000000E+00 -0.65003091080E+02  0.11430557671E+03  0.94023204668E+02 0.  0.
    9000005    2    3    3    0    0 -0.23590170780E+02  0.40062043955E+02 -0.26062230539E+02  0.53660262435E+02  0.62225702629E+01 0.  0.
         22    1    3    3    0    0  0.23590170780E+02 -0.40062043955E+02 -0.38940860541E+02  0.60645314270E+02  0.00000000000E+00 0.  1.
         22    1    4    4    0    0 -0.56185194804E+01  0.15071126076E+02 -0.79014444256E+01  0.17920363455E+02  0.00000000000E+00 0. -1.
         22    1    4    4    0    0 -0.17971651299E+02  0.24990917880E+02 -0.18160786114E+02  0.35739898981E+02  0.00000000000E+00 0. -1.
<mgrwt>
<rscale>  0 0.94023205E+02</rscale>
<asrwt>0</asrwt>
<pdfrwt beam="1">  1        2 0.37924989E-02 0.94023205E+02</pdfrwt>
<pdfrwt beam="2">  1       -2 0.13792974E-01 0.94023205E+02</pdfrwt>
<totfact> 0.76359528E+04</totfact>
</mgrwt>
</event>
<event>
 7    1  0.3337990E-009  0.9030702E+02  0.7818608E-02  0.1302110E+00
         -2   -1    0    0    0  501 -0.00000000000E+00  0.00000000000E+00  0.50744456544E+03  0.50744456545E+03  0.25500000000E-02 0.  1.
          2   -1    0    0  501    0  0.00000000000E+00 -0.00000000000E+00 -0.40178557897E+01  0.40178565989E+01  0.25500000000E-02 0. -1.
         23    2    1    2    0    0  0.00000000000E+00  0.35527136788E-14  0.50342670965E+03  0.51146242205E+03  0.90307016202E+02 0.  0.
    9000005    2    3    3    0    0  0.32894928231E+02 -0.30601791092E+02  0.27518950680E+03  0.27884521141E+03  0.26155972732E+01 0.  0.
         22    1    3    3    0    0 -0.32894928231E+02  0.30601791092E+02  0.22823720285E+03  0.23261721064E+03  0.00000000000E+00 0. -1.
         22    1    4    4    0    0  0.72186947457E+01 -0.74249092614E+01  0.57579338340E+02  0.58503154060E+02  0.00000000000E+00 0. -1.
         22    1    4    4    0    0  0.25676233485E+02 -0.23176881831E+02  0.21761016846E+03  0.22034205735E+03  0.00000000000E+00 0. -1.
<mgrwt>
<rscale>  0 0.90307016E+02</rscale>
<asrwt>0</asrwt>
<pdfrwt beam="2">  1        2 0.61813132E-03 0.90307016E+02</pdfrwt>
<pdfrwt beam="1">  1       -2 0.78068446E-01 0.90307016E+02</pdfrwt>
<totfact> 0.36789479E+04</totfact>
</mgrwt>
</event>
<event>
 7    1  0.3337990E-009  0.9108339E+02  0.7818608E-02  0.1300249E+00
         -2   -1    0    0    0  501 -0.00000000000E+00  0.00000000000E+00  0.11056069914E+03  0.11056069917E+03  0.25500000000E-02 0.  1.
          2   -1    0    0  501    0  0.00000000000E+00 -0.00000000000E+00 -0.18759340363E+02  0.18759340537E+02  0.25500000000E-02 0. -1.
         23    2    1    2    0    0  0.71054273576E-14 -0.17763568394E-14  0.91801358776E+02  0.12932003971E+03  0.91083385951E+02 0.  0.
    9000005    2    3    3    0    0 -0.42442199007E+02  0.15491110072E+02  0.48080367892E+02  0.66448426145E+02  0.78966330000E+01 0.  0.
         22    1    3    3    0    0  0.42442199007E+02 -0.15491110072E+02  0.43720990884E+02  0.62871613560E+02  0.00000000000E+00 0. -1.
         22    1    4    4    0    0 -0.40559257558E+01  0.42189212471E+01  0.57713949857E+01  0.82194178813E+01  0.00000000000E+00 0.  1.
         22    1    4    4    0    0 -0.38386273251E+02  0.11272188825E+02  0.42308972906E+02  0.58229008264E+02  0.00000000000E+00 0.  1.
<mgrwt>
<rscale>  0 0.91083386E+02</rscale>
<asrwt>0</asrwt>
<pdfrwt beam="2">  1        2 0.28860523E-02 0.91083386E+02</pdfrwt>
<pdfrwt beam="1">  1       -2 0.17009339E-01 0.91083386E+02</pdfrwt>
<totfact> 0.77601456E+04</totfact>
</mgrwt>
</event>
<event>
 7    1  0.3337990E-009  0.9241626E+02  0.7818608E-02  0.1297104E+00
         -2   -1    0    0    0  501 -0.00000000000E+00  0.00000000000E+00  0.53604155583E+02  0.53604155643E+02  0.25500000000E-02 0.  1.
          2   -1    0    0  501    0  0.00000000000E+00 -0.00000000000E+00 -0.39832567824E+02  0.39832567906E+02  0.25500000000E-02 0. -1.
         23    2    1    2    0    0  0.00000000000E+00  0.00000000000E+00  0.13771587758E+02  0.93436723550E+02  0.92416257651E+02 0.  0.
    9000005    2    3    3    0    0  0.13177684678E+02  0.16010850229E+02 -0.34131242879E+02  0.41238257273E+02  0.10278785137E+02 0.  0.
         22    1    3    3    0    0 -0.13177684678E+02 -0.16010850229E+02  0.47902830638E+02  0.52198466277E+02  0.00000000000E+00 0.  1.
         22    1    4    4    0    0  0.10383013570E+02  0.66815210938E+01 -0.25025021865E+02  0.27905221989E+02  0.00000000000E+00 0. -1.
         22    1    4    4    0    0  0.27946711082E+01  0.93293291357E+01 -0.91062210147E+01  0.13333035284E+02  0.00000000000E+00 0. -1.
<mgrwt>
<rscale>  0 0.92416258E+02</rscale>
<asrwt>0</asrwt>
<pdfrwt beam="2">  1        2 0.61280874E-02 0.92416258E+02</pdfrwt>
<pdfrwt beam="1">  1       -2 0.82467931E-02 0.92416258E+02</pdfrwt>
<totfact> 0.91620397E+04</totfact>
</mgrwt>
</event>
<event>
 7    1  0.3337990E-009  0.9072513E+02  0.7818608E-02  0.1301105E+00
         -2   -1    0    0    0  501 -0.00000000000E+00  0.00000000000E+00  0.22785973070E+01  0.22785987339E+01  0.25500000000E-02 0.  1.
          2   -1    0    0  501    0  0.00000000000E+00 -0.00000000000E+00 -0.90308265229E+03  0.90308265229E+03  0.25500000000E-02 0. -1.
         23    2    1    2    0    0  0.00000000000E+00  0.00000000000E+00 -0.90080405498E+03  0.90536125103E+03  0.90725130963E+02 0.  0.
    9000005    2    3    3    0    0 -0.25847656040E+02  0.20265014792E+02 -0.76183925427E+03  0.76256773583E+03  0.56329587076E+01 0.  0.
         22    1    3    3    0    0  0.25847656040E+02 -0.20265014792E+02 -0.13896480071E+03  0.14279351520E+03  0.00000000000E+00 0.  1.
         22    1    4    4    0    0 -0.21104651395E+02  0.15616833339E+02 -0.65152738838E+03  0.65205615526E+03  0.00000000000E+00 0.  1.
         22    1    4    4    0    0 -0.47430046451E+01  0.46481814529E+01 -0.11031186589E+03  0.11051158057E+03  0.00000000000E+00 0.  1.
<mgrwt>
<rscale>  0 0.90725131E+02</rscale>
<asrwt>0</asrwt>
<pdfrwt beam="2">  1        2 0.13893551E+00 0.90725131E+02</pdfrwt>
<pdfrwt beam="1">  1       -2 0.35055426E-03 0.90725131E+02</pdfrwt>
<totfact> 0.25130090E+05</totfact>
</mgrwt>
</event>
<event>
 7    1  0.3337990E-009  0.9537972E+02  0.7818608E-02  0.1290323E+00
         -2   -1    0    0    0  501 -0.00000000000E+00  0.00000000000E+00  0.19048949032E+02  0.19048949203E+02  0.25500000000E-02 0.  1.
          2   -1    0    0  501    0  0.00000000000E+00 -0.00000000000E+00 -0.11939361601E+03  0.11939361604E+03  0.25500000000E-02 0. -1.
         23    2    1    2    0    0  0.00000000000E+00  0.00000000000E+00 -0.10034466698E+03  0.13844256524E+03  0.95379723628E+02 0.  0.
    9000005    2    3    3    0    0  0.27495851595E+02 -0.30586498263E+02 -0.83928852232E+02  0.94158993742E+02  0.11415258847E+02 0.  0.
         22    1    3    3    0    0 -0.27495851595E+02  0.30586498263E+02 -0.16415814749E+02  0.44283571500E+02  0.00000000000E+00 0.  1.
         22    1    4    4    0    0  0.47871085932E+01 -0.25772140473E+00 -0.96294639491E+01  0.10756830618E+02  0.00000000000E+00 0.  1.
         22    1    4    4    0    0  0.22708743002E+02 -0.30328776859E+02 -0.74299388283E+02  0.83402163123E+02  0.00000000000E+00 0.  1.
<mgrwt>
<rscale>  0 0.95379724E+02</rscale>
<asrwt>0</asrwt>
<pdfrwt beam="2">  1        2 0.18368248E-01 0.95379724E+02</pdfrwt>
<pdfrwt beam="1">  1       -2 0.29306076E-02 0.95379724E+02</pdfrwt>
<totfact> 0.11456636E+05</totfact>
</mgrwt>
</event>
<event>
 7    1  0.3337990E-009  0.9094923E+02  0.7818608E-02  0.1300569E+00
          2   -1    0    0  501    0  0.00000000000E+00  0.00000000000E+00  0.30688542998E+02  0.30688543104E+02  0.25500000000E-02 0.  1.
         -2   -1    0    0    0  501 -0.00000000000E+00 -0.00000000000E+00 -0.67384779605E+02  0.67384779653E+02  0.25500000000E-02 0. -1.
         23    2    1    2    0    0  0.71054273576E-14  0.00000000000E+00 -0.36696236607E+02  0.98073322757E+02  0.90949232298E+02 0.  0.
    9000005    2    3    3    0    0  0.36405418227E+02  0.19490113424E+02 -0.36631406247E+02  0.56778974469E+02  0.13295601550E+02 0.  0.
         22    1    3    3    0    0 -0.36405418227E+02 -0.19490113424E+02 -0.64830359936E-01  0.41294348288E+02  0.00000000000E+00 0.  1.
         22    1    4    4    0    0 -0.65160525631E+00  0.24891607644E+01 -0.16387941218E+01  0.30505994320E+01  0.00000000000E+00 0.  1.
         22    1    4    4    0    0  0.37057023484E+02  0.17000952659E+02 -0.34992612125E+02  0.53728375037E+02  0.00000000000E+00 0.  1.
<mgrwt>
<rscale>  0 0.90949232E+02</rscale>
<asrwt>0</asrwt>
<pdfrwt beam="1">  1        2 0.47213143E-02 0.90949232E+02</pdfrwt>
<pdfrwt beam="2">  1       -2 0.10366889E-01 0.90949232E+02</pdfrwt>
<totfact> 0.89663813E+04</totfact>
</mgrwt>
</event>
<event>
 7    1  0.3337990E-009  0.9283852E+02  0.7818608E-02  0.1296120E+00
          2   -1    0    0  501    0  0.00000000000E+00  0.00000000000E+00  0.92535806864E+01  0.92535810378E+01  0.25500000000E-02 0.  1.
         -2   -1    0    0    0  501 -0.00000000000E+00 -0.00000000000E+00 -0.23285554267E+03  0.23285554268E+03  0.25500000000E-02 0. -1.
         23    2    1    2    0    0  0.35527136788E-14  0.00000000000E+00 -0.22360196198E+03  0.24210912372E+03  0.92838517795E+02 0.  0.
    9000005    2    3    3    0    0 -0.25377785774E+02 -0.33469125903E+02 -0.69431959778E+02  0.82319875086E+02  0.13840173270E+02 0.  0.
         22    1    3    3    0    0  0.25377785774E+02  0.33469125903E+02 -0.15417000221E+03  0.15978924864E+03  0.00000000000E+00 0. -1.
         22    1    4    4    0    0 -0.10508556343E+02 -0.11509363712E+02 -0.14346833487E+02  0.21183173524E+02  0.00000000000E+00 0. -1.
         22    1    4    4    0    0 -0.14869229431E+02 -0.21959762190E+02 -0.55085126291E+02  0.61136701562E+02  0.00000000000E+00 0. -1.
<mgrwt>
<rscale>  0 0.92838518E+02</rscale>
<asrwt>0</asrwt>
<pdfrwt beam="1">  1        2 0.14236280E-02 0.92838518E+02</pdfrwt>
<pdfrwt beam="2">  1       -2 0.35823925E-01 0.92838518E+02</pdfrwt>
<totfact> 0.55524406E+04</totfact>
</mgrwt>
</event>
<event>
 7    1  0.3337990E-009  0.9335007E+02  0.7818608E-02  0.1294936E+00
          2   -1    0    0  501    0  0.00000000000E+00  0.00000000000E+00  0.17795839266E+04  0.17795839266E+04  0.25500000000E-02 0. -1.
         -2   -1    0    0    0  501 -0.00000000000E+00 -0.00000000000E+00 -0.12241941994E+01  0.12241968553E+01  0.25500000000E-02 0.  1.
         23    2    1    2    0    0  0.00000000000E+00  0.00000000000E+00  0.17783597324E+04  0.17808081235E+04  0.93350065597E+02 0.  0.
    9000005    2    3    3    0    0  0.74289426924E+01 -0.11135107590E+02  0.17416069449E+04  0.17416935840E+04  0.11072944200E+02 0.  0.
         22    1    3    3    0    0 -0.74289426924E+01  0.11135107590E+02  0.36752787506E+02  0.39114539497E+02  0.00000000000E+00 0.  1.
         22    1    4    4    0    0 -0.13033548370E+01 -0.54009362560E+01  0.97016184641E+03  0.97017775540E+03  0.00000000000E+00 0. -1.
         22    1    4    4    0    0  0.87322975294E+01 -0.57341713345E+01  0.77144509849E+03  0.77151582857E+03  0.00000000000E+00 0. -1.
<mgrwt>
<rscale>  0 0.93350066E+02</rscale>
<asrwt>0</asrwt>
<pdfrwt beam="1">  1        2 0.27378418E+00 0.93350066E+02</pdfrwt>
<pdfrwt beam="2">  1       -2 0.18833637E-03 0.93350066E+02</pdfrwt>
<totfact> 0.20297786E+05</totfact>
</mgrwt>
</event>
<event>
 7    1  0.3337990E-009  0.8939433E+02  0.7818608E-02  0.1304325E+00
         -2   -1    0    0    0  501 -0.00000000000E+00  0.00000000000E+00  0.34314823254E+02  0.34314823348E+02  0.25500000000E-02 0.  1.
          2   -1    0    0  501    0  0.00000000000E+00 -0.00000000000E+00 -0.58220797404E+02  0.58220797459E+02  0.25500000000E-02 0. -1.
         23    2    1    2    0    0 -0.35527136788E-14  0.00000000000E+00 -0.23905974150E+02  0.92535620808E+02  0.89394325985E+02 0.  0.
    9000005    2    3    3    0    0 -0.22420741152E+02  0.12093610917E+02 -0.49758270063E+02  0.56241182352E+02  0.61838575222E+01 0.  0.
         22    1    3    3    0    0  0.22420741152E+02 -0.12093610917E+02  0.25852295914E+02  0.36294438456E+02  0.00000000000E+00 0.  1.
         22    1    4    4    0    0 -0.17371922481E+02  0.10916633048E+02 -0.43635934318E+02  0.48218786086E+02  0.00000000000E+00 0.  1.
         22    1    4    4    0    0 -0.50488186704E+01  0.11769778692E+01 -0.61223357451E+01  0.80223962658E+01  0.00000000000E+00 0.  1.
<mgrwt>
<rscale>  0 0.89394326E+02</rscale>
<asrwt>0</asrwt>
<pdfrwt beam="2">  1        2 0.89570458E-02 0.89394326E+02</pdfrwt>
<pdfrwt beam="1">  1       -2 0.52792036E-02 0.89394326E+02</pdfrwt>
<totfact> 0.11123870E+05</totfact>
</mgrwt>
</event>
<event>
 7    1  0.3337990E-009  0.9167832E+02  0.7818608E-02  0.1298838E+00
         -2   -1    0    0    0  501 -0.00000000000E+00  0.00000000000E+00  0.12089396850E+02  0.12089397119E+02  0.25500000000E-02 0. -1.
          2   -1    0    0  501    0  0.00000000000E+00 -0.00000000000E+00 -0.17380755442E+03  0.17380755443E+03  0.25500000000E-02 0.  1.
         23    2    1    2    0    0  0.00000000000E+00  0.00000000000E+00 -0.16171815757E+03  0.18589695155E+03  0.91678318648E+02 0.  0.
    9000005    2    3    3    0    0  0.22250977376E+02  0.20185614426E+02 -0.15050878346E+02  0.36184374200E+02  0.13424417056E+02 0.  0.
         22    1    3    3    0    0 -0.22250977376E+02 -0.20185614426E+02 -0.14666727922E+03  0.14971257735E+03  0.00000000000E+00 0.  1.
         22    1    4    4    0    0  0.17310422887E+02  0.18886603569E+02 -0.16966978877E+02  0.30728372998E+02  0.00000000000E+00 0.  1.
         22    1    4    4    0    0  0.49405544893E+01  0.12990108576E+01  0.19161005310E+01  0.54560012019E+01  0.00000000000E+00 0.  1.
<mgrwt>
<rscale>  0 0.91678319E+02</rscale>
<asrwt>0</asrwt>
<pdfrwt beam="2">  1        2 0.26739622E-01 0.91678319E+02</pdfrwt>
<pdfrwt beam="1">  1       -2 0.18599074E-02 0.91678319E+02</pdfrwt>
<totfact> 0.14494908E+05</totfact>
</mgrwt>
</event>
<event>
 7    1  0.3337990E-009  0.9456444E+02  0.7818608E-02  0.1292160E+00
          2   -1    0    0  501    0  0.00000000000E+00  0.00000000000E+00  0.20081516644E+02  0.20081516805E+02  0.25500000000E-02 0.  1.
         -2   -1    0    0    0  501 -0.00000000000E+00 -0.00000000000E+00 -0.11132666271E+03  0.11132666274E+03  0.25500000000E-02 0. -1.
         23    2    1    2    0    0  0.00000000000E+00  0.00000000000E+00 -0.91245146071E+02  0.13140817955E+03  0.94564438194E+02 0.  0.
    9000005    2    3    3    0    0 -0.25901394733E+02 -0.35964201499E+02 -0.66792625177E+02  0.80789686716E+02  0.10070385450E+02 0.  0.
         22    1    3    3    0    0  0.25901394733E+02  0.35964201499E+02 -0.24452520894E+02  0.50618492833E+02  0.00000000000E+00 0.  1.
         22    1    4    4    0    0 -0.14101299283E+02 -0.12147970130E+02 -0.23339314317E+02  0.29852025267E+02  0.00000000000E+00 0. -1.
         22    1    4    4    0    0 -0.11800095450E+02 -0.23816231370E+02 -0.43453310859E+02  0.50937661449E+02  0.00000000000E+00 0. -1.
<mgrwt>
<rscale>  0 0.94564438E+02</rscale>
<asrwt>0</asrwt>
<pdfrwt beam="1">  1        2 0.30894642E-02 0.94564438E+02</pdfrwt>
<pdfrwt beam="2">  1       -2 0.17127179E-01 0.94564438E+02</pdfrwt>
<totfact> 0.70495926E+04</totfact>
</mgrwt>
</event>
<event>
 7    1  0.3337990E-009  0.9015640E+02  0.7818608E-02  0.1302473E+00
          2   -1    0    0  501    0  0.00000000000E+00  0.00000000000E+00  0.14651870960E+03  0.14651870962E+03  0.25500000000E-02 0. -1.
         -2   -1    0    0    0  501 -0.00000000000E+00 -0.00000000000E+00 -0.13868836912E+02  0.13868837147E+02  0.25500000000E-02 0.  1.
         23    2    1    2    0    0  0.00000000000E+00  0.00000000000E+00  0.13264987269E+03  0.16038754677E+03  0.90156399854E+02 0.  0.
    9000005    2    3    3    0    0 -0.27721852525E+02  0.18778643237E+02  0.11895503503E+03  0.12421176581E+03  0.12534905629E+02 0.  0.
         22    1    3    3    0    0  0.27721852525E+02 -0.18778643237E+02  0.13694837662E+02  0.36175780957E+02  0.00000000000E+00 0.  1.
         22    1    4    4    0    0 -0.67272938281E+01  0.11843388315E+02  0.47466815348E+02  0.49382394518E+02  0.00000000000E+00 0. -1.
         22    1    4    4    0    0 -0.20994558697E+02  0.69352549218E+01  0.71488219677E+02  0.74829371294E+02  0.00000000000E+00 0. -1.
<mgrwt>
<rscale>  0 0.90156400E+02</rscale>
<asrwt>0</asrwt>
<pdfrwt beam="1">  1        2 0.22541341E-01 0.90156400E+02</pdfrwt>
<pdfrwt beam="2">  1       -2 0.21336671E-02 0.90156400E+02</pdfrwt>
<totfact> 0.14300010E+05</totfact>
</mgrwt>
</event>
<event>
 7    1  0.3337990E-009  0.9188042E+02  0.7818608E-02  0.1298361E+00
          2   -1    0    0  501    0  0.00000000000E+00  0.00000000000E+00  0.16861431230E+02  0.16861431423E+02  0.25500000000E-02 0. -1.
         -2   -1    0    0    0  501 -0.00000000000E+00 -0.00000000000E+00 -0.12516748254E+03  0.12516748256E+03  0.25500000000E-02 0.  1.
         23    2    1    2    0    0  0.00000000000E+00  0.00000000000E+00 -0.10830605131E+03  0.14202891399E+03  0.91880420430E+02 0.  0.
    9000005    2    3    3    0    0 -0.38642527059E+01  0.27398763584E+02 -0.11019606213E+03  0.11429451592E+03  0.12427371623E+02 0.  0.
         22    1    3    3    0    0  0.38642527059E+01 -0.27398763584E+02  0.18900108276E+01  0.27734398062E+02  0.00000000000E+00 0. -1.
         22    1    4    4    0    0 -0.29623971125E+01  0.69499525400E-01 -0.12233516440E+02  0.12587277359E+02  0.00000000000E+00 0.  1.
         22    1    4    4    0    0 -0.90185559338E+00  0.27329264059E+02 -0.97962545695E+02  0.10170723857E+03  0.00000000000E+00 0.  1.
<mgrwt>
<rscale>  0 0.91880420E+02</rscale>
<asrwt>0</asrwt>
<pdfrwt beam="1">  1        2 0.25940664E-02 0.91880420E+02</pdfrwt>
<pdfrwt beam="2">  1       -2 0.19256535E-01 0.91880420E+02</pdfrwt>
<totfact> 0.72958270E+04</totfact>
</mgrwt>
</event>
<event>
 7    1  0.3337990E-009  0.9373441E+02  0.7818608E-02  0.1294052E+00
          2   -1    0    0  501    0  0.00000000000E+00  0.00000000000E+00  0.25594420642E+03  0.25594420644E+03  0.25500000000E-02 0. -1.
         -2   -1    0    0    0  501 -0.00000000000E+00 -0.00000000000E+00 -0.85820855751E+01  0.85820859539E+01  0.25500000000E-02 0.  1.
         23    2    1    2    0    0  0.44408920985E-15  0.00000000000E+00  0.24736212085E+03  0.26452629239E+03  0.93734414892E+02 0.  0.
    9000005    2    3    3    0    0 -0.29775389842E+01  0.44797383564E+02  0.15412452429E+03  0.16104237709E+03  0.12829922860E+02 0.  0.
         22    1    3    3    0    0  0.29775389842E+01 -0.44797383564E+02  0.93237596563E+02  0.10348391530E+03  0.00000000000E+00 0.  1.
         22    1    4    4    0    0  0.34647484850E+01  0.29940925812E+02  0.10942246905E+03  0.11349775440E+03  0.00000000000E+00 0.  1.
         22    1    4    4    0    0 -0.64422874692E+01  0.14856457752E+02  0.44702055239E+02  0.47544622697E+02  0.00000000000E+00 0.  1.
<mgrwt>
<rscale>  0 0.93734415E+02</rscale>
<asrwt>0</asrwt>
<pdfrwt beam="1">  1        2 0.39376038E-01 0.93734415E+02</pdfrwt>
<pdfrwt beam="2">  1       -2 0.13203207E-02 0.93734415E+02</pdfrwt>
<totfact> 0.15721586E+05</totfact>
</mgrwt>
</event>
<event>
 7    1  0.3337990E-009  0.9888690E+02  0.7818608E-02  0.1282654E+00
         -2   -1    0    0    0  501 -0.00000000000E+00  0.00000000000E+00  0.35979905883E+01  0.35979914920E+01  0.25500000000E-02 0.  1.
          2   -1    0    0  501    0  0.00000000000E+00 -0.00000000000E+00 -0.67944986585E+03  0.67944986585E+03  0.25500000000E-02 0. -1.
         23    2    1    2    0    0  0.00000000000E+00  0.00000000000E+00 -0.67585187526E+03  0.68304785735E+03  0.98886895650E+02 0.  0.
    9000005    2    3    3    0    0  0.18314497530E+02  0.19319638968E+02 -0.62548156085E+03  0.62607560231E+03  0.58997948671E+01 0.  0.
         22    1    3    3    0    0 -0.18314497530E+02 -0.19319638968E+02 -0.50370314412E+02  0.56972255033E+02  0.00000000000E+00 0.  1.
         22    1    4    4    0    0  0.16581558946E+02  0.14252812615E+02 -0.51632961920E+03  0.51679238232E+03  0.00000000000E+00 0. -1.
         22    1    4    4    0    0  0.17329385836E+01  0.50668263539E+01 -0.10915194165E+03  0.10928321999E+03  0.00000000000E+00 0. -1.
<mgrwt>
<rscale>  0 0.98886896E+02</rscale>
<asrwt>0</asrwt>
<pdfrwt beam="2">  1        2 0.10453065E+00 0.98886896E+02</pdfrwt>
<pdfrwt beam="1">  1       -2 0.55353762E-03 0.98886896E+02</pdfrwt>
<totfact> 0.18989446E+05</totfact>
</mgrwt>
</event>
<event>
 7    1  0.3337990E-009  0.9353577E+02  0.7818608E-02  0.1294508E+00
          2   -1    0    0  501    0  0.00000000000E+00  0.00000000000E+00  0.87323213863E+02  0.87323213901E+02  0.25500000000E-02 0. -1.
         -2   -1    0    0    0  501 -0.00000000000E+00 -0.00000000000E+00 -0.25047579477E+02  0.25047579607E+02  0.25500000000E-02 0.  1.
         23    2    1    2    0    0  0.00000000000E+00  0.00000000000E+00  0.62275634387E+02  0.11237079351E+03  0.93535771741E+02 0.  0.
    9000005    2    3    3    0    0 -0.20442051309E+02 -0.37766493848E+02  0.10641250401E+02  0.45212062661E+02  0.93117603417E+01 0.  0.
         22    1    3    3    0    0  0.20442051309E+02  0.37766493848E+02  0.51634383985E+02  0.67158730846E+02  0.00000000000E+00 0. -1.
         22    1    4    4    0    0 -0.17089693909E+02 -0.28360196873E+02  0.43157588135E+01  0.33391378808E+02  0.00000000000E+00 0. -1.
         22    1    4    4    0    0 -0.33523574001E+01 -0.94062969758E+01  0.63254915878E+01  0.11820683853E+02  0.00000000000E+00 0. -1.
<mgrwt>
<rscale>  0 0.93535772E+02</rscale>
<asrwt>0</asrwt>
<pdfrwt beam="1">  1        2 0.13434341E-01 0.93535772E+02</pdfrwt>
<pdfrwt beam="2">  1       -2 0.38534738E-02 0.93535772E+02</pdfrwt>
<totfact> 0.10974114E+05</totfact>
</mgrwt>
</event>
<event>
 7    1  0.3337990E-009  0.9215106E+02  0.7818608E-02  0.1297725E+00
         -2   -1    0    0    0  501 -0.00000000000E+00  0.00000000000E+00  0.28923644582E+03  0.28923644583E+03  0.25500000000E-02 0.  1.
          2   -1    0    0  501    0  0.00000000000E+00 -0.00000000000E+00 -0.73398580758E+01  0.73398585188E+01  0.25500000000E-02 0. -1.
         23    2    1    2    0    0  0.00000000000E+00  0.17763568394E-14  0.28189658775E+03  0.29657630435E+03  0.92151061417E+02 0.  0.
    9000005    2    3    3    0    0 -0.42572436574E+02 -0.12809113369E+02  0.11009082612E+03  0.11911164458E+03  0.95450582470E+01 0.  0.
         22    1    3    3    0    0  0.42572436574E+02  0.12809113369E+02  0.17180576162E+03  0.17746465977E+03  0.00000000000E+00 0.  1.
         22    1    4    4    0    0 -0.27532448235E+02 -0.34764318491E+01  0.65508425832E+02  0.71144045002E+02  0.00000000000E+00 0. -1.
         22    1    4    4    0    0 -0.15039988339E+02 -0.93326815200E+01  0.44582400290E+02  0.47967599577E+02  0.00000000000E+00 0. -1.
<mgrwt>
<rscale>  0 0.92151061E+02</rscale>
<asrwt>0</asrwt>
<pdfrwt beam="2">  1        2 0.11292089E-02 0.92151061E+02</pdfrwt>
<pdfrwt beam="1">  1       -2 0.44497919E-01 0.92151061E+02</pdfrwt>
<totfact> 0.50641642E+04</totfact>
</mgrwt>
</event>
<event>
 6    1  0.3337990E-009  0.1322591E+03  0.7818608E-02  0.1224142E+00
         -2   -1    0    0    0  501 -0.00000000000E+00  0.00000000000E+00  0.11734185842E+03  0.11734185845E+03  0.25500000000E-02 0.  1.
          2   -1    0    0  501    0  0.00000000000E+00 -0.00000000000E+00 -0.37268192168E+02  0.37268192255E+02  0.25500000000E-02 0. -1.
    9000005    2    1    2    0    0  0.57531265924E+02  0.26082201506E+02  0.21643206106E+02  0.68562119484E+02  0.15563035158E+02 0.  0.
         22    1    1    2    0    0 -0.57531265924E+02 -0.26082201506E+02  0.58430460148E+02  0.86047931221E+02  0.00000000000E+00 0.  1.
         22    1    3    3    0    0  0.50782621105E+02  0.26534535554E+02  0.15336218516E+02  0.59314043714E+02  0.00000000000E+00 0.  1.
         22    1    3    3    0    0  0.67486448200E+01 -0.45233404796E+00  0.63069875894E+01  0.92480757701E+01  0.00000000000E+00 0.  1.
<mgrwt>
<rscale>  0 0.13225912E+03</rscale>
<asrwt>0</asrwt>
<pdfrwt beam="2">  1        2 0.57335681E-02 0.13225912E+03</pdfrwt>
<pdfrwt beam="1">  1       -2 0.18052593E-01 0.13225912E+03</pdfrwt>
<totfact> 0.30046105E+04</totfact>
</mgrwt>
</event>
<event>
 7    1  0.3337990E-009  0.8890461E+02  0.7818608E-02  0.1305526E+00
         -2   -1    0    0    0  501 -0.00000000000E+00  0.00000000000E+00  0.80717469840E+01  0.80717473868E+01  0.25500000000E-02 0.  1.
          2   -1    0    0  501    0  0.00000000000E+00 -0.00000000000E+00 -0.24480539985E+03  0.24480539986E+03  0.25500000000E-02 0. -1.
         23    2    1    2    0    0  0.35527136788E-14  0.00000000000E+00 -0.23673365286E+03  0.25287714725E+03  0.88904607316E+02 0.  0.
    9000005    2    3    3    0    0  0.17521341789E+02 -0.40175188647E+02 -0.97959023754E+02  0.10734556688E+03  0.24611363682E+01 0.  0.
         22    1    3    3    0    0 -0.17521341789E+02  0.40175188647E+02 -0.13877462911E+03  0.14553158037E+03  0.00000000000E+00 0. -1.
         22    1    4    4    0    0  0.17144696454E+01 -0.24371936396E+01 -0.70328348137E+01  0.76380681143E+01  0.00000000000E+00 0.  1.
         22    1    4    4    0    0  0.15806872143E+02 -0.37737995008E+02 -0.90926188941E+02  0.99707498762E+02  0.00000000000E+00 0.  1.
<mgrwt>
<rscale>  0 0.88904607E+02</rscale>
<asrwt>0</asrwt>
<pdfrwt beam="2">  1        2 0.37662364E-01 0.88904607E+02</pdfrwt>
<pdfrwt beam="1">  1       -2 0.12418074E-02 0.88904607E+02</pdfrwt>
<totfact> 0.17818908E+05</totfact>
</mgrwt>
</event>
<event>
 7    1  0.3337990E-009  0.8736419E+02  0.7818608E-02  0.1309363E+00
         -2   -1    0    0    0  501 -0.00000000000E+00  0.00000000000E+00  0.21175503127E+02  0.21175503280E+02  0.25500000000E-02 0.  1.
          2   -1    0    0  501    0  0.00000000000E+00 -0.00000000000E+00 -0.90110045533E+02  0.90110045569E+02  0.25500000000E-02 0. -1.
         23    2    1    2    0    0  0.00000000000E+00 -0.35527136788E-14 -0.68934542406E+02  0.11128554885E+03  0.87364193156E+02 0.  0.
    9000005    2    3    3    0    0 -0.24732758770E+02 -0.16149790560E+02  0.46619399141E+01  0.31982539439E+02  0.11341254504E+02 0.  0.
         22    1    3    3    0    0  0.24732758770E+02  0.16149790560E+02 -0.73596482320E+02  0.79303009410E+02  0.00000000000E+00 0. -1.
         22    1    4    4    0    0 -0.12693784210E+02 -0.14827138014E+02  0.32848333241E+01  0.19793087410E+02  0.00000000000E+00 0.  1.
         22    1    4    4    0    0 -0.12038974560E+02 -0.13226525462E+01  0.13771065900E+01  0.12189452029E+02  0.00000000000E+00 0.  1.
<mgrwt>
<rscale>  0 0.87364193E+02</rscale>
<asrwt>0</asrwt>
<pdfrwt beam="2">  1        2 0.13863084E-01 0.87364193E+02</pdfrwt>
<pdfrwt beam="1">  1       -2 0.32577698E-02 0.87364193E+02</pdfrwt>
<totfact> 0.13374234E+05</totfact>
</mgrwt>
</event>
<event>
 7    1  0.3337990E-009  0.8846561E+02  0.7818608E-02  0.1306611E+00
         -2   -1    0    0    0  501 -0.00000000000E+00  0.00000000000E+00  0.60979065990E+02  0.60979066044E+02  0.25500000000E-02 0.  1.
          2   -1    0    0  501    0  0.00000000000E+00 -0.00000000000E+00 -0.32085455743E+02  0.32085455844E+02  0.25500000000E-02 0. -1.
         23    2    1    2    0    0 -0.17763568394E-14  0.00000000000E+00  0.28893610248E+02  0.93064521888E+02  0.88465612082E+02 0.  0.
    9000005    2    3    3    0    0 -0.15010565413E+02  0.17345814357E+02 -0.23729098523E+02  0.35659436502E+02  0.13502997637E+02 0.  0.
         22    1    3    3    0    0  0.15010565413E+02 -0.17345814357E+02  0.52622708771E+02  0.57405085386E+02  0.00000000000E+00 0.  1.
         22    1    4    4    0    0 -0.13771238632E+02  0.17854242723E+02 -0.25101423366E+02  0.33741701967E+02  0.00000000000E+00 0. -1.
         22    1    4    4    0    0 -0.12393267811E+01 -0.50842836589E+00  0.13723248422E+01  0.19177345348E+01  0.00000000000E+00 0. -1.
<mgrwt>
<rscale>  0 0.88465612E+02</rscale>
<asrwt>0</asrwt>
<pdfrwt beam="2">  1        2 0.49362240E-02 0.88465612E+02</pdfrwt>
<pdfrwt beam="1">  1       -2 0.93813947E-02 0.88465612E+02</pdfrwt>
<totfact> 0.98407222E+04</totfact>
</mgrwt>
</event>
<event>
 7    1  0.3337990E-009  0.1046850E+03  0.7818608E-02  0.1270742E+00
          2   -1    0    0  501    0  0.00000000000E+00  0.00000000000E+00  0.21380808727E+02  0.21380808879E+02  0.25500000000E-02 0. -1.
         -2   -1    0    0    0  501 -0.00000000000E+00 -0.00000000000E+00 -0.12813998981E+03  0.12813998984E+03  0.25500000000E-02 0.  1.
         23    2    1    2    0    0  0.44408920985E-15  0.00000000000E+00 -0.10675918109E+03  0.14952079872E+03  0.10468498700E+03 0.  0.
    9000005    2    3    3    0    0  0.12366202945E+01  0.27581235467E+02 -0.11623516462E+03  0.12033093672E+03  0.14375919369E+02 0.  0.
         22    1    3    3    0    0 -0.12366202945E+01 -0.27581235467E+02  0.94759835325E+01  0.29189861999E+02  0.00000000000E+00 0. -1.
         22    1    4    4    0    0 -0.34918775637E+01  0.97496749836E+01 -0.22112702531E+02  0.24417636749E+02  0.00000000000E+00 0.  1.
         22    1    4    4    0    0  0.47284978583E+01  0.17831560483E+02 -0.94122462090E+02  0.95913299970E+02  0.00000000000E+00 0.  1.
<mgrwt>
<rscale>  0 0.10468499E+03</rscale>
<asrwt>0</asrwt>
<pdfrwt beam="1">  1        2 0.32893553E-02 0.10468499E+03</pdfrwt>
<pdfrwt beam="2">  1       -2 0.19713844E-01 0.10468499E+03</pdfrwt>
<totfact> 0.52132205E+04</totfact>
</mgrwt>
</event>
<event>
 7    1  0.3337990E-009  0.8928912E+02  0.7818608E-02  0.1304582E+00
          2   -1    0    0  501    0  0.00000000000E+00  0.00000000000E+00  0.95998208823E+03  0.95998208823E+03  0.25500000000E-02 0. -1.
         -2   -1    0    0    0  501 -0.00000000000E+00 -0.00000000000E+00 -0.20762221258E+01  0.20762236918E+01  0.25500000000E-02 0.  1.
         23    2    1    2    0    0  0.35527136788E-14  0.00000000000E+00  0.95790586610E+03  0.96205831193E+03  0.89289121552E+02 0.  0.
    9000005    2    3    3    0    0 -0.29650917941E+02  0.21800542717E+02  0.75022923191E+03  0.75114594864E+03  0.46792247606E+01 0.  0.
         22    1    3    3    0    0  0.29650917941E+02 -0.21800542717E+02  0.20767663419E+03  0.21091236328E+03  0.00000000000E+00 0. -1.
         22    1    4    4    0    0 -0.24874892145E+02  0.16998051160E+02  0.64010682463E+03  0.64081544998E+03  0.00000000000E+00 0.  1.
         22    1    4    4    0    0 -0.47760257952E+01  0.48024915564E+01  0.11012240729E+03  0.11033049866E+03  0.00000000000E+00 0.  1.
<mgrwt>
<rscale>  0 0.89289122E+02</rscale>
<asrwt>0</asrwt>
<pdfrwt beam="1">  1        2 0.14768935E+00 0.89289122E+02</pdfrwt>
<pdfrwt beam="2">  1       -2 0.31941934E-03 0.89289122E+02</pdfrwt>
<totfact> 0.26353603E+05</totfact>
</mgrwt>
</event>
<event>
 7    1  0.3337990E-009  0.9054127E+02  0.7818608E-02  0.1301546E+00
         -2   -1    0    0    0  501 -0.00000000000E+00  0.00000000000E+00  0.58038441594E+02  0.58038441650E+02  0.25500000000E-02 0.  1.
          2   -1    0    0  501    0  0.00000000000E+00 -0.00000000000E+00 -0.35311601836E+02  0.35311601928E+02  0.25500000000E-02 0. -1.
         23    2    1    2    0    0  0.00000000000E+00  0.00000000000E+00  0.22726839757E+02  0.93350043578E+02  0.90541268992E+02 0.  0.
    9000005    2    3    3    0    0 -0.43294921546E+02 -0.82622331017E+01  0.66272517079E+01  0.46425514141E+02  0.12988193504E+02 0.  0.
         22    1    3    3    0    0  0.43294921546E+02  0.82622331017E+01  0.16099588050E+02  0.46924529437E+02  0.00000000000E+00 0.  1.
         22    1    4    4    0    0 -0.10737710322E+02 -0.12314851458E+01 -0.39055563298E+01  0.11492099410E+02  0.00000000000E+00 0. -1.
         22    1    4    4    0    0 -0.32557211225E+02 -0.70307479559E+01  0.10532808038E+02  0.34933414730E+02  0.00000000000E+00 0. -1.
<mgrwt>
<rscale>  0 0.90541269E+02</rscale>
<asrwt>0</asrwt>
<pdfrwt beam="2">  1        2 0.54325542E-02 0.90541269E+02</pdfrwt>
<pdfrwt beam="1">  1       -2 0.89289909E-02 0.90541269E+02</pdfrwt>
<totfact> 0.94258309E+04</totfact>
</mgrwt>
</event>
<event>
 7    1  0.3337990E-009  0.8936044E+02  0.7818608E-02  0.1304408E+00
          2   -1    0    0  501    0  0.00000000000E+00  0.00000000000E+00  0.60617961866E+03  0.60617961867E+03  0.25500000000E-02 0.  1.
         -2   -1    0    0    0  501 -0.00000000000E+00 -0.00000000000E+00 -0.32932843108E+01  0.32932852980E+01  0.25500000000E-02 0. -1.
         23    2    1    2    0    0  0.00000000000E+00  0.00000000000E+00  0.60288633435E+03  0.60947290397E+03  0.89360441587E+02 0.  0.
    9000005    2    3    3    0    0 -0.42284402380E+01  0.41840514957E+02  0.39748517536E+03  0.39981092717E+03  0.92630694154E+01 0.  0.
         22    1    3    3    0    0  0.42284402380E+01 -0.41840514957E+02  0.20540115899E+03  0.20966197679E+03  0.00000000000E+00 0.  1.
         22    1    4    4    0    0 -0.21960379100E+01  0.32172922821E+02  0.26433629768E+03  0.26629607173E+03  0.00000000000E+00 0. -1.
         22    1    4    4    0    0 -0.20324023280E+01  0.96675921366E+01  0.13314887768E+03  0.13351485545E+03  0.00000000000E+00 0. -1.
<mgrwt>
<rscale>  0 0.89360442E+02</rscale>
<asrwt>0</asrwt>
<pdfrwt beam="1">  1        2 0.93258342E-01 0.89360442E+02</pdfrwt>
<pdfrwt beam="2">  1       -2 0.50665953E-03 0.89360442E+02</pdfrwt>
<totfact> 0.24096481E+05</totfact>
</mgrwt>
</event>
<event>
 7    1  0.3337990E-009  0.1118398E+03  0.7818608E-02  0.1257200E+00
          2   -1    0    0  501    0  0.00000000000E+00  0.00000000000E+00  0.24112334155E+02  0.24112334290E+02  0.25500000000E-02 0. -1.
         -2   -1    0    0    0  501 -0.00000000000E+00 -0.00000000000E+00 -0.12968622627E+03  0.12968622630E+03  0.25500000000E-02 0.  1.
         23    2    1    2    0    0 -0.35527136788E-14  0.00000000000E+00 -0.10557389211E+03  0.15379856059E+03  0.11183984327E+03 0.  0.
    9000005    2    3    3    0    0  0.20776242045E+02 -0.88289594256E+01  0.15018982064E+02  0.31110973354E+02  0.15255165772E+02 0.  0.
         22    1    3    3    0    0 -0.20776242045E+02  0.88289594256E+01 -0.12059287418E+03  0.12268758723E+03  0.00000000000E+00 0.  1.
         22    1    4    4    0    0  0.19750137582E+02 -0.12533064142E+02  0.12589227729E+02  0.26563777708E+02  0.00000000000E+00 0. -1.
         22    1    4    4    0    0  0.10261044634E+01  0.37041047163E+01  0.24297543343E+01  0.45471956461E+01  0.00000000000E+00 0. -1.
<mgrwt>
<rscale>  0 0.11183984E+03</rscale>
<asrwt>0</asrwt>
<pdfrwt beam="1">  1        2 0.37095900E-02 0.11183984E+03</pdfrwt>
<pdfrwt beam="2">  1       -2 0.19951727E-01 0.11183984E+03</pdfrwt>
<totfact> 0.43970024E+04</totfact>
</mgrwt>
</event>
<event>
 7    1  0.3337990E-009  0.9086541E+02  0.7818608E-02  0.1300769E+00
         -2   -1    0    0    0  501 -0.00000000000E+00  0.00000000000E+00  0.43724701674E+02  0.43724701749E+02  0.25500000000E-02 0.  1.
          2   -1    0    0  501    0  0.00000000000E+00 -0.00000000000E+00 -0.47207424945E+02  0.47207425014E+02  0.25500000000E-02 0. -1.
         23    2    1    2    0    0  0.00000000000E+00  0.55511151231E-16 -0.34827232712E+01  0.90932126763E+02  0.90865407699E+02 0.  0.
    9000005    2    3    3    0    0 -0.17635224395E+02  0.24139734844E+00 -0.43247726684E+02  0.47431380694E+02  0.82650226311E+01 0.  0.
         22    1    3    3    0    0  0.17635224395E+02 -0.24139734844E+00  0.39765003413E+02  0.43500746069E+02  0.00000000000E+00 0.  1.
         22    1    4    4    0    0 -0.18040524182E+02 -0.90750625871E+00 -0.38453352710E+02  0.42484637400E+02  0.00000000000E+00 0. -1.
         22    1    4    4    0    0  0.40529978727E+00  0.11489036072E+01 -0.47943739738E+01  0.49467432940E+01  0.00000000000E+00 0. -1.
<mgrwt>
<rscale>  0 0.90865408E+02</rscale>
<asrwt>0</asrwt>
<pdfrwt beam="2">  1        2 0.72626808E-02 0.90865408E+02</pdfrwt>
<pdfrwt beam="1">  1       -2 0.67268772E-02 0.90865408E+02</pdfrwt>
<totfact> 0.10055328E+05</totfact>
</mgrwt>
</event>
<event>
 7    1  0.3337990E-009  0.9110449E+02  0.7818608E-02  0.1300199E+00
          2   -1    0    0  501    0  0.00000000000E+00  0.00000000000E+00  0.10115458338E+03  0.10115458342E+03  0.25500000000E-02 0. -1.
         -2   -1    0    0    0  501 -0.00000000000E+00 -0.00000000000E+00 -0.20513229858E+02  0.20513230016E+02  0.25500000000E-02 0.  1.
         23    2    1    2    0    0  0.00000000000E+00  0.00000000000E+00  0.80641353526E+02  0.12166781343E+03  0.91104494548E+02 0.  0.
    9000005    2    3    3    0    0 -0.19696942962E+02 -0.19072220795E+02 -0.57667638655E+01  0.31014176333E+02  0.13300541343E+02 0.  0.
         22    1    3    3    0    0  0.19696942962E+02  0.19072220795E+02  0.86408117392E+02  0.90653637099E+02  0.00000000000E+00 0. -1.
         22    1    4    4    0    0 -0.17602501243E+02 -0.21144884028E+02 -0.49296913719E+01  0.27950957543E+02  0.00000000000E+00 0.  1.
         22    1    4    4    0    0 -0.20944417196E+01  0.20726632331E+01 -0.83707249360E+00  0.30632187898E+01  0.00000000000E+00 0.  1.
<mgrwt>
<rscale>  0 0.91104495E+02</rscale>
<asrwt>0</asrwt>
<pdfrwt beam="1">  1        2 0.15562244E-01 0.91104495E+02</pdfrwt>
<pdfrwt beam="2">  1       -2 0.31558815E-02 0.91104495E+02</pdfrwt>
<totfact> 0.12337589E+05</totfact>
</mgrwt>
</event>
<event>
 7    1  0.3337990E-009  0.8836181E+02  0.7818608E-02  0.1306868E+00
         -2   -1    0    0    0  501 -0.00000000000E+00  0.00000000000E+00  0.12659640243E+01  0.12659665925E+01  0.25500000000E-02 0.  1.
          2   -1    0    0  501    0  0.00000000000E+00 -0.00000000000E+00 -0.15418686662E+04  0.15418686663E+04  0.25500000000E-02 0. -1.
         23    2    1    2    0    0  0.00000000000E+00  0.00000000000E+00 -0.15406027022E+04  0.15431346328E+04  0.88361807245E+02 0.  0.
    9000005    2    3    3    0    0 -0.62617382241E+01 -0.23257246865E+02 -0.14165059521E+04  0.14167221640E+04  0.56981249791E+01 0.  0.
         22    1    3    3    0    0  0.62617382241E+01  0.23257246865E+02 -0.12409675013E+03  0.12641246888E+03  0.00000000000E+00 0.  1.
         22    1    4    4    0    0 -0.13179665166E+01 -0.74966411980E+01 -0.31268012699E+03  0.31277275854E+03  0.00000000000E+00 0. -1.
         22    1    4    4    0    0 -0.49437717075E+01 -0.15760605667E+02 -0.11038258251E+04  0.11039494054E+04  0.00000000000E+00 0. -1.
<mgrwt>
<rscale>  0 0.88361807E+02</rscale>
<asrwt>0</asrwt>
<pdfrwt beam="2">  1        2 0.23720906E+00 0.88361807E+02</pdfrwt>
<pdfrwt beam="1">  1       -2 0.19476513E-03 0.88361807E+02</pdfrwt>
<totfact> 0.25347385E+05</totfact>
</mgrwt>
</event>
<event>
 7    1  0.3337990E-009  0.9036499E+02  0.7818608E-02  0.1301970E+00
         -2   -1    0    0    0  501 -0.00000000000E+00  0.00000000000E+00  0.27264515525E+03  0.27264515526E+03  0.25500000000E-02 0. -1.
          2   -1    0    0  501    0  0.00000000000E+00 -0.00000000000E+00 -0.74875999163E+01  0.74876003505E+01  0.25500000000E-02 0.  1.
         23    2    1    2    0    0 -0.71054273576E-14 -0.22204460493E-15  0.26515755534E+03  0.28013275561E+03  0.90364991100E+02 0.  0.
    9000005    2    3    3    0    0 -0.37734061710E+02  0.18322511629E+01  0.20637543700E+03  0.21025748106E+03  0.13790242533E+02 0.  0.
         22    1    3    3    0    0  0.37734061710E+02 -0.18322511629E+01  0.58782118339E+02  0.69875274553E+02  0.00000000000E+00 0.  1.
         22    1    4    4    0    0 -0.25882960122E+02  0.33252937227E+01  0.16946373168E+03  0.17146119549E+03  0.00000000000E+00 0. -1.
         22    1    4    4    0    0 -0.11851101589E+02 -0.14930425598E+01  0.36911705318E+02  0.38796285575E+02  0.00000000000E+00 0. -1.
<mgrwt>
<rscale>  0 0.90364991E+02</rscale>
<asrwt>0</asrwt>
<pdfrwt beam="2">  1        2 0.11519385E-02 0.90364991E+02</pdfrwt>
<pdfrwt beam="1">  1       -2 0.41945408E-01 0.90364991E+02</pdfrwt>
<totfact> 0.54978932E+04</totfact>
</mgrwt>
</event>
<event>
 7    1  0.3337990E-009  0.9626164E+02  0.7818608E-02  0.1288360E+00
          2   -1    0    0  501    0  0.00000000000E+00  0.00000000000E+00  0.92602408029E+03  0.92602408029E+03  0.25500000000E-02 0. -1.
         -2   -1    0    0    0  501 -0.00000000000E+00 -0.00000000000E+00 -0.25016358652E+01  0.25016371649E+01  0.25500000000E-02 0.  1.
         23    2    1    2    0    0  0.00000000000E+00  0.00000000000E+00  0.92352244443E+03  0.92852571746E+03  0.96261636311E+02 0.  0.
    9000005    2    3    3    0    0 -0.96387570845E+01 -0.19178652703E+02  0.87669656331E+03  0.87701465555E+03  0.98547225721E+01 0.  0.
         22    1    3    3    0    0  0.96387570845E+01  0.19178652703E+02  0.46825881112E+02  0.51511061914E+02  0.00000000000E+00 0.  1.
         22    1    4    4    0    0 -0.45837653674E+01 -0.53414735515E+01  0.46752993924E+03  0.46758291920E+03  0.00000000000E+00 0. -1.
         22    1    4    4    0    0 -0.50549917171E+01 -0.13837179151E+02  0.40916662408E+03  0.40943173634E+03  0.00000000000E+00 0. -1.
<mgrwt>
<rscale>  0 0.96261636E+02</rscale>
<asrwt>0</asrwt>
<pdfrwt beam="1">  1        2 0.14246530E+00 0.96261636E+02</pdfrwt>
<pdfrwt beam="2">  1       -2 0.38486701E-03 0.96261636E+02</pdfrwt>
<totfact> 0.21547284E+05</totfact>
</mgrwt>
</event>
<event>
 7    1  0.3337990E-009  0.8890528E+02  0.7818608E-02  0.1305525E+00
         -2   -1    0    0    0  501 -0.00000000000E+00  0.00000000000E+00  0.34872186992E+01  0.34872196316E+01  0.25500000000E-02 0.  1.
          2   -1    0    0  501    0  0.00000000000E+00 -0.00000000000E+00 -0.56665131213E+03  0.56665131214E+03  0.25500000000E-02 0. -1.
         23    2    1    2    0    0  0.35527136788E-14  0.00000000000E+00 -0.56316409343E+03  0.57013853177E+03  0.88905282610E+02 0.  0.
    9000005    2    3    3    0    0 -0.18648886317E+02  0.25038422546E+02 -0.48066632705E+03  0.48193090726E+03  0.15574910666E+02 0.  0.
         22    1    3    3    0    0  0.18648886317E+02 -0.25038422546E+02 -0.82497766377E+02  0.88207624510E+02  0.00000000000E+00 0.  1.
         22    1    4    4    0    0 -0.12857777425E+02  0.14781151480E+02 -0.18592497725E+03  0.18695427795E+03  0.00000000000E+00 0.  1.
         22    1    4    4    0    0 -0.57911088922E+01  0.10257271066E+02 -0.29474134981E+03  0.29497662931E+03  0.00000000000E+00 0.  1.
<mgrwt>
<rscale>  0 0.88905283E+02</rscale>
<asrwt>0</asrwt>
<pdfrwt beam="2">  1        2 0.87177052E-01 0.88905283E+02</pdfrwt>
<pdfrwt beam="1">  1       -2 0.53649571E-03 0.88905283E+02</pdfrwt>
<totfact> 0.23951215E+05</totfact>
</mgrwt>
</event>
<event>
 7    1  0.3337990E-009  0.9664640E+02  0.7818608E-02  0.1287510E+00
         -2   -1    0    0    0  501 -0.00000000000E+00  0.00000000000E+00  0.15698548517E+01  0.15698569228E+01  0.25500000000E-02 0.  1.
          2   -1    0    0  501    0  0.00000000000E+00 -0.00000000000E+00 -0.14874816642E+04  0.14874816642E+04  0.25500000000E-02 0. -1.
         23    2    1    2    0    0  0.00000000000E+00  0.35527136788E-14 -0.14859118094E+04  0.14890515211E+04  0.96646403988E+02 0.  0.
    9000005    2    3    3    0    0 -0.57445953724E+01  0.27384646785E+02 -0.13480019362E+04  0.13483317557E+04  0.10314276959E+02 0.  0.
         22    1    3    3    0    0  0.57445953724E+01 -0.27384646785E+02 -0.13790987317E+03  0.14071976540E+03  0.00000000000E+00 0.  1.
         22    1    4    4    0    0 -0.47038263736E+01  0.24268373170E+02 -0.12900080421E+04  0.12902448715E+04  0.00000000000E+00 0. -1.
         22    1    4    4    0    0 -0.10407689988E+01  0.31162736153E+01 -0.57993894116E+02  0.58086884200E+02  0.00000000000E+00 0. -1.
<mgrwt>
<rscale>  0 0.96646404E+02</rscale>
<asrwt>0</asrwt>
<pdfrwt beam="2">  1        2 0.22884221E+00 0.96646404E+02</pdfrwt>
<pdfrwt beam="1">  1       -2 0.24151748E-03 0.96646404E+02</pdfrwt>
<totfact> 0.20293728E+05</totfact>
</mgrwt>
</event>
<event>
 7    1  0.3337990E-009  0.1014509E+03  0.7818608E-02  0.1277274E+00
          2   -1    0    0  501    0  0.00000000000E+00  0.00000000000E+00  0.25940229124E+03  0.25940229125E+03  0.25500000000E-02 0. -1.
         -2   -1    0    0    0  501 -0.00000000000E+00 -0.00000000000E+00 -0.99192366656E+01  0.99192369934E+01  0.25500000000E-02 0.  1.
         23    2    1    2    0    0 -0.35527136788E-14  0.00000000000E+00  0.24948305457E+03  0.26932152824E+03  0.10145092931E+03 0.  0.
    9000005    2    3    3    0    0  0.25753200634E+02 -0.33383116417E+02  0.52815037711E+02  0.68184836761E+02  0.90600193773E+01 0.  0.
         22    1    3    3    0    0 -0.25753200634E+02  0.33383116417E+02  0.19666801686E+03  0.20113669148E+03  0.00000000000E+00 0. -1.
         22    1    4    4    0    0  0.23154939595E+01 -0.12851060128E+01  0.88719406324E+00  0.27928700375E+01  0.00000000000E+00 0. -1.
         22    1    4    4    0    0  0.23437706674E+02 -0.32098010404E+02  0.51927843648E+02  0.65391966724E+02  0.00000000000E+00 0. -1.
<mgrwt>
<rscale>  0 0.10145093E+03</rscale>
<asrwt>0</asrwt>
<pdfrwt beam="1">  1        2 0.39908045E-01 0.10145093E+03</pdfrwt>
<pdfrwt beam="2">  1       -2 0.15260364E-02 0.10145093E+03</pdfrwt>
<totfact> 0.12764053E+05</totfact>
</mgrwt>
</event>
<event>
 7    1  0.3337990E-009  0.9353332E+02  0.7818608E-02  0.1294514E+00
         -2   -1    0    0    0  501 -0.00000000000E+00  0.00000000000E+00  0.77505145705E+02  0.77505145747E+02  0.25500000000E-02 0.  1.
          2   -1    0    0  501    0  0.00000000000E+00 -0.00000000000E+00 -0.28219035677E+02  0.28219035792E+02  0.25500000000E-02 0. -1.
         23    2    1    2    0    0  0.00000000000E+00 -0.22204460493E-15  0.49286110028E+02  0.10572418154E+03  0.93533319841E+02 0.  0.
    9000005    2    3    3    0    0  0.37314540700E+02  0.44453666730E+00 -0.39717598000E+01  0.40693625190E+02  0.15736063508E+02 0.  0.
         22    1    3    3    0    0 -0.37314540700E+02 -0.44453666730E+00  0.53257869828E+02  0.65030556349E+02  0.00000000000E+00 0.  1.
         22    1    4    4    0    0  0.87834676829E+01  0.20399599064E+01 -0.77234413417E+01  0.11872753982E+02  0.00000000000E+00 0. -1.
         22    1    4    4    0    0  0.28531073017E+02 -0.15954232391E+01  0.37516815417E+01  0.28820871208E+02  0.00000000000E+00 0. -1.
<mgrwt>
<rscale>  0 0.93533320E+02</rscale>
<asrwt>0</asrwt>
<pdfrwt beam="2">  1        2 0.43413901E-02 0.93533320E+02</pdfrwt>
<pdfrwt beam="1">  1       -2 0.11923869E-01 0.93533320E+02</pdfrwt>
<totfact> 0.80615885E+04</totfact>
</mgrwt>
</event>
<event>
 7    1  0.3337990E-009  0.9140587E+02  0.7818608E-02  0.1299482E+00
         -2   -1    0    0    0  501 -0.00000000000E+00  0.00000000000E+00  0.30939063335E+02  0.30939063440E+02  0.25500000000E-02 0.  1.
          2   -1    0    0  501    0  0.00000000000E+00 -0.00000000000E+00 -0.67512011723E+02  0.67512011771E+02  0.25500000000E-02 0. -1.
         23    2    1    2    0    0  0.00000000000E+00  0.00000000000E+00 -0.36572948388E+02  0.98451075211E+02  0.91405873205E+02 0.  0.
    9000005    2    3    3    0    0  0.15133273035E+02 -0.90723160084E+01  0.26153163451E+02  0.33290596568E+02  0.10627934458E+02 0.  0.
         22    1    3    3    0    0 -0.15133273035E+02  0.90723160084E+01 -0.62726111839E+02  0.65160478643E+02  0.00000000000E+00 0. -1.
         22    1    4    4    0    0  0.12733441327E+02 -0.58350900496E+01  0.11589814274E+02  0.18180005468E+02  0.00000000000E+00 0.  1.
         22    1    4    4    0    0  0.23998317084E+01 -0.32372259587E+01  0.14563349178E+02  0.15110591101E+02  0.00000000000E+00 0.  1.
<mgrwt>
<rscale>  0 0.91405873E+02</rscale>
<asrwt>0</asrwt>
<pdfrwt beam="2">  1        2 0.10386463E-01 0.91405873E+02</pdfrwt>
<pdfrwt beam="1">  1       -2 0.47598559E-02 0.91405873E+02</pdfrwt>
<totfact> 0.10875214E+05</totfact>
</mgrwt>
</event>
<event>
 7    1  0.3337990E-009  0.9167865E+02  0.7818608E-02  0.1298837E+00
         -2   -1    0    0    0  501 -0.00000000000E+00  0.00000000000E+00  0.11748818761E+02  0.11748819038E+02  0.25500000000E-02 0.  1.
          2   -1    0    0  501    0  0.00000000000E+00 -0.00000000000E+00 -0.17884722468E+03  0.17884722469E+03  0.25500000000E-02 0. -1.
         23    2    1    2    0    0  0.17763568394E-14 -0.71054273576E-14 -0.16709840591E+03  0.19059604373E+03  0.91678648698E+02 0.  0.
    9000005    2    3    3    0    0 -0.14938410770E+02  0.41789879732E+02 -0.10441870952E+03  0.11379568889E+03  0.87545272177E+01 0.  0.
         22    1    3    3    0    0  0.14938410770E+02 -0.41789879732E+02 -0.62679696395E+02  0.76800354846E+02  0.00000000000E+00 0.  1.
         22    1    4    4    0    0 -0.12151399024E+02  0.31762434795E+02 -0.69754824746E+02  0.77603120670E+02  0.00000000000E+00 0.  1.
         22    1    4    4    0    0 -0.27870117454E+01  0.10027444937E+02 -0.34663884773E+02  0.36192568215E+02  0.00000000000E+00 0.  1.
<mgrwt>
<rscale>  0 0.91678649E+02</rscale>
<asrwt>0</asrwt>
<pdfrwt beam="2">  1        2 0.27514956E-01 0.91678649E+02</pdfrwt>
<pdfrwt beam="1">  1       -2 0.18075107E-02 0.91678649E+02</pdfrwt>
<totfact> 0.14641865E+05</totfact>
</mgrwt>
</event>
<event>
 7    1  0.3337990E-009  0.9173784E+02  0.7818608E-02  0.1298697E+00
         -2   -1    0    0    0  501 -0.00000000000E+00  0.00000000000E+00  0.30993898332E+02  0.30993898437E+02  0.25500000000E-02 0. -1.
          2   -1    0    0  501    0  0.00000000000E+00 -0.00000000000E+00 -0.67882962555E+02  0.67882962603E+02  0.25500000000E-02 0.  1.
         23    2    1    2    0    0 -0.35527136788E-14  0.11102230246E-15 -0.36889064223E+02  0.98876861040E+02  0.91737836196E+02 0.  0.
    9000005    2    3    3    0    0  0.21951903887E+02  0.76182672243E+00 -0.60710063111E+02  0.66474601053E+02  0.15833330605E+02 0.  0.
         22    1    3    3    0    0 -0.21951903887E+02 -0.76182672243E+00  0.23820998888E+02  0.32402259987E+02  0.00000000000E+00 0. -1.
         22    1    4    4    0    0 -0.42280806118E+00 -0.23995891990E+01 -0.17915394487E+02  0.18080325069E+02  0.00000000000E+00 0.  1.
         22    1    4    4    0    0  0.22374711948E+02  0.31614159214E+01 -0.42794668624E+02  0.48394275984E+02  0.00000000000E+00 0.  1.
<mgrwt>
<rscale>  0 0.91737836E+02</rscale>
<asrwt>0</asrwt>
<pdfrwt beam="2">  1        2 0.10443533E-01 0.91737836E+02</pdfrwt>
<pdfrwt beam="1">  1       -2 0.47682921E-02 0.91737836E+02</pdfrwt>
<totfact> 0.10781371E+05</totfact>
</mgrwt>
</event>
<event>
 7    1  0.3337990E-009  0.9180519E+02  0.7818608E-02  0.1298538E+00
          2   -1    0    0  501    0  0.00000000000E+00  0.00000000000E+00  0.10148750351E+02  0.10148750672E+02  0.25500000000E-02 0. -1.
         -2   -1    0    0    0  501 -0.00000000000E+00 -0.00000000000E+00 -0.20761653248E+03  0.20761653249E+03  0.25500000000E-02 0.  1.
         23    2    1    2    0    0  0.00000000000E+00  0.71054273576E-14 -0.19746778212E+03  0.21776528316E+03  0.91805193611E+02 0.  0.
    9000005    2    3    3    0    0  0.29044588552E+02 -0.33144757286E+02 -0.12726741832E+03  0.13487828697E+03  0.72796614226E+01 0.  0.
         22    1    3    3    0    0 -0.29044588552E+02  0.33144757286E+02 -0.70200363809E+02  0.82886996197E+02  0.00000000000E+00 0. -1.
         22    1    4    4    0    0  0.19017440028E+02 -0.24184032213E+02 -0.96893682758E+02  0.10166078987E+03  0.00000000000E+00 0.  1.
         22    1    4    4    0    0  0.10027148524E+02 -0.89607250734E+01 -0.30373735558E+02  0.33217497093E+02  0.00000000000E+00 0.  1.
<mgrwt>
<rscale>  0 0.91805194E+02</rscale>
<asrwt>0</asrwt>
<pdfrwt beam="1">  1        2 0.15613464E-02 0.91805194E+02</pdfrwt>
<pdfrwt beam="2">  1       -2 0.31941002E-01 0.91805194E+02</pdfrwt>
<totfact> 0.60239288E+04</totfact>
</mgrwt>
</event>
<event>
 7    1  0.3337990E-009  0.8706985E+02  0.7818608E-02  0.1310107E+00
          2   -1    0    0  501    0  0.00000000000E+00  0.00000000000E+00  0.11154195375E+03  0.11154195377E+03  0.25500000000E-02 0. -1.
         -2   -1    0    0    0  501 -0.00000000000E+00 -0.00000000000E+00 -0.16991719412E+02  0.16991719604E+02  0.25500000000E-02 0.  1.
         23    2    1    2    0    0  0.00000000000E+00  0.00000000000E+00  0.94550234334E+02  0.12853367338E+03  0.87069847706E+02 0.  0.
    9000005    2    3    3    0    0 -0.68856842472E+01 -0.29530128545E+02  0.92883155509E+02  0.98165593241E+02  0.94742799017E+01 0.  0.
         22    1    3    3    0    0  0.68856842472E+01  0.29530128545E+02  0.16670788247E+01  0.30368080137E+02  0.00000000000E+00 0.  1.
         22    1    4    4    0    0 -0.31138537767E+01 -0.46949467586E+01  0.28581289591E+02  0.29131232811E+02  0.00000000000E+00 0. -1.
         22    1    4    4    0    0 -0.37718304705E+01 -0.24835181786E+02  0.64301865918E+02  0.69034360430E+02  0.00000000000E+00 0. -1.
<mgrwt>
<rscale>  0 0.87069848E+02</rscale>
<asrwt>0</asrwt>
<pdfrwt beam="1">  1        2 0.17160301E-01 0.87069848E+02</pdfrwt>
<pdfrwt beam="2">  1       -2 0.26141107E-02 0.87069848E+02</pdfrwt>
<totfact> 0.14390516E+05</totfact>
</mgrwt>
</event>
<event>
 6    1  0.3337990E-009  0.1704541E+03  0.7818608E-02  0.1177375E+00
         -2   -1    0    0    0  501 -0.00000000000E+00  0.00000000000E+00  0.29436445096E+03  0.29436445097E+03  0.25500000000E-02 0. -1.
          2   -1    0    0  501    0  0.00000000000E+00 -0.00000000000E+00 -0.24675694563E+02  0.24675694695E+02  0.25500000000E-02 0.  1.
    9000005    2    1    2    0    0  0.61905917886E+02 -0.57025520760E+02  0.15779274237E+03  0.17902239449E+03  0.81372906896E+01 0.  0.
         22    1    1    2    0    0 -0.61905917886E+02  0.57025520760E+02  0.11189601403E+03  0.14001775117E+03  0.00000000000E+00 0. -1.
         22    1    3    3    0    0  0.86892419163E+01 -0.11820081134E+02  0.24814819676E+02  0.28826940848E+02  0.00000000000E+00 0.  1.
         22    1    3    3    0    0  0.53216675969E+02 -0.45205439626E+02  0.13297792269E+03  0.15019545365E+03  0.00000000000E+00 0.  1.
<mgrwt>
<rscale>  0 0.17045407E+03</rscale>
<asrwt>0</asrwt>
<pdfrwt beam="2">  1        2 0.37962611E-02 0.17045407E+03</pdfrwt>
<pdfrwt beam="1">  1       -2 0.45286835E-01 0.17045407E+03</pdfrwt>
<totfact> 0.10179289E+04</totfact>
</mgrwt>
</event>
<event>
 7    1  0.3337990E-009  0.9773124E+02  0.7818608E-02  0.1285140E+00
         -2   -1    0    0    0  501 -0.00000000000E+00  0.00000000000E+00  0.79228464271E+02  0.79228464312E+02  0.25500000000E-02 0.  1.
          2   -1    0    0  501    0  0.00000000000E+00 -0.00000000000E+00 -0.30138773311E+02  0.30138773419E+02  0.25500000000E-02 0. -1.
         23    2    1    2    0    0  0.00000000000E+00 -0.22204460493E-15  0.49089690960E+02  0.10936723773E+03  0.97731238252E+02 0.  0.
    9000005    2    3    3    0    0  0.38732476697E+02  0.15672082134E+01 -0.63073892288E+01  0.41754388463E+02  0.14176914488E+02 0.  0.
         22    1    3    3    0    0 -0.38732476697E+02 -0.15672082134E+01  0.55397080189E+02  0.67612849268E+02  0.00000000000E+00 0.  1.
         22    1    4    4    0    0  0.20606131394E+02  0.46725773070E+01 -0.93647459424E+01  0.23111557634E+02  0.00000000000E+00 0. -1.
         22    1    4    4    0    0  0.18126345303E+02 -0.31053690936E+01  0.30573567136E+01  0.18642830829E+02  0.00000000000E+00 0. -1.
<mgrwt>
<rscale>  0 0.97731238E+02</rscale>
<asrwt>0</asrwt>
<pdfrwt beam="2">  1        2 0.46367344E-02 0.97731238E+02</pdfrwt>
<pdfrwt beam="1">  1       -2 0.12188994E-01 0.97731238E+02</pdfrwt>
<totfact> 0.71947495E+04</totfact>
</mgrwt>
</event>
<event>
 7    1  0.3337990E-009  0.8953351E+02  0.7818608E-02  0.1303985E+00
         -2   -1    0    0    0  501 -0.00000000000E+00  0.00000000000E+00  0.16188179461E+01  0.16188199546E+01  0.25500000000E-02 0.  1.
          2   -1    0    0  501    0  0.00000000000E+00 -0.00000000000E+00 -0.12379780959E+04  0.12379780959E+04  0.25500000000E-02 0. -1.
         23    2    1    2    0    0  0.00000000000E+00  0.00000000000E+00 -0.12363592779E+04  0.12395969158E+04  0.89533511156E+02 0.  0.
    9000005    2    3    3    0    0 -0.16337025474E+02  0.27522192974E+02 -0.10485938387E+04  0.10491232177E+04  0.92799715404E+01 0.  0.
         22    1    3    3    0    0  0.16337025474E+02 -0.27522192974E+02 -0.18776543924E+03  0.19047369813E+03  0.00000000000E+00 0.  1.
         22    1    4    4    0    0 -0.62368938560E+01  0.62188188908E+01 -0.18758630704E+03  0.18779295818E+03  0.00000000000E+00 0.  1.
         22    1    4    4    0    0 -0.10100131618E+02  0.21303374083E+02 -0.86100753164E+03  0.86133025951E+03  0.00000000000E+00 0.  1.
<mgrwt>
<rscale>  0 0.89533511E+02</rscale>
<asrwt>0</asrwt>
<pdfrwt beam="2">  1        2 0.19045741E+00 0.89533511E+02</pdfrwt>
<pdfrwt beam="1">  1       -2 0.24905006E-03 0.89533511E+02</pdfrwt>
<totfact> 0.25985514E+05</totfact>
</mgrwt>
</event>
<event>
 7    1  0.3337990E-009  0.9244699E+02  0.7818608E-02  0.1297032E+00
         -2   -1    0    0    0  501 -0.00000000000E+00  0.00000000000E+00  0.65505264306E+01  0.65505269270E+01  0.25500000000E-02 0.  1.
          2   -1    0    0  501    0  0.00000000000E+00 -0.00000000000E+00 -0.32617399996E+03  0.32617399997E+03  0.25500000000E-02 0. -1.
         23    2    1    2    0    0 -0.17763568394E-14  0.71054273576E-14 -0.31962347353E+03  0.33272452690E+03  0.92446990042E+02 0.  0.
    9000005    2    3    3    0    0  0.14669128919E+02 -0.42692212396E+02 -0.15421384451E+03  0.16126562887E+03  0.13670584173E+02 0.  0.
         22    1    3    3    0    0 -0.14669128919E+02  0.42692212396E+02 -0.16540962902E+03  0.17145889803E+03  0.00000000000E+00 0.  1.
         22    1    4    4    0    0  0.49987709211E+01 -0.64933034716E+01 -0.46613639256E+02  0.47328448795E+02  0.00000000000E+00 0. -1.
         22    1    4    4    0    0  0.96703579976E+01 -0.36198908925E+02 -0.10760020526E+03  0.11393718007E+03  0.00000000000E+00 0. -1.
<mgrwt>
<rscale>  0 0.92446990E+02</rscale>
<asrwt>0</asrwt>
<pdfrwt beam="2">  1        2 0.50180603E-01 0.92446990E+02</pdfrwt>
<pdfrwt beam="1">  1       -2 0.10077736E-02 0.92446990E+02</pdfrwt>
<totfact> 0.17861124E+05</totfact>
</mgrwt>
</event>
<event>
 7    1  0.3337990E-009  0.9169017E+02  0.7818608E-02  0.1298810E+00
         -2   -1    0    0    0  501 -0.00000000000E+00  0.00000000000E+00  0.11449486632E+03  0.11449486635E+03  0.25500000000E-02 0.  1.
          2   -1    0    0  501    0  0.00000000000E+00 -0.00000000000E+00 -0.18356909692E+02  0.18356909869E+02  0.25500000000E-02 0. -1.
         23    2    1    2    0    0  0.00000000000E+00  0.00000000000E+00  0.96137956627E+02  0.13285177622E+03  0.91690172534E+02 0.  0.
    9000005    2    3    3    0    0  0.29712820194E+02  0.34497594976E+02  0.50431663879E+02  0.68338204467E+02  0.73363291397E+01 0.  0.
         22    1    3    3    0    0 -0.29712820194E+02 -0.34497594976E+02  0.45706292748E+02  0.64513571749E+02  0.00000000000E+00 0. -1.
         22    1    4    4    0    0  0.64751590812E+01  0.85443682757E+01  0.16714620151E+02  0.19857301960E+02  0.00000000000E+00 0.  1.
         22    1    4    4    0    0  0.23237661113E+02  0.25953226700E+02  0.33717043728E+02  0.48480902507E+02  0.00000000000E+00 0.  1.
<mgrwt>
<rscale>  0 0.91690173E+02</rscale>
<asrwt>0</asrwt>
<pdfrwt beam="2">  1        2 0.28241399E-02 0.91690173E+02</pdfrwt>
<pdfrwt beam="1">  1       -2 0.17614595E-01 0.91690173E+02</pdfrwt>
<totfact> 0.75487924E+04</totfact>
</mgrwt>
</event>
<event>
 7    1  0.3337990E-009  0.9156109E+02  0.7818608E-02  0.1299115E+00
          2   -1    0    0  501    0  0.00000000000E+00  0.00000000000E+00  0.19453686483E+03  0.19453686485E+03  0.25500000000E-02 0.  1.
         -2   -1    0    0    0  501 -0.00000000000E+00 -0.00000000000E+00 -0.10773578693E+02  0.10773578995E+02  0.25500000000E-02 0. -1.
         23    2    1    2    0    0  0.00000000000E+00  0.00000000000E+00  0.18376328614E+03  0.20531044384E+03  0.91561088998E+02 0.  0.
    9000005    2    3    3    0    0  0.35540755159E+02  0.13257212842E+01  0.15459768474E+03  0.15931549718E+03  0.14699683596E+02 0.  0.
         22    1    3    3    0    0 -0.35540755159E+02 -0.13257212842E+01  0.29165601394E+02  0.45994946667E+02  0.00000000000E+00 0. -1.
         22    1    4    4    0    0  0.66197595739E+00 -0.55394714953E+00  0.27270536762E+02  0.27284194049E+02  0.00000000000E+00 0. -1.
         22    1    4    4    0    0  0.34878779202E+02  0.18796684337E+01  0.12732714798E+03  0.13203130313E+03  0.00000000000E+00 0. -1.
<mgrwt>
<rscale>  0 0.91561089E+02</rscale>
<asrwt>0</asrwt>
<pdfrwt beam="1">  1        2 0.29928745E-01 0.91561089E+02</pdfrwt>
<pdfrwt beam="2">  1       -2 0.16574739E-02 0.91561089E+02</pdfrwt>
<totfact> 0.15141432E+05</totfact>
</mgrwt>
</event>
<event>
 7    1  0.3337990E-009  0.1072840E+03  0.7818608E-02  0.1265684E+00
          2   -1    0    0  501    0  0.00000000000E+00  0.00000000000E+00  0.37105153877E+03  0.37105153877E+03  0.25500000000E-02 0. -1.
         -2   -1    0    0    0  501 -0.00000000000E+00 -0.00000000000E+00 -0.77548887564E+01  0.77548891757E+01  0.25500000000E-02 0.  1.
         23    2    1    2    0    0  0.00000000000E+00  0.00000000000E+00  0.36329665001E+03  0.37880642795E+03  0.10728398738E+03 0.  0.
    9000005    2    3    3    0    0 -0.48853111664E+02 -0.17117943431E+02  0.21807818213E+03  0.22463751435E+03  0.14975607736E+02 0.  0.
         22    1    3    3    0    0  0.48853111664E+02  0.17117943431E+02  0.14521846788E+03  0.15416891360E+03  0.00000000000E+00 0.  1.
         22    1    4    4    0    0 -0.63909318512E+01  0.21154752411E+01  0.39824805134E+02  0.40389780259E+02  0.00000000000E+00 0. -1.
         22    1    4    4    0    0 -0.42462179812E+02 -0.19233418672E+02  0.17825337699E+03  0.18424773409E+03  0.00000000000E+00 0. -1.
<mgrwt>
<rscale>  0 0.10728399E+03</rscale>
<asrwt>0</asrwt>
<pdfrwt beam="1">  1        2 0.57084852E-01 0.10728399E+03</pdfrwt>
<pdfrwt beam="2">  1       -2 0.11930598E-02 0.10728399E+03</pdfrwt>
<totfact> 0.12558827E+05</totfact>
</mgrwt>
</event>
<event>
 7    1  0.3337990E-009  0.9462676E+02  0.7818608E-02  0.1292019E+00
          2   -1    0    0  501    0  0.00000000000E+00  0.00000000000E+00  0.13195011062E+03  0.13195011064E+03  0.25500000000E-02 0.  1.
         -2   -1    0    0    0  501 -0.00000000000E+00 -0.00000000000E+00 -0.16965167326E+02  0.16965167518E+02  0.25500000000E-02 0. -1.
         23    2    1    2    0    0  0.00000000000E+00  0.00000000000E+00  0.11498494329E+03  0.14891527816E+03  0.94626755653E+02 0.  0.
    9000005    2    3    3    0    0 -0.40777275968E+02 -0.20215865104E+02  0.77177173930E+02  0.89746917852E+02  0.51696857639E+01 0.  0.
         22    1    3    3    0    0  0.40777275968E+02  0.20215865104E+02  0.37807769359E+02  0.59168360305E+02  0.00000000000E+00 0. -1.
         22    1    4    4    0    0 -0.27620256086E+02 -0.16144525165E+02  0.52184020815E+02  0.61210262763E+02  0.00000000000E+00 0.  1.
         22    1    4    4    0    0 -0.13157019882E+02 -0.40713399391E+01  0.24993153115E+02  0.28536655090E+02  0.00000000000E+00 0.  1.
<mgrwt>
<rscale>  0 0.94626756E+02</rscale>
<asrwt>0</asrwt>
<pdfrwt beam="1">  1        2 0.20300017E-01 0.94626756E+02</pdfrwt>
<pdfrwt beam="2">  1       -2 0.26100257E-02 0.94626756E+02</pdfrwt>
<totfact> 0.12100191E+05</totfact>
</mgrwt>
</event>
<event>
 7    1  0.3337990E-009  0.8772012E+02  0.7818608E-02  0.1308469E+00
          2   -1    0    0  501    0  0.00000000000E+00  0.00000000000E+00  0.19916818085E+03  0.19916818086E+03  0.25500000000E-02 0. -1.
         -2   -1    0    0    0  501 -0.00000000000E+00 -0.00000000000E+00 -0.96586964434E+01  0.96586967800E+01  0.25500000000E-02 0.  1.
         23    2    1    2    0    0 -0.17763568394E-14  0.00000000000E+00  0.18950948440E+03  0.20882687764E+03  0.87720123959E+02 0.  0.
    9000005    2    3    3    0    0  0.10260438622E+02  0.32073853388E+02  0.32904285652E+02  0.48641994000E+02  0.12220593034E+02 0.  0.
         22    1    3    3    0    0 -0.10260438622E+02 -0.32073853388E+02  0.15660519875E+03  0.16018488364E+03  0.00000000000E+00 0.  1.
         22    1    4    4    0    0  0.18048408964E+01  0.52532071990E+01  0.26808215412E+00  0.55610704525E+01  0.00000000000E+00 0.  1.
         22    1    4    4    0    0  0.84555977260E+01  0.26820646190E+02  0.32636203498E+02  0.43080923547E+02  0.00000000000E+00 0.  1.
<mgrwt>
<rscale>  0 0.87720124E+02</rscale>
<asrwt>0</asrwt>
<pdfrwt beam="1">  1        2 0.30641256E-01 0.87720124E+02</pdfrwt>
<pdfrwt beam="2">  1       -2 0.14859535E-02 0.87720124E+02</pdfrwt>
<totfact> 0.17133322E+05</totfact>
</mgrwt>
</event>
<event>
 7    1  0.3337990E-009  0.8628112E+02  0.7818608E-02  0.1312116E+00
         -2   -1    0    0    0  501 -0.00000000000E+00  0.00000000000E+00  0.91013609162E+02  0.91013609198E+02  0.25500000000E-02 0.  1.
          2   -1    0    0  501    0  0.00000000000E+00 -0.00000000000E+00 -0.20448675336E+02  0.20448675495E+02  0.25500000000E-02 0. -1.
         23    2    1    2    0    0 -0.88817841970E-15 -0.35527136788E-14  0.70564933826E+02  0.11146228469E+03  0.86281116259E+02 0.  0.
    9000005    2    3    3    0    0 -0.57979208064E+01 -0.24942239141E+02 -0.69219764683E+01  0.29853752994E+02  0.13696774458E+02 0.  0.
         22    1    3    3    0    0  0.57979208064E+01  0.24942239141E+02  0.77486910295E+02  0.81608531699E+02  0.00000000000E+00 0.  1.
         22    1    4    4    0    0 -0.36449741254E+01 -0.60400117464E+00 -0.36654055434E+01  0.52044069395E+01  0.00000000000E+00 0. -1.
         22    1    4    4    0    0 -0.21529466810E+01 -0.24338237966E+02 -0.32565709249E+01  0.24649346054E+02  0.00000000000E+00 0. -1.
<mgrwt>
<rscale>  0 0.86281116E+02</rscale>
<asrwt>0</asrwt>
<pdfrwt beam="2">  1        2 0.31459501E-02 0.86281116E+02</pdfrwt>
<pdfrwt beam="1">  1       -2 0.14002094E-01 0.86281116E+02</pdfrwt>
<totfact> 0.94049563E+04</totfact>
</mgrwt>
</event>
<event>
 7    1  0.3337990E-009  0.9049325E+02  0.7818608E-02  0.1301662E+00
          2   -1    0    0  501    0  0.00000000000E+00  0.00000000000E+00  0.35440272787E+03  0.35440272788E+03  0.25500000000E-02 0. -1.
         -2   -1    0    0    0  501 -0.00000000000E+00 -0.00000000000E+00 -0.57766404376E+01  0.57766410004E+01  0.25500000000E-02 0.  1.
         23    2    1    2    0    0  0.00000000000E+00  0.00000000000E+00  0.34862608743E+03  0.36017936888E+03  0.90493253495E+02 0.  0.
    9000005    2    3    3    0    0 -0.32527596603E+02 -0.29840724335E+02  0.15250865034E+03  0.15915558297E+03  0.11094944458E+02 0.  0.
         22    1    3    3    0    0  0.32527596603E+02  0.29840724335E+02  0.19611743709E+03  0.20102378591E+03  0.00000000000E+00 0. -1.
         22    1    4    4    0    0 -0.14607891479E+02 -0.20714113013E+02  0.89009545207E+02  0.92548171831E+02  0.00000000000E+00 0.  1.
         22    1    4    4    0    0 -0.17919705124E+02 -0.91266113213E+01  0.63499105135E+02  0.66607411141E+02  0.00000000000E+00 0.  1.
<mgrwt>
<rscale>  0 0.90493253E+02</rscale>
<asrwt>0</asrwt>
<pdfrwt beam="1">  1        2 0.54523507E-01 0.90493253E+02</pdfrwt>
<pdfrwt beam="2">  1       -2 0.88871379E-03 0.90493253E+02</pdfrwt>
<totfact> 0.19492849E+05</totfact>
</mgrwt>
</event>
<event>
 7    1  0.3337990E-009  0.9101597E+02  0.7818608E-02  0.1300410E+00
          2   -1    0    0  501    0  0.00000000000E+00  0.00000000000E+00  0.61600122015E+03  0.61600122016E+03  0.25500000000E-02 0. -1.
         -2   -1    0    0    0  501 -0.00000000000E+00 -0.00000000000E+00 -0.33619683335E+01  0.33619693006E+01  0.25500000000E-02 0.  1.
         23    2    1    2    0    0  0.35527136788E-14  0.00000000000E+00  0.61263925182E+03  0.61936318946E+03  0.91015974349E+02 0.  0.
    9000005    2    3    3    0    0  0.31855675541E+02 -0.22360666666E+02  0.46662558900E+03  0.46825139902E+03  0.22691192575E+01 0.  0.
         22    1    3    3    0    0 -0.31855675541E+02  0.22360666666E+02  0.14601366282E+03  0.15111179043E+03  0.00000000000E+00 0.  1.
         22    1    4    4    0    0  0.14441118529E+02 -0.10907327234E+02  0.20561234508E+03  0.20640724828E+03  0.00000000000E+00 0. -1.
         22    1    4    4    0    0  0.17414557012E+02 -0.11453339432E+02  0.26101324391E+03  0.26184415074E+03  0.00000000000E+00 0. -1.
<mgrwt>
<rscale>  0 0.91015974E+02</rscale>
<asrwt>0</asrwt>
<pdfrwt beam="1">  1        2 0.94769334E-01 0.91015974E+02</pdfrwt>
<pdfrwt beam="2">  1       -2 0.51722643E-03 0.91015974E+02</pdfrwt>
<totfact> 0.23060573E+05</totfact>
</mgrwt>
</event>
<event>
 7    1  0.3337990E-009  0.9143009E+02  0.7818608E-02  0.1299425E+00
          2   -1    0    0  501    0  0.00000000000E+00  0.00000000000E+00  0.93047754198E+02  0.93047754233E+02  0.25500000000E-02 0. -1.
         -2   -1    0    0    0  501 -0.00000000000E+00 -0.00000000000E+00 -0.22460138848E+02  0.22460138993E+02  0.25500000000E-02 0.  1.
         23    2    1    2    0    0  0.88817841970E-15  0.00000000000E+00  0.70587615350E+02  0.11550789323E+03  0.91430093278E+02 0.  0.
    9000005    2    3    3    0    0  0.44790878911E+01 -0.43647305341E+02  0.22713881551E+02  0.50569122991E+02  0.10778046813E+02 0.  0.
         22    1    3    3    0    0 -0.44790878911E+01  0.43647305341E+02  0.47873733799E+02  0.64938770236E+02  0.00000000000E+00 0. -1.
         22    1    4    4    0    0 -0.22105848521E+01 -0.27490025688E+02  0.15642556413E+02  0.31706115638E+02  0.00000000000E+00 0. -1.
         22    1    4    4    0    0  0.66896727432E+01 -0.16157279652E+02  0.70713251377E+01  0.18863007353E+02  0.00000000000E+00 0. -1.
<mgrwt>
<rscale>  0 0.91430093E+02</rscale>
<asrwt>0</asrwt>
<pdfrwt beam="1">  1        2 0.14315039E-01 0.91430093E+02</pdfrwt>
<pdfrwt beam="2">  1       -2 0.34554060E-02 0.91430093E+02</pdfrwt>
<totfact> 0.11912323E+05</totfact>
</mgrwt>
</event>
<event>
 7    1  0.3337990E-009  0.9015717E+02  0.7818608E-02  0.1302472E+00
          2   -1    0    0  501    0  0.00000000000E+00  0.00000000000E+00  0.50311315125E+02  0.50311315190E+02  0.25500000000E-02 0. -1.
         -2   -1    0    0    0  501 -0.00000000000E+00 -0.00000000000E+00 -0.40390095387E+02  0.40390095468E+02  0.25500000000E-02 0.  1.
         23    2    1    2    0    0  0.00000000000E+00  0.00000000000E+00  0.99212197384E+01  0.90701410658E+02  0.90157169954E+02 0.  0.
    9000005    2    3    3    0    0  0.14315481599E+02  0.17789840220E+02 -0.32645726777E+02  0.42396583113E+02  0.14502253426E+02 0.  0.
         22    1    3    3    0    0 -0.14315481599E+02 -0.17789840220E+02  0.42566946515E+02  0.48304827544E+02  0.00000000000E+00 0. -1.
         22    1    4    4    0    0  0.70800702125E+01  0.37708379044E+01 -0.21861732968E+02  0.23286948728E+02  0.00000000000E+00 0.  1.
         22    1    4    4    0    0  0.72354113864E+01  0.14019002315E+02 -0.10783993809E+02  0.19109634385E+02  0.00000000000E+00 0.  1.
<mgrwt>
<rscale>  0 0.90157170E+02</rscale>
<asrwt>0</asrwt>
<pdfrwt beam="1">  1        2 0.77402024E-02 0.90157170E+02</pdfrwt>
<pdfrwt beam="2">  1       -2 0.62138608E-02 0.90157170E+02</pdfrwt>
<totfact> 0.10453427E+05</totfact>
</mgrwt>
</event>
<event>
 7    1  0.3337990E-009  0.8680997E+02  0.7818608E-02  0.1310766E+00
          2   -1    0    0  501    0  0.00000000000E+00  0.00000000000E+00  0.15870231958E+03  0.15870231960E+03  0.25500000000E-02 0. -1.
         -2   -1    0    0    0  501 -0.00000000000E+00 -0.00000000000E+00 -0.11871235479E+02  0.11871235752E+02  0.25500000000E-02 0.  1.
         23    2    1    2    0    0  0.00000000000E+00  0.00000000000E+00  0.14683108410E+03  0.17057355535E+03  0.86809967903E+02 0.  0.
    9000005    2    3    3    0    0  0.16872470306E+02 -0.41504423748E+01  0.15132817905E+03  0.15262556691E+03  0.96145448787E+01 0.  0.
         22    1    3    3    0    0 -0.16872470306E+02  0.41504423748E+01 -0.44970949513E+01  0.17947988442E+02  0.00000000000E+00 0.  1.
         22    1    4    4    0    0  0.60504426752E+01  0.27645285200E+01  0.66316960870E+02  0.66649754490E+02  0.00000000000E+00 0.  1.
         22    1    4    4    0    0  0.10822027631E+02 -0.69149708948E+01  0.85011218181E+02  0.85975812419E+02  0.00000000000E+00 0.  1.
<mgrwt>
<rscale>  0 0.86809968E+02</rscale>
<asrwt>0</asrwt>
<pdfrwt beam="1">  1        2 0.24415740E-01 0.86809968E+02</pdfrwt>
<pdfrwt beam="2">  1       -2 0.18263440E-02 0.86809968E+02</pdfrwt>
<totfact> 0.16272426E+05</totfact>
</mgrwt>
</event>
<event>
 7    1  0.3337990E-009  0.9133530E+02  0.7818608E-02  0.1299650E+00
         -2   -1    0    0    0  501 -0.00000000000E+00  0.00000000000E+00  0.68412030316E+02  0.68412030363E+02  0.25500000000E-02 0. -1.
          2   -1    0    0  501    0  0.00000000000E+00 -0.00000000000E+00 -0.30484902324E+02  0.30484902431E+02  0.25500000000E-02 0.  1.
         23    2    1    2    0    0  0.00000000000E+00  0.00000000000E+00  0.37927127991E+02  0.98896932794E+02  0.91335295907E+02 0.  0.
    9000005    2    3    3    0    0  0.79300823419E+01 -0.42984249970E+02  0.69647230130E+01  0.45331995816E+02  0.97954339670E+01 0.  0.
         22    1    3    3    0    0 -0.79300823419E+01  0.42984249970E+02  0.30962404978E+02  0.53564936978E+02  0.00000000000E+00 0. -1.
         22    1    4    4    0    0 -0.23222294927E+01 -0.74413996071E+01  0.92005239454E+00  0.78494378358E+01  0.00000000000E+00 0. -1.
         22    1    4    4    0    0  0.10252311835E+02 -0.35542850363E+02  0.60446706185E+01  0.37482557980E+02  0.00000000000E+00 0. -1.
<mgrwt>
<rscale>  0 0.91335296E+02</rscale>
<asrwt>0</asrwt>
<pdfrwt beam="2">  1        2 0.46899850E-02 0.91335296E+02</pdfrwt>
<pdfrwt beam="1">  1       -2 0.10524928E-01 0.91335296E+02</pdfrwt>
<totfact> 0.88388507E+04</totfact>
</mgrwt>
</event>
<event>
 7    1  0.3337990E-009  0.9183006E+02  0.7818608E-02  0.1298479E+00
         -2   -1    0    0    0  501 -0.00000000000E+00  0.00000000000E+00  0.90121674472E+02  0.90121674508E+02  0.25500000000E-02 0.  1.
          2   -1    0    0  501    0  0.00000000000E+00 -0.00000000000E+00 -0.23392709010E+02  0.23392709149E+02  0.25500000000E-02 0. -1.
         23    2    1    2    0    0  0.00000000000E+00  0.00000000000E+00  0.66728965462E+02  0.11351438366E+03  0.91830062972E+02 0.  0.
    9000005    2    3    3    0    0  0.39092605707E+02  0.17053889155E+02  0.14919539177E+02  0.46407874225E+02  0.10584478472E+02 0.  0.
         22    1    3    3    0    0 -0.39092605707E+02 -0.17053889155E+02  0.51809426284E+02  0.67106509432E+02  0.00000000000E+00 0.  1.
         22    1    4    4    0    0  0.20795884224E+02  0.13057644364E+02  0.44608361018E+01  0.24957362355E+02  0.00000000000E+00 0.  1.
         22    1    4    4    0    0  0.18296721483E+02  0.39962447919E+01  0.10458703076E+02  0.21450511870E+02  0.00000000000E+00 0.  1.
<mgrwt>
<rscale>  0 0.91830063E+02</rscale>
<asrwt>0</asrwt>
<pdfrwt beam="2">  1        2 0.35988784E-02 0.91830063E+02</pdfrwt>
<pdfrwt beam="1">  1       -2 0.13864873E-01 0.91830063E+02</pdfrwt>
<totfact> 0.80830622E+04</totfact>
</mgrwt>
</event>
<event>
 7    1  0.3337990E-009  0.9136649E+02  0.7818608E-02  0.1299576E+00
          2   -1    0    0  501    0  0.00000000000E+00  0.00000000000E+00  0.82009695827E+03  0.82009695828E+03  0.25500000000E-02 0. -1.
         -2   -1    0    0    0  501 -0.00000000000E+00 -0.00000000000E+00 -0.25447702185E+01  0.25447714962E+01  0.25500000000E-02 0.  1.
         23    2    1    2    0    0  0.00000000000E+00  0.00000000000E+00  0.81755218805E+03  0.82264172977E+03  0.91366489325E+02 0.  0.
    9000005    2    3    3    0    0 -0.16070289847E+02 -0.89076258323E+01  0.78498452732E+03  0.78524851462E+03  0.87704941763E+01 0.  0.
         22    1    3    3    0    0  0.16070289847E+02  0.89076258323E+01  0.32567660734E+02  0.37393215152E+02  0.00000000000E+00 0.  1.
         22    1    4    4    0    0 -0.45021558209E+01 -0.71639395930E+01  0.38486480452E+03  0.38495780184E+03  0.00000000000E+00 0. -1.
         22    1    4    4    0    0 -0.11568134026E+02 -0.17436862394E+01  0.40011972280E+03  0.40029071278E+03  0.00000000000E+00 0. -1.
<mgrwt>
<rscale>  0 0.91366489E+02</rscale>
<asrwt>0</asrwt>
<pdfrwt beam="1">  1        2 0.12616885E+00 0.91366489E+02</pdfrwt>
<pdfrwt beam="2">  1       -2 0.39150294E-03 0.91366489E+02</pdfrwt>
<totfact> 0.24343036E+05</totfact>
</mgrwt>
</event>
<event>
 7    1  0.3337990E-009  0.7868018E+02  0.7818608E-02  0.1332839E+00
          2   -1    0    0  501    0  0.00000000000E+00  0.00000000000E+00  0.15748505725E+02  0.15748505931E+02  0.25500000000E-02 0. -1.
         -2   -1    0    0    0  501 -0.00000000000E+00 -0.00000000000E+00 -0.98272339899E+02  0.98272339932E+02  0.25500000000E-02 0.  1.
         23    2    1    2    0    0  0.00000000000E+00  0.00000000000E+00 -0.82523834174E+02  0.11402084586E+03  0.78680175932E+02 0.  0.
    9000005    2    3    3    0    0  0.13946121613E+02  0.95674995810E+01  0.85626928288E+01  0.21377514977E+02  0.98816538010E+01 0.  0.
         22    1    3    3    0    0 -0.13946121613E+02 -0.95674995810E+01 -0.91086527003E+02  0.92643330886E+02  0.00000000000E+00 0.  1.
         22    1    4    4    0    0  0.26059254833E+01  0.27375083300E+01  0.71200116929E+01  0.80609779797E+01  0.00000000000E+00 0.  1.
         22    1    4    4    0    0  0.11340196130E+02  0.68299912510E+01  0.14426811359E+01  0.13316536997E+02  0.00000000000E+00 0.  1.
<mgrwt>
<rscale>  0 0.78680176E+02</rscale>
<asrwt>0</asrwt>
<pdfrwt beam="1">  1        2 0.24228471E-02 0.78680176E+02</pdfrwt>
<pdfrwt beam="2">  1       -2 0.15118821E-01 0.78680176E+02</pdfrwt>
<totfact> 0.11574545E+05</totfact>
</mgrwt>
</event>
<event>
 7    1  0.3337990E-009  0.9111871E+02  0.7818608E-02  0.1300165E+00
          2   -1    0    0  501    0  0.00000000000E+00  0.00000000000E+00  0.22525642606E+03  0.22525642607E+03  0.25500000000E-02 0. -1.
         -2   -1    0    0    0  501 -0.00000000000E+00 -0.00000000000E+00 -0.92146316503E+01  0.92146320031E+01  0.25500000000E-02 0.  1.
         23    2    1    2    0    0 -0.35527136788E-14  0.00000000000E+00  0.21604179441E+03  0.23447105808E+03  0.91118714567E+02 0.  0.
    9000005    2    3    3    0    0 -0.24368229891E+02 -0.15649027683E+02  0.19850143420E+03  0.20061301720E+03  0.20150925298E+01 0.  0.
         22    1    3    3    0    0  0.24368229891E+02  0.15649027683E+02  0.17540360213E+02  0.33858040874E+02  0.00000000000E+00 0.  1.
         22    1    4    4    0    0 -0.20069952433E+01 -0.14709105288E+01  0.21193235702E+02  0.21338810820E+02  0.00000000000E+00 0. -1.
         22    1    4    4    0    0 -0.22361234648E+02 -0.14178117154E+02  0.17730819849E+03  0.17927420638E+03  0.00000000000E+00 0. -1.
<mgrwt>
<rscale>  0 0.91118715E+02</rscale>
<asrwt>0</asrwt>
<pdfrwt beam="1">  1        2 0.34654833E-01 0.91118715E+02</pdfrwt>
<pdfrwt beam="2">  1       -2 0.14176358E-02 0.91118715E+02</pdfrwt>
<totfact> 0.16180965E+05</totfact>
</mgrwt>
</event>
<event>
 7    1  0.3337990E-009  0.9062520E+02  0.7818608E-02  0.1301345E+00
          2   -1    0    0  501    0  0.00000000000E+00  0.00000000000E+00  0.61653260173E+02  0.61653260225E+02  0.25500000000E-02 0. -1.
         -2   -1    0    0    0  501 -0.00000000000E+00 -0.00000000000E+00 -0.33302887278E+02  0.33302887376E+02  0.25500000000E-02 0.  1.
         23    2    1    2    0    0  0.00000000000E+00 -0.35527136788E-14  0.28350372894E+02  0.94956147601E+02  0.90625196960E+02 0.  0.
    9000005    2    3    3    0    0  0.33211142896E+02 -0.28703051484E+02  0.25541079957E+01  0.44041587212E+02  0.25085373371E+01 0.  0.
         22    1    3    3    0    0 -0.33211142896E+02  0.28703051484E+02  0.25796264899E+02  0.50914560389E+02  0.00000000000E+00 0.  1.
         22    1    4    4    0    0  0.26410533277E+02 -0.21991296842E+02  0.28188483705E+01  0.34483029317E+02  0.00000000000E+00 0.  1.
         22    1    4    4    0    0  0.68006096189E+01 -0.67117546415E+01 -0.26474037478E+00  0.95585578944E+01  0.00000000000E+00 0.  1.
<mgrwt>
<rscale>  0 0.90625197E+02</rscale>
<asrwt>0</asrwt>
<pdfrwt beam="1">  1        2 0.94851170E-02 0.90625197E+02</pdfrwt>
<pdfrwt beam="2">  1       -2 0.51235211E-02 0.90625197E+02</pdfrwt>
<totfact> 0.10868771E+05</totfact>
</mgrwt>
</event>
<event>
 7    1  0.3337990E-009  0.9104355E+02  0.7818608E-02  0.1300344E+00
          2   -1    0    0  501    0  0.00000000000E+00  0.00000000000E+00  0.25870400762E+03  0.25870400764E+03  0.25500000000E-02 0. -1.
         -2   -1    0    0    0  501 -0.00000000000E+00 -0.00000000000E+00 -0.80100501890E+01  0.80100505949E+01  0.25500000000E-02 0.  1.
         23    2    1    2    0    0  0.00000000000E+00 -0.35527136788E-14  0.25069395744E+03  0.26671405823E+03  0.91043553115E+02 0.  0.
    9000005    2    3    3    0    0 -0.34631430992E+02  0.20593543637E+02  0.71941615762E+02  0.83476972177E+02  0.13014559284E+02 0.  0.
         22    1    3    3    0    0  0.34631430992E+02 -0.20593543637E+02  0.17875234167E+03  0.18323708605E+03  0.00000000000E+00 0.  1.
         22    1    4    4    0    0 -0.21518549149E+01  0.27039495031E+01  0.12950379181E+01  0.36903855760E+01  0.00000000000E+00 0. -1.
         22    1    4    4    0    0 -0.32479576077E+02  0.17889594134E+02  0.70646577844E+02  0.79786586601E+02  0.00000000000E+00 0. -1.
<mgrwt>
<rscale>  0 0.91043553E+02</rscale>
<asrwt>0</asrwt>
<pdfrwt beam="1">  1        2 0.39800614E-01 0.91043553E+02</pdfrwt>
<pdfrwt beam="2">  1       -2 0.12323155E-02 0.91043553E+02</pdfrwt>
<totfact> 0.17067225E+05</totfact>
</mgrwt>
</event>
<event>
 7    1  0.3337990E-009  0.9160343E+02  0.7818608E-02  0.1299015E+00
         -2   -1    0    0    0  501 -0.00000000000E+00  0.00000000000E+00  0.37470735553E+01  0.37470744230E+01  0.25500000000E-02 0.  1.
          2   -1    0    0  501    0  0.00000000000E+00 -0.00000000000E+00 -0.55984940463E+03  0.55984940464E+03  0.25500000000E-02 0. -1.
         23    2    1    2    0    0  0.00000000000E+00 -0.71054273576E-14 -0.55610233108E+03  0.56359647906E+03  0.91603431053E+02 0.  0.
    9000005    2    3    3    0    0 -0.93205168271E+01 -0.43039552095E+02 -0.34486280900E+03  0.34781554672E+03  0.10296719101E+02 0.  0.
         22    1    3    3    0    0  0.93205168271E+01  0.43039552095E+02 -0.21123952207E+03  0.21578093235E+03  0.00000000000E+00 0. -1.
         22    1    4    4    0    0 -0.88595610999E+00 -0.10688939347E+02 -0.55418922455E+02  0.56447279019E+02  0.00000000000E+00 0. -1.
         22    1    4    4    0    0 -0.84345607171E+01 -0.32350612748E+02 -0.28944388655E+03  0.29136826770E+03  0.00000000000E+00 0. -1.
<mgrwt>
<rscale>  0 0.91603431E+02</rscale>
<asrwt>0</asrwt>
<pdfrwt beam="2">  1        2 0.86130611E-01 0.91603431E+02</pdfrwt>
<pdfrwt beam="1">  1       -2 0.57647337E-03 0.91603431E+02</pdfrwt>
<totfact> 0.22053671E+05</totfact>
</mgrwt>
</event>
<event>
 7    1  0.3337990E-009  0.9089560E+02  0.7818608E-02  0.1300697E+00
          2   -1    0    0  501    0  0.00000000000E+00  0.00000000000E+00  0.13257510293E+03  0.13257510295E+03  0.25500000000E-02 0. -1.
         -2   -1    0    0    0  501 -0.00000000000E+00 -0.00000000000E+00 -0.15579866221E+02  0.15579866429E+02  0.25500000000E-02 0.  1.
         23    2    1    2    0    0  0.00000000000E+00  0.00000000000E+00  0.11699523671E+03  0.14815496938E+03  0.90895596924E+02 0.  0.
    9000005    2    3    3    0    0  0.14290778377E+02  0.32009733610E+02  0.13788593358E+02  0.39157443612E+02  0.10692553063E+02 0.  0.
         22    1    3    3    0    0 -0.14290778377E+02 -0.32009733610E+02  0.10320664335E+03  0.10899752577E+03  0.00000000000E+00 0. -1.
         22    1    4    4    0    0  0.38815027112E+01  0.13434200340E+02  0.36964735130E+00  0.13988582532E+02  0.00000000000E+00 0. -1.
         22    1    4    4    0    0  0.10409275666E+02  0.18575533270E+02  0.13418946007E+02  0.25168861080E+02  0.00000000000E+00 0. -1.
<mgrwt>
<rscale>  0 0.90895597E+02</rscale>
<asrwt>0</asrwt>
<pdfrwt beam="1">  1        2 0.20396170E-01 0.90895597E+02</pdfrwt>
<pdfrwt beam="2">  1       -2 0.23969025E-02 0.90895597E+02</pdfrwt>
<totfact> 0.13527713E+05</totfact>
</mgrwt>
</event>
<event>
 7    1  0.3337990E-009  0.9211811E+02  0.7818608E-02  0.1297802E+00
         -2   -1    0    0    0  501 -0.00000000000E+00  0.00000000000E+00  0.27797955851E+01  0.27797967547E+01  0.25500000000E-02 0.  1.
          2   -1    0    0  501    0  0.00000000000E+00 -0.00000000000E+00 -0.76316260411E+03  0.76316260412E+03  0.25500000000E-02 0. -1.
         23    2    1    2    0    0  0.00000000000E+00  0.35527136788E-14 -0.76038280853E+03  0.76594240087E+03  0.92118108691E+02 0.  0.
    9000005    2    3    3    0    0  0.15913398274E+02 -0.30911849805E+02 -0.63012947814E+03  0.63112879333E+03  0.71844163530E+01 0.  0.
         22    1    3    3    0    0 -0.15913398274E+02  0.30911849805E+02 -0.13025333039E+03  0.13481360755E+03  0.00000000000E+00 0.  1.
         22    1    4    4    0    0  0.15662364600E+02 -0.28769488970E+02 -0.55310881791E+03  0.55407793460E+03  0.00000000000E+00 0.  1.
         22    1    4    4    0    0  0.25103367388E+00 -0.21423608352E+01 -0.77020660233E+02  0.77050858727E+02  0.00000000000E+00 0.  1.
<mgrwt>
<rscale>  0 0.92118109E+02</rscale>
<asrwt>0</asrwt>
<pdfrwt beam="2">  1        2 0.11740946E+00 0.92118109E+02</pdfrwt>
<pdfrwt beam="1">  1       -2 0.42766156E-03 0.92118109E+02</pdfrwt>
<totfact> 0.23514563E+05</totfact>
</mgrwt>
</event>
<event>
 7    1  0.3337990E-009  0.9353346E+02  0.7818608E-02  0.1294514E+00
          2   -1    0    0  501    0  0.00000000000E+00  0.00000000000E+00  0.11702831783E+03  0.11702831786E+03  0.25500000000E-02 0. -1.
         -2   -1    0    0    0  501 -0.00000000000E+00 -0.00000000000E+00 -0.18688869952E+02  0.18688870126E+02  0.25500000000E-02 0.  1.
         23    2    1    2    0    0  0.71054273576E-14  0.00000000000E+00  0.98339447879E+02  0.13571718798E+03  0.93533459817E+02 0.  0.
    9000005    2    3    3    0    0  0.42225550575E+02 -0.17887657373E+02  0.40593854427E+02  0.61977653332E+02  0.95080538333E+01 0.  0.
         22    1    3    3    0    0 -0.42225550575E+02  0.17887657373E+02  0.57745593452E+02  0.73739534653E+02  0.00000000000E+00 0.  1.
         22    1    4    4    0    0  0.26144538320E+02 -0.64920165546E+01  0.26140084843E+02  0.37536478238E+02  0.00000000000E+00 0. -1.
         22    1    4    4    0    0  0.16081012255E+02 -0.11395640819E+02  0.14453769584E+02  0.24441175095E+02  0.00000000000E+00 0. -1.
<mgrwt>
<rscale>  0 0.93533460E+02</rscale>
<asrwt>0</asrwt>
<pdfrwt beam="1">  1        2 0.18004356E-01 0.93533460E+02</pdfrwt>
<pdfrwt beam="2">  1       -2 0.28752109E-02 0.93533460E+02</pdfrwt>
<totfact> 0.12011809E+05</totfact>
</mgrwt>
</event>
<event>
 7    1  0.3337990E-009  0.9033446E+02  0.7818608E-02  0.1302044E+00
          2   -1    0    0  501    0  0.00000000000E+00  0.00000000000E+00  0.35443831538E+02  0.35443831630E+02  0.25500000000E-02 0. -1.
         -2   -1    0    0    0  501 -0.00000000000E+00 -0.00000000000E+00 -0.57558070261E+02  0.57558070317E+02  0.25500000000E-02 0.  1.
         23    2    1    2    0    0  0.44408920985E-15  0.00000000000E+00 -0.22114238723E+02  0.93001901947E+02  0.90334457498E+02 0.  0.
    9000005    2    3    3    0    0  0.24277471346E+01  0.42983475802E+02 -0.24004662767E+02  0.49908435490E+02  0.78201630606E+01 0.  0.
         22    1    3    3    0    0 -0.24277471346E+01 -0.42983475802E+02  0.18904240443E+01  0.43093466457E+02  0.00000000000E+00 0. -1.
         22    1    4    4    0    0  0.48893033207E+01  0.36389580242E+02 -0.19990173406E+02  0.41805667917E+02  0.00000000000E+00 0. -1.
         22    1    4    4    0    0 -0.24615561860E+01  0.65938955602E+01 -0.40144893610E+01  0.81027675732E+01  0.00000000000E+00 0. -1.
<mgrwt>
<rscale>  0 0.90334457E+02</rscale>
<asrwt>0</asrwt>
<pdfrwt beam="1">  1        2 0.54528972E-02 0.90334457E+02</pdfrwt>
<pdfrwt beam="2">  1       -2 0.88550877E-02 0.90334457E+02</pdfrwt>
<totfact> 0.94980907E+04</totfact>
</mgrwt>
</event>
<event>
 7    1  0.3337990E-009  0.9591679E+02  0.7818608E-02  0.1289124E+00
         -2   -1    0    0    0  501 -0.00000000000E+00  0.00000000000E+00  0.45896991228E+02  0.45896991299E+02  0.25500000000E-02 0.  1.
          2   -1    0    0  501    0  0.00000000000E+00 -0.00000000000E+00 -0.50112385003E+02  0.50112385067E+02  0.25500000000E-02 0. -1.
         23    2    1    2    0    0  0.00000000000E+00  0.17763568394E-14 -0.42153937748E+01  0.96009376366E+02  0.95916791051E+02 0.  0.
    9000005    2    3    3    0    0  0.25698261086E+02  0.14692553871E+02  0.34383269977E+02  0.47366508384E+02  0.13605333516E+02 0.  0.
         22    1    3    3    0    0 -0.25698261086E+02 -0.14692553871E+02 -0.38598663752E+02  0.48642867982E+02  0.00000000000E+00 0. -1.
         22    1    4    4    0    0 -0.28901153659E+00  0.25319218801E+01  0.79719805141E+01  0.83693864406E+01  0.00000000000E+00 0.  1.
         22    1    4    4    0    0  0.25987272623E+02  0.12160631991E+02  0.26411289463E+02  0.38997121943E+02  0.00000000000E+00 0.  1.
<mgrwt>
<rscale>  0 0.95916791E+02</rscale>
<asrwt>0</asrwt>
<pdfrwt beam="2">  1        2 0.77095977E-02 0.95916791E+02</pdfrwt>
<pdfrwt beam="1">  1       -2 0.70610756E-02 0.95916791E+02</pdfrwt>
<totfact> 0.87452002E+04</totfact>
</mgrwt>
</event>
<event>
 7    1  0.3337990E-009  0.9134753E+02  0.7818608E-02  0.1299621E+00
         -2   -1    0    0    0  501 -0.00000000000E+00  0.00000000000E+00  0.51911125445E+02  0.51911125507E+02  0.25500000000E-02 0.  1.
          2   -1    0    0  501    0  0.00000000000E+00 -0.00000000000E+00 -0.40185852732E+02  0.40185852813E+02  0.25500000000E-02 0. -1.
         23    2    1    2    0    0  0.00000000000E+00  0.00000000000E+00  0.11725272712E+02  0.92096978321E+02  0.91347530868E+02 0.  0.
    9000005    2    3    3    0    0 -0.20438223508E+02  0.21364310879E+02  0.40548164692E+02  0.50806375739E+02  0.79359559183E+01 0.  0.
         22    1    3    3    0    0  0.20438223508E+02 -0.21364310879E+02 -0.28822891980E+02  0.41290602582E+02  0.00000000000E+00 0. -1.
         22    1    4    4    0    0 -0.39314522305E+01  0.93625737781E+01  0.14853603247E+02  0.17992877308E+02  0.00000000000E+00 0. -1.
         22    1    4    4    0    0 -0.16506771277E+02  0.12001737101E+02  0.25694561445E+02  0.32813498431E+02  0.00000000000E+00 0. -1.
<mgrwt>
<rscale>  0 0.91347531E+02</rscale>
<asrwt>0</asrwt>
<pdfrwt beam="2">  1        2 0.61824389E-02 0.91347531E+02</pdfrwt>
<pdfrwt beam="1">  1       -2 0.79863270E-02 0.91347531E+02</pdfrwt>
<totfact> 0.94986504E+04</totfact>
</mgrwt>
</event>
<event>
 7    1  0.3337990E-009  0.9427441E+02  0.7818608E-02  0.1292819E+00
         -2   -1    0    0    0  501 -0.00000000000E+00  0.00000000000E+00  0.66178366220E+01  0.66178371133E+01  0.25500000000E-02 0.  1.
          2   -1    0    0  501    0  0.00000000000E+00 -0.00000000000E+00 -0.33574659050E+03  0.33574659051E+03  0.25500000000E-02 0. -1.
         23    2    1    2    0    0  0.17763568394E-14  0.00000000000E+00 -0.32912875388E+03  0.34236442763E+03  0.94274411546E+02 0.  0.
    9000005    2    3    3    0    0  0.11115339095E+02  0.32743102622E+02 -0.27861556312E+03  0.28114969106E+03  0.14928336671E+02 0.  0.
         22    1    3    3    0    0 -0.11115339095E+02 -0.32743102622E+02 -0.50513190763E+02  0.61214736571E+02  0.00000000000E+00 0. -1.
         22    1    4    4    0    0  0.74860904265E+00 -0.82975307029E+00 -0.18406185380E+01  0.21533188939E+01  0.00000000000E+00 0. -1.
         22    1    4    4    0    0  0.10366730053E+02  0.33572855692E+02 -0.27677494458E+03  0.27899637216E+03  0.00000000000E+00 0. -1.
<mgrwt>
<rscale>  0 0.94274412E+02</rscale>
<asrwt>0</asrwt>
<pdfrwt beam="2">  1        2 0.51653308E-01 0.94274412E+02</pdfrwt>
<pdfrwt beam="1">  1       -2 0.10181290E-02 0.94274412E+02</pdfrwt>
<totfact> 0.17133580E+05</totfact>
</mgrwt>
</event>
<event>
 7    1  0.5749797E-009  0.9118210E+02  0.7818608E-02  0.1300014E+00
         -2   -1    0    0    0  501 -0.00000000000E+00  0.00000000000E+00  0.10761067872E+01  0.10761098085E+01  0.25500000000E-02 0.  1.
          2   -1    0    0  501    0  0.00000000000E+00 -0.00000000000E+00 -0.19315378390E+04  0.19315378390E+04  0.25500000000E-02 0. -1.
         23    2    1    2    0    0  0.00000000000E+00  0.00000000000E+00 -0.19304617322E+04  0.19326139488E+04  0.91182101302E+02 0.  0.
    9000005    2    3    3    0    0  0.21740811956E+02  0.61704411495E+01 -0.18015600737E+04  0.18017461727E+04  0.12642569143E+02 0.  0.
         22    1    3    3    0    0 -0.21740811956E+02 -0.61704411495E+01 -0.12890165854E+03  0.13086777610E+03  0.00000000000E+00 0.  1.
         22    1    4    4    0    0  0.71056475096E+01 -0.14463602967E+01 -0.27039783149E+03  0.27049504517E+03  0.00000000000E+00 0. -1.
         22    1    4    4    0    0  0.14635164447E+02  0.76168014462E+01 -0.15311622422E+04  0.15312511276E+04  0.00000000000E+00 0. -1.
<mgrwt>
<rscale>  0 0.91182101E+02</rscale>
<asrwt>0</asrwt>
<pdfrwt beam="2">  1        2 0.29715689E+00 0.91182101E+02</pdfrwt>
<pdfrwt beam="1">  1       -2 0.16555667E-03 0.91182101E+02</pdfrwt>
<totfact> 0.20297546E+05</totfact>
</mgrwt>
</event>
<event>
 7    1  0.3337990E-009  0.9097363E+02  0.7818608E-02  0.1300511E+00
         -2   -1    0    0    0  501 -0.00000000000E+00  0.00000000000E+00  0.85371502123E+03  0.85371502123E+03  0.25500000000E-02 0.  1.
          2   -1    0    0  501    0  0.00000000000E+00 -0.00000000000E+00 -0.24235836570E+01  0.24235849985E+01  0.25500000000E-02 0. -1.
         23    2    1    2    0    0  0.00000000000E+00 -0.17763568394E-14  0.85129143757E+03  0.85613860623E+03  0.90973630225E+02 0.  0.
    9000005    2    3    3    0    0 -0.34947156256E+02 -0.11164638180E+02  0.67413852705E+03  0.67522673105E+03  0.11064890050E+02 0.  0.
         22    1    3    3    0    0  0.34947156256E+02  0.11164638180E+02  0.17715291052E+03  0.18091187518E+03  0.00000000000E+00 0. -1.
         22    1    4    4    0    0 -0.15607821708E+02  0.62333824994E+00  0.29235682336E+03  0.29277381170E+03  0.00000000000E+00 0.  1.
         22    1    4    4    0    0 -0.19339334548E+02 -0.11787976430E+02  0.38178170369E+03  0.38245291936E+03  0.00000000000E+00 0.  1.
<mgrwt>
<rscale>  0 0.90973630E+02</rscale>
<asrwt>0</asrwt>
<pdfrwt beam="2">  1        2 0.37285866E-03 0.90973630E+02</pdfrwt>
<pdfrwt beam="1">  1       -2 0.13134094E+00 0.90973630E+02</pdfrwt>
<totfact> 0.22414191E+04</totfact>
</mgrwt>
</event>
<event>
 7    1  0.3337990E-009  0.9320162E+02  0.7818608E-02  0.1295279E+00
          2   -1    0    0  501    0  0.00000000000E+00  0.00000000000E+00  0.26587578563E+02  0.26587578685E+02  0.25500000000E-02 0. -1.
         -2   -1    0    0    0  501 -0.00000000000E+00 -0.00000000000E+00 -0.81678574816E+02  0.81678574856E+02  0.25500000000E-02 0.  1.
         23    2    1    2    0    0  0.00000000000E+00  0.00000000000E+00 -0.55090996253E+02  0.10826615354E+03  0.93201620879E+02 0.  0.
    9000005    2    3    3    0    0 -0.24470955367E+01 -0.33817634592E+02  0.76618488094E+01  0.36939158305E+02  0.12497071783E+02 0.  0.
         22    1    3    3    0    0  0.24470955367E+01  0.33817634592E+02 -0.62752845062E+02  0.71326995236E+02  0.00000000000E+00 0.  1.
         22    1    4    4    0    0 -0.22005607227E+01 -0.20236998604E+02  0.10734304299E+02  0.23013123838E+02  0.00000000000E+00 0. -1.
         22    1    4    4    0    0 -0.24653481406E+00 -0.13580635988E+02 -0.30724554895E+01  0.13926034467E+02  0.00000000000E+00 0. -1.
<mgrwt>
<rscale>  0 0.93201621E+02</rscale>
<asrwt>0</asrwt>
<pdfrwt beam="1">  1        2 0.40903967E-02 0.93201621E+02</pdfrwt>
<pdfrwt beam="2">  1       -2 0.12565935E-01 0.93201621E+02</pdfrwt>
<totfact> 0.80138951E+04</totfact>
</mgrwt>
</event>
<event>
 7    1  0.3337990E-009  0.9054705E+02  0.7818608E-02  0.1301532E+00
         -2   -1    0    0    0  501 -0.00000000000E+00  0.00000000000E+00  0.77850132142E+03  0.77850132142E+03  0.25500000000E-02 0.  1.
          2   -1    0    0  501    0  0.00000000000E+00 -0.00000000000E+00 -0.26328686099E+01  0.26328698448E+01  0.25500000000E-02 0. -1.
         23    2    1    2    0    0  0.00000000000E+00  0.00000000000E+00  0.77586845281E+03  0.78113419127E+03  0.90547052428E+02 0.  0.
    9000005    2    3    3    0    0 -0.13057612981E+02 -0.26046505349E+02  0.68397428604E+03  0.68473160010E+03  0.13697390787E+02 0.  0.
         22    1    3    3    0    0  0.13057612981E+02  0.26046505349E+02  0.91894166768E+02  0.96402591166E+02  0.00000000000E+00 0. -1.
         22    1    4    4    0    0  0.29135222327E+00 -0.11945099698E+01  0.43054263963E+01  0.44775480611E+01  0.00000000000E+00 0. -1.
         22    1    4    4    0    0 -0.13348965204E+02 -0.24851995379E+02  0.67966885964E+03  0.68025405204E+03  0.00000000000E+00 0. -1.
<mgrwt>
<rscale>  0 0.90547052E+02</rscale>
<asrwt>0</asrwt>
<pdfrwt beam="2">  1        2 0.40505642E-03 0.90547052E+02</pdfrwt>
<pdfrwt beam="1">  1       -2 0.11976955E+00 0.90547052E+02</pdfrwt>
<totfact> 0.24959798E+04</totfact>
</mgrwt>
</event>
<event>
 7    1  0.3337990E-009  0.9276613E+02  0.7818608E-02  0.1296288E+00
          2   -1    0    0  501    0  0.00000000000E+00  0.00000000000E+00  0.56142550638E+03  0.56142550639E+03  0.25500000000E-02 0. -1.
         -2   -1    0    0    0  501 -0.00000000000E+00 -0.00000000000E+00 -0.38320105326E+01  0.38320113810E+01  0.25500000000E-02 0.  1.
         23    2    1    2    0    0  0.00000000000E+00 -0.44408920985E-15  0.55759349585E+03  0.56525751777E+03  0.92766129490E+02 0.  0.
    9000005    2    3    3    0    0  0.42403738392E+02  0.38641856151E+01  0.38825875757E+03  0.39065149683E+03  0.71218105227E+01 0.  0.
         22    1    3    3    0    0 -0.42403738392E+02 -0.38641856151E+01  0.16933473828E+03  0.17460602094E+03  0.00000000000E+00 0. -1.
         22    1    4    4    0    0  0.25484218670E+02 -0.10596822705E+01  0.23814531939E+03  0.23950733073E+03  0.00000000000E+00 0.  1.
         22    1    4    4    0    0  0.16919519723E+02  0.49238678856E+01  0.15011343818E+03  0.15114416610E+03  0.00000000000E+00 0.  1.
<mgrwt>
<rscale>  0 0.92766129E+02</rscale>
<asrwt>0</asrwt>
<pdfrwt beam="1">  1        2 0.86373148E-01 0.92766129E+02</pdfrwt>
<pdfrwt beam="2">  1       -2 0.58954019E-03 0.92766129E+02</pdfrwt>
<totfact> 0.21347627E+05</totfact>
</mgrwt>
</event>
<event>
 7    1  0.3337990E-009  0.9110020E+02  0.7818608E-02  0.1300209E+00
          2   -1    0    0  501    0  0.00000000000E+00  0.00000000000E+00  0.20358003597E+02  0.20358003757E+02  0.25500000000E-02 0. -1.
         -2   -1    0    0    0  501 -0.00000000000E+00 -0.00000000000E+00 -0.10191626693E+03  0.10191626696E+03  0.25500000000E-02 0.  1.
         23    2    1    2    0    0  0.00000000000E+00  0.35527136788E-14 -0.81558263331E+02  0.12227427072E+03  0.91100202864E+02 0.  0.
    9000005    2    3    3    0    0  0.91281638647E+01  0.27607013573E+02  0.39689134733E+01  0.31939512478E+02  0.12605935475E+02 0.  0.
         22    1    3    3    0    0 -0.91281638647E+01 -0.27607013573E+02 -0.85527176804E+02  0.90334758239E+02  0.00000000000E+00 0.  1.
         22    1    4    4    0    0  0.99873823694E+01  0.25458049125E+02  0.22289459276E-02  0.27347030493E+02  0.00000000000E+00 0.  1.
         22    1    4    4    0    0 -0.85921850477E+00  0.21489644488E+01  0.39666845274E+01  0.45924819848E+01  0.00000000000E+00 0.  1.
<mgrwt>
<rscale>  0 0.91100203E+02</rscale>
<asrwt>0</asrwt>
<pdfrwt beam="1">  1        2 0.31320006E-02 0.91100203E+02</pdfrwt>
<pdfrwt beam="2">  1       -2 0.15679425E-01 0.91100203E+02</pdfrwt>
<totfact> 0.79520402E+04</totfact>
</mgrwt>
</event>
<event>
 7    1  0.3337990E-009  0.9120245E+02  0.7818608E-02  0.1299966E+00
          2   -1    0    0  501    0  0.00000000000E+00  0.00000000000E+00  0.86696536707E+03  0.86696536708E+03  0.25500000000E-02 0. -1.
         -2   -1    0    0    0  501 -0.00000000000E+00 -0.00000000000E+00 -0.23985629112E+01  0.23985642667E+01  0.25500000000E-02 0.  1.
         23    2    1    2    0    0  0.00000000000E+00  0.88817841970E-15  0.86456680416E+03  0.86936393134E+03  0.91202446581E+02 0.  0.
    9000005    2    3    3    0    0 -0.15103355331E+02 -0.60812487439E+01  0.83824135450E+03  0.83841038181E+03  0.42786695310E+01 0.  0.
         22    1    3    3    0    0  0.15103355331E+02  0.60812487439E+01  0.26325449667E+02  0.30953549534E+02  0.00000000000E+00 0.  1.
         22    1    4    4    0    0 -0.64153424553E+01 -0.11476033988E+01  0.25395218462E+03  0.25403579607E+03  0.00000000000E+00 0. -1.
         22    1    4    4    0    0 -0.86880128762E+01 -0.49336453451E+01  0.58428916988E+03  0.58437458574E+03  0.00000000000E+00 0. -1.
<mgrwt>
<rscale>  0 0.91202447E+02</rscale>
<asrwt>0</asrwt>
<pdfrwt beam="1">  1        2 0.13337955E+00 0.91202447E+02</pdfrwt>
<pdfrwt beam="2">  1       -2 0.36900905E-03 0.91202447E+02</pdfrwt>
<totfact> 0.24661872E+05</totfact>
</mgrwt>
</event>
<event>
 7    1  0.3337990E-009  0.9264128E+02  0.7818608E-02  0.1296579E+00
          2   -1    0    0  501    0  0.00000000000E+00  0.00000000000E+00  0.10140185951E+03  0.10140185955E+03  0.25500000000E-02 0. -1.
         -2   -1    0    0    0  501 -0.00000000000E+00 -0.00000000000E+00 -0.21159393915E+02  0.21159394069E+02  0.25500000000E-02 0.  1.
         23    2    1    2    0    0 -0.17763568394E-14  0.00000000000E+00  0.80242465599E+02  0.12256125362E+03  0.92641284547E+02 0.  0.
    9000005    2    3    3    0    0 -0.85691800974E+01 -0.26393467247E+02 -0.75197157359E+01  0.30516446953E+02  0.10230417834E+02 0.  0.
         22    1    3    3    0    0  0.85691800974E+01  0.26393467247E+02  0.87762181335E+02  0.92044806663E+02  0.00000000000E+00 0. -1.
         22    1    4    4    0    0 -0.85938084063E+01 -0.21099392987E+02 -0.20028131736E+01  0.22870268646E+02  0.00000000000E+00 0. -1.
         22    1    4    4    0    0  0.24628308934E-01 -0.52940742595E+01 -0.55169025623E+01  0.76461783068E+01  0.00000000000E+00 0. -1.
<mgrwt>
<rscale>  0 0.92641285E+02</rscale>
<asrwt>0</asrwt>
<pdfrwt beam="1">  1        2 0.15600286E-01 0.92641285E+02</pdfrwt>
<pdfrwt beam="2">  1       -2 0.32552914E-02 0.92641285E+02</pdfrwt>
<totfact> 0.11790307E+05</totfact>
</mgrwt>
</event>
<event>
 7    1  0.3337990E-009  0.9008738E+02  0.7818608E-02  0.1302640E+00
          2   -1    0    0  501    0  0.00000000000E+00  0.00000000000E+00  0.65925062254E+02  0.65925062303E+02  0.25500000000E-02 0. -1.
         -2   -1    0    0    0  501 -0.00000000000E+00 -0.00000000000E+00 -0.30776367034E+02  0.30776367139E+02  0.25500000000E-02 0.  1.
         23    2    1    2    0    0  0.00000000000E+00  0.00000000000E+00  0.35148695220E+02  0.96701429443E+02  0.90087378031E+02 0.  0.
    9000005    2    3    3    0    0  0.31664592094E+02  0.11499836040E+02 -0.14290696022E+02  0.36875464947E+02  0.45478897136E+01 0.  0.
         22    1    3    3    0    0 -0.31664592094E+02 -0.11499836040E+02  0.49439391243E+02  0.59825964496E+02  0.00000000000E+00 0. -1.
         22    1    4    4    0    0  0.12555080333E+02  0.22273141141E+01 -0.51542135699E+01  0.13753431857E+02  0.00000000000E+00 0. -1.
         22    1    4    4    0    0  0.19109511761E+02  0.92725219254E+01 -0.91364824522E+01  0.23122033090E+02  0.00000000000E+00 0. -1.
<mgrwt>
<rscale>  0 0.90087378E+02</rscale>
<asrwt>0</asrwt>
<pdfrwt beam="1">  1        2 0.10142317E-01 0.90087378E+02</pdfrwt>
<pdfrwt beam="2">  1       -2 0.47348258E-02 0.90087378E+02</pdfrwt>
<totfact> 0.11253531E+05</totfact>
</mgrwt>
</event>
<event>
 7    1  0.3337990E-009  0.8966354E+02  0.7818608E-02  0.1303669E+00
          2   -1    0    0  501    0  0.00000000000E+00  0.00000000000E+00  0.88863401649E+02  0.88863401685E+02  0.25500000000E-02 0. -1.
         -2   -1    0    0    0  501 -0.00000000000E+00 -0.00000000000E+00 -0.22617718817E+02  0.22617718961E+02  0.25500000000E-02 0.  1.
         23    2    1    2    0    0 -0.17763568394E-14  0.00000000000E+00  0.66245682832E+02  0.11148112065E+03  0.89663536438E+02 0.  0.
    9000005    2    3    3    0    0  0.10021014397E+02 -0.23035139302E+02  0.78390736872E+02  0.83578778274E+02  0.14466035328E+02 0.  0.
         22    1    3    3    0    0 -0.10021014397E+02  0.23035139302E+02 -0.12145054041E+02  0.27902342372E+02  0.00000000000E+00 0.  1.
         22    1    4    4    0    0  0.31879411047E+01 -0.15948431839E+01  0.23287293294E+01  0.42578719518E+01  0.00000000000E+00 0.  1.
         22    1    4    4    0    0  0.68330732922E+01 -0.21440296118E+02  0.76062007543E+02  0.79320906322E+02  0.00000000000E+00 0.  1.
<mgrwt>
<rscale>  0 0.89663536E+02</rscale>
<asrwt>0</asrwt>
<pdfrwt beam="1">  1        2 0.13671293E-01 0.89663536E+02</pdfrwt>
<pdfrwt beam="2">  1       -2 0.34796491E-02 0.89663536E+02</pdfrwt>
<totfact> 0.12401298E+05</totfact>
</mgrwt>
</event>
<event>
 7    1  0.3337990E-009  0.6651552E+02  0.7818608E-02  0.1372360E+00
          2   -1    0    0  501    0  0.00000000000E+00  0.00000000000E+00  0.72183281602E+02  0.72183281647E+02  0.25500000000E-02 0. -1.
         -2   -1    0    0    0  501 -0.00000000000E+00 -0.00000000000E+00 -0.15323194411E+02  0.15323194624E+02  0.25500000000E-02 0.  1.
         23    2    1    2    0    0 -0.35527136788E-14  0.00000000000E+00  0.56860087191E+02  0.87506476271E+02  0.66515516039E+02 0.  0.
    9000005    2    3    3    0    0 -0.28436515371E+02 -0.80622121968E+01  0.89366435621E+01  0.31201137970E+02  0.44735601624E+01 0.  0.
         22    1    3    3    0    0  0.28436515371E+02  0.80622121968E+01  0.47923443628E+02  0.56305338301E+02  0.00000000000E+00 0. -1.
         22    1    4    4    0    0 -0.17470219726E+02 -0.26686721986E+01  0.53370960286E+01  0.18461175006E+02  0.00000000000E+00 0.  1.
         22    1    4    4    0    0 -0.10966295645E+02 -0.53935399983E+01  0.35995475336E+01  0.12739962964E+02  0.00000000000E+00 0.  1.
<mgrwt>
<rscale>  0 0.66515516E+02</rscale>
<asrwt>0</asrwt>
<pdfrwt beam="1">  1        2 0.11105120E-01 0.66515516E+02</pdfrwt>
<pdfrwt beam="2">  1       -2 0.23574146E-02 0.66515516E+02</pdfrwt>
<totfact> 0.26327028E+05</totfact>
</mgrwt>
</event>
<event>
 7    1  0.3337990E-009  0.9500115E+02  0.7818608E-02  0.1291173E+00
          2   -1    0    0  501    0  0.00000000000E+00  0.00000000000E+00  0.32944402314E+01  0.32944412183E+01  0.25500000000E-02 0. -1.
         -2   -1    0    0    0  501 -0.00000000000E+00 -0.00000000000E+00 -0.68488251737E+03  0.68488251737E+03  0.25500000000E-02 0.  1.
         23    2    1    2    0    0  0.35527136788E-14  0.71054273576E-14 -0.68158807714E+03  0.68817695859E+03  0.95001154945E+02 0.  0.
    9000005    2    3    3    0    0 -0.23902402862E+02 -0.32001344000E+02 -0.52399699879E+03  0.52560279442E+03  0.94885132859E+01 0.  0.
         22    1    3    3    0    0  0.23902402862E+02  0.32001344000E+02 -0.15759107835E+03  0.16257416417E+03  0.00000000000E+00 0. -1.
         22    1    4    4    0    0 -0.16208644024E+02 -0.15077596693E+02 -0.31740525479E+03  0.31817628735E+03  0.00000000000E+00 0.  1.
         22    1    4    4    0    0 -0.76937588382E+01 -0.16923747307E+02 -0.20659174400E+03  0.20742650707E+03  0.00000000000E+00 0.  1.
<mgrwt>
<rscale>  0 0.95001155E+02</rscale>
<asrwt>0</asrwt>
<pdfrwt beam="1">  1        2 0.50683758E-03 0.95001155E+02</pdfrwt>
<pdfrwt beam="2">  1       -2 0.10536643E+00 0.95001155E+02</pdfrwt>
<totfact> 0.24936849E+04</totfact>
</mgrwt>
</event>
<event>
 7    1  0.3337990E-009  0.9082186E+02  0.7818608E-02  0.1300874E+00
         -2   -1    0    0    0  501 -0.00000000000E+00  0.00000000000E+00  0.55584779120E+02  0.55584779178E+02  0.25500000000E-02 0. -1.
          2   -1    0    0  501    0  0.00000000000E+00 -0.00000000000E+00 -0.37099231727E+02  0.37099231814E+02  0.25500000000E-02 0.  1.
         23    2    1    2    0    0  0.35527136788E-14 -0.35527136788E-14  0.18485547393E+02  0.92684010992E+02  0.90821860976E+02 0.  0.
    9000005    2    3    3    0    0 -0.20167016540E+02  0.23033475785E+02  0.42274586196E+02  0.53913301300E+02  0.13500142820E+02 0.  0.
         22    1    3    3    0    0  0.20167016540E+02 -0.23033475785E+02 -0.23789038803E+02  0.38770709692E+02  0.00000000000E+00 0.  1.
         22    1    4    4    0    0 -0.15283320981E+02  0.17019001686E+02  0.39572898316E+02  0.45708211513E+02  0.00000000000E+00 0.  1.
         22    1    4    4    0    0 -0.48836955599E+01  0.60144740994E+01  0.27016878795E+01  0.82050897870E+01  0.00000000000E+00 0.  1.
<mgrwt>
<rscale>  0 0.90821861E+02</rscale>
<asrwt>0</asrwt>
<pdfrwt beam="2">  1        2 0.57075741E-02 0.90821861E+02</pdfrwt>
<pdfrwt beam="1">  1       -2 0.85515045E-02 0.90821861E+02</pdfrwt>
<totfact> 0.94614080E+04</totfact>
</mgrwt>
</event>
<event>
 7    1  0.3337990E-009  0.9045884E+02  0.7818608E-02  0.1301744E+00
          2   -1    0    0  501    0  0.00000000000E+00  0.00000000000E+00  0.29221128007E+03  0.29221128008E+03  0.25500000000E-02 0. -1.
         -2   -1    0    0    0  501 -0.00000000000E+00 -0.00000000000E+00 -0.70007580663E+01  0.70007585307E+01  0.25500000000E-02 0.  1.
         23    2    1    2    0    0  0.00000000000E+00  0.00000000000E+00  0.28521052201E+03  0.29921203861E+03  0.90458842512E+02 0.  0.
    9000005    2    3    3    0    0  0.46276672456E+01 -0.13097779503E+02  0.28480435908E+03  0.28531484104E+03  0.99029507628E+01 0.  0.
         22    1    3    3    0    0 -0.46276672456E+01  0.13097779503E+02  0.40616292314E+00  0.13897197573E+02  0.00000000000E+00 0.  1.
         22    1    4    4    0    0  0.55146421539E+01 -0.41402218648E+01  0.17738967779E+03  0.17752366181E+03  0.00000000000E+00 0. -1.
         22    1    4    4    0    0 -0.88697490837E+00 -0.89575576386E+01  0.10741468129E+03  0.10779117923E+03  0.00000000000E+00 0. -1.
<mgrwt>
<rscale>  0 0.90458843E+02</rscale>
<asrwt>0</asrwt>
<pdfrwt beam="1">  1        2 0.44955570E-01 0.90458843E+02</pdfrwt>
<pdfrwt beam="2">  1       -2 0.10770400E-02 0.90458843E+02</pdfrwt>
<totfact> 0.18169917E+05</totfact>
</mgrwt>
</event>
<event>
 7    1  0.3337990E-009  0.9640628E+02  0.7818608E-02  0.1288040E+00
          2   -1    0    0  501    0  0.00000000000E+00  0.00000000000E+00  0.13528141110E+03  0.13528141112E+03  0.25500000000E-02 0. -1.
         -2   -1    0    0    0  501 -0.00000000000E+00 -0.00000000000E+00 -0.17175624955E+02  0.17175625145E+02  0.25500000000E-02 0.  1.
         23    2    1    2    0    0 -0.35527136788E-14 -0.17763568394E-14  0.11810578614E+03  0.15245703627E+03  0.96406281884E+02 0.  0.
    9000005    2    3    3    0    0  0.30440576639E+02  0.10198582148E+02  0.11473987088E+03  0.12017748903E+03  0.15708313650E+02 0.  0.
         22    1    3    3    0    0 -0.30440576639E+02 -0.10198582148E+02  0.33659152652E+01  0.32279547232E+02  0.00000000000E+00 0.  1.
         22    1    4    4    0    0  0.86265870244E+01  0.56135563875E+01  0.63073583662E+02  0.63907800580E+02  0.00000000000E+00 0.  1.
         22    1    4    4    0    0  0.21813989614E+02  0.45850257605E+01  0.51666287214E+02  0.56269688453E+02  0.00000000000E+00 0.  1.
<mgrwt>
<rscale>  0 0.96406282E+02</rscale>
<asrwt>0</asrwt>
<pdfrwt beam="1">  1        2 0.20812525E-01 0.96406282E+02</pdfrwt>
<pdfrwt beam="2">  1       -2 0.26424039E-02 0.96406282E+02</pdfrwt>
<totfact> 0.11593732E+05</totfact>
</mgrwt>
</event>
<event>
 7    1  0.3337990E-009  0.9243095E+02  0.7818608E-02  0.1297069E+00
          2   -1    0    0  501    0  0.00000000000E+00  0.00000000000E+00  0.66795244477E+02  0.66795244526E+02  0.25500000000E-02 0. -1.
         -2   -1    0    0    0  501 -0.00000000000E+00 -0.00000000000E+00 -0.31976383127E+02  0.31976383229E+02  0.25500000000E-02 0.  1.
         23    2    1    2    0    0  0.00000000000E+00  0.00000000000E+00  0.34818861350E+02  0.98771627754E+02  0.92430954466E+02 0.  0.
    9000005    2    3    3    0    0 -0.44802225777E+02  0.93776647466E+01  0.16495720925E+02  0.49467292188E+02  0.89288384970E+01 0.  0.
         22    1    3    3    0    0  0.44802225777E+02 -0.93776647466E+01  0.18323140425E+02  0.49304335567E+02  0.00000000000E+00 0. -1.
         22    1    4    4    0    0 -0.21058078545E+02  0.12392005986E+00  0.59061471409E+01  0.21870999114E+02  0.00000000000E+00 0.  1.
         22    1    4    4    0    0 -0.23744147231E+02  0.92537446867E+01  0.10589573784E+02  0.27596293074E+02  0.00000000000E+00 0.  1.
<mgrwt>
<rscale>  0 0.92430954E+02</rscale>
<asrwt>0</asrwt>
<pdfrwt beam="1">  1        2 0.10276191E-01 0.92430954E+02</pdfrwt>
<pdfrwt beam="2">  1       -2 0.49194436E-02 0.92430954E+02</pdfrwt>
<totfact> 0.10508714E+05</totfact>
</mgrwt>
</event>
<event>
 7    1  0.3337990E-009  0.9232123E+02  0.7818608E-02  0.1297326E+00
          2   -1    0    0  501    0  0.00000000000E+00  0.00000000000E+00  0.30760875387E+02  0.30760875492E+02  0.25500000000E-02 0. -1.
         -2   -1    0    0    0  501 -0.00000000000E+00 -0.00000000000E+00 -0.69269881581E+02  0.69269881628E+02  0.25500000000E-02 0.  1.
         23    2    1    2    0    0  0.33306690739E-15 -0.71054273576E-14 -0.38509006194E+02  0.10003075712E+03  0.92321226226E+02 0.  0.
    9000005    2    3    3    0    0  0.62031543913E+00 -0.45510275537E+02 -0.19655711277E+02  0.50765995881E+02  0.10921052203E+02 0.  0.
         22    1    3    3    0    0 -0.62031543913E+00  0.45510275537E+02 -0.18853294917E+02  0.49264761239E+02  0.00000000000E+00 0.  1.
         22    1    4    4    0    0  0.21548579717E+01 -0.23660977206E+02 -0.46338319339E+01  0.24206562201E+02  0.00000000000E+00 0.  1.
         22    1    4    4    0    0 -0.15345425326E+01 -0.21849298332E+02 -0.15021879344E+02  0.26559433680E+02  0.00000000000E+00 0.  1.
<mgrwt>
<rscale>  0 0.92321226E+02</rscale>
<asrwt>0</asrwt>
<pdfrwt beam="1">  1        2 0.47324424E-02 0.92321226E+02</pdfrwt>
<pdfrwt beam="2">  1       -2 0.10656905E-01 0.92321226E+02</pdfrwt>
<totfact> 0.85821272E+04</totfact>
</mgrwt>
</event>
<event>
 7    1  0.3337990E-009  0.8502680E+02  0.7818608E-02  0.1315362E+00
         -2   -1    0    0    0  501 -0.00000000000E+00  0.00000000000E+00  0.28742340659E+01  0.28742351970E+01  0.25500000000E-02 0. -1.
          2   -1    0    0  501    0  0.00000000000E+00 -0.00000000000E+00 -0.62882445958E+03  0.62882445959E+03  0.25500000000E-02 0.  1.
         23    2    1    2    0    0 -0.11102230246E-15  0.00000000000E+00 -0.62595022552E+03  0.63169869479E+03  0.85026796767E+02 0.  0.
    9000005    2    3    3    0    0 -0.59466738398E+00  0.26470319810E+02 -0.55838376837E+03  0.55912970973E+03  0.11513820694E+02 0.  0.
         22    1    3    3    0    0  0.59466738398E+00 -0.26470319810E+02 -0.67566457151E+02  0.72568985056E+02  0.00000000000E+00 0. -1.
         22    1    4    4    0    0  0.16190619048E+01  0.82647754596E-01 -0.77850651240E+02  0.77867529115E+02  0.00000000000E+00 0.  1.
         22    1    4    4    0    0 -0.22137292887E+01  0.26387672055E+02 -0.48053311713E+03  0.48126218062E+03  0.00000000000E+00 0.  1.
<mgrwt>
<rscale>  0 0.85026797E+02</rscale>
<asrwt>0</asrwt>
<pdfrwt beam="2">  1        2 0.96742115E-01 0.85026797E+02</pdfrwt>
<pdfrwt beam="1">  1       -2 0.44219044E-03 0.85026797E+02</pdfrwt>
<totfact> 0.27736593E+05</totfact>
</mgrwt>
</event>
<event>
 7    1  0.3337990E-009  0.9329738E+02  0.7818608E-02  0.1295058E+00
          2   -1    0    0  501    0  0.00000000000E+00  0.00000000000E+00  0.20100027203E+03  0.20100027205E+03  0.25500000000E-02 0. -1.
         -2   -1    0    0    0  501 -0.00000000000E+00 -0.00000000000E+00 -0.10826354080E+02  0.10826354380E+02  0.25500000000E-02 0.  1.
         23    2    1    2    0    0  0.00000000000E+00  0.00000000000E+00  0.19017391795E+03  0.21182662643E+03  0.93297377212E+02 0.  0.
    9000005    2    3    3    0    0 -0.35822786107E+02  0.83674070765E+01  0.33045287266E+02  0.50449143218E+02  0.99919735456E+01 0.  0.
         22    1    3    3    0    0  0.35822786107E+02 -0.83674070765E+01  0.15712863069E+03  0.16137748321E+03  0.00000000000E+00 0. -1.
         22    1    4    4    0    0 -0.29519313520E+02  0.36593259013E+01  0.22521416469E+02  0.37309445674E+02  0.00000000000E+00 0.  1.
         22    1    4    4    0    0 -0.63034725873E+01  0.47080811753E+01  0.10523870797E+02  0.13139697544E+02  0.00000000000E+00 0.  1.
<mgrwt>
<rscale>  0 0.93297377E+02</rscale>
<asrwt>0</asrwt>
<pdfrwt beam="1">  1        2 0.30923117E-01 0.93297377E+02</pdfrwt>
<pdfrwt beam="2">  1       -2 0.16655930E-02 0.93297377E+02</pdfrwt>
<totfact> 0.14563988E+05</totfact>
</mgrwt>
</event>
<event>
 7    1  0.3337990E-009  0.8831722E+02  0.7818608E-02  0.1306979E+00
         -2   -1    0    0    0  501 -0.00000000000E+00  0.00000000000E+00  0.37033955879E+02  0.37033955967E+02  0.25500000000E-02 0.  1.
          2   -1    0    0  501    0  0.00000000000E+00 -0.00000000000E+00 -0.52653915935E+02  0.52653915997E+02  0.25500000000E-02 0. -1.
         23    2    1    2    0    0 -0.71054273576E-14  0.00000000000E+00 -0.15619960056E+02  0.89687871964E+02  0.88317219302E+02 0.  0.
    9000005    2    3    3    0    0  0.34568056826E+02 -0.21456846902E+02 -0.22222244937E+02  0.48469708524E+02  0.14147001190E+02 0.  0.
         22    1    3    3    0    0 -0.34568056826E+02  0.21456846902E+02  0.66022848814E+01  0.41218163440E+02  0.00000000000E+00 0.  1.
         22    1    4    4    0    0  0.32737444663E+02 -0.20479413062E+02 -0.24225520165E+02  0.45585331738E+02  0.00000000000E+00 0. -1.
         22    1    4    4    0    0  0.18306121628E+01 -0.97743384050E+00  0.20032752281E+01  0.28843767859E+01  0.00000000000E+00 0. -1.
<mgrwt>
<rscale>  0 0.88317219E+02</rscale>
<asrwt>0</asrwt>
<pdfrwt beam="2">  1        2 0.81006025E-02 0.88317219E+02</pdfrwt>
<pdfrwt beam="1">  1       -2 0.56975317E-02 0.88317219E+02</pdfrwt>
<totfact> 0.11213116E+05</totfact>
</mgrwt>
</event>
<event>
 7    1  0.3337990E-009  0.9223004E+02  0.7818608E-02  0.1297539E+00
         -2   -1    0    0    0  501 -0.00000000000E+00  0.00000000000E+00  0.30739413283E+02  0.30739413389E+02  0.25500000000E-02 0.  1.
          2   -1    0    0  501    0  0.00000000000E+00 -0.00000000000E+00 -0.69181380804E+02  0.69181380851E+02  0.25500000000E-02 0. -1.
         23    2    1    2    0    0  0.17763568394E-14  0.00000000000E+00 -0.38441967520E+02  0.99920794240E+02  0.92230039871E+02 0.  0.
    9000005    2    3    3    0    0 -0.14643393146E+02  0.26541427203E+02  0.17820203465E+02  0.36012201666E+02  0.77744901158E+01 0.  0.
         22    1    3    3    0    0  0.14643393146E+02 -0.26541427203E+02 -0.56262170985E+02  0.63908592573E+02  0.00000000000E+00 0. -1.
         22    1    4    4    0    0 -0.84388462907E+01  0.21277860374E+02  0.11003360289E+02  0.25397547253E+02  0.00000000000E+00 0.  1.
         22    1    4    4    0    0 -0.62045468552E+01  0.52635668286E+01  0.68168431752E+01  0.10614654413E+02  0.00000000000E+00 0.  1.
<mgrwt>
<rscale>  0 0.92230040E+02</rscale>
<asrwt>0</asrwt>
<pdfrwt beam="2">  1        2 0.10643289E-01 0.92230040E+02</pdfrwt>
<pdfrwt beam="1">  1       -2 0.47291405E-02 0.92230040E+02</pdfrwt>
<totfact> 0.10676495E+05</totfact>
</mgrwt>
</event>
<event>
 7    1  0.3337990E-009  0.9607515E+02  0.7818608E-02  0.1288773E+00
          2   -1    0    0  501    0  0.00000000000E+00  0.00000000000E+00  0.44240230296E+03  0.44240230297E+03  0.25500000000E-02 0. -1.
         -2   -1    0    0    0  501 -0.00000000000E+00 -0.00000000000E+00 -0.52160859029E+01  0.52160865262E+01  0.25500000000E-02 0.  1.
         23    2    1    2    0    0  0.00000000000E+00  0.88817841970E-15  0.43718621706E+03  0.44761838950E+03  0.96075148858E+02 0.  0.
    9000005    2    3    3    0    0  0.99115781175E+01  0.62428097953E+01  0.43539793892E+03  0.43576891720E+03  0.13637152626E+02 0.  0.
         22    1    3    3    0    0 -0.99115781175E+01 -0.62428097953E+01  0.17882781426E+01  0.11849472293E+02  0.00000000000E+00 0.  1.
         22    1    4    4    0    0  0.10757873803E+02  0.93114944776E+01  0.39003690363E+03  0.39029632585E+03  0.00000000000E+00 0. -1.
         22    1    4    4    0    0 -0.84629568591E+00 -0.30686846823E+01  0.45361035290E+02  0.45472591357E+02  0.00000000000E+00 0. -1.
<mgrwt>
<rscale>  0 0.96075149E+02</rscale>
<asrwt>0</asrwt>
<pdfrwt beam="1">  1        2 0.68061907E-01 0.96075149E+02</pdfrwt>
<pdfrwt beam="2">  1       -2 0.80247463E-03 0.96075149E+02</pdfrwt>
<totfact> 0.17995555E+05</totfact>
</mgrwt>
</event>
<event>
 7    1  0.3337990E-009  0.8971676E+02  0.7818608E-02  0.1303539E+00
          2   -1    0    0  501    0  0.00000000000E+00  0.00000000000E+00  0.65263372511E+01  0.65263377492E+01  0.25500000000E-02 0. -1.
         -2   -1    0    0    0  501 -0.00000000000E+00 -0.00000000000E+00 -0.30833133206E+03  0.30833133207E+03  0.25500000000E-02 0.  1.
         23    2    1    2    0    0  0.00000000000E+00 -0.55511151231E-16 -0.30180499480E+03  0.31485766982E+03  0.89716761826E+02 0.  0.
    9000005    2    3    3    0    0 -0.38464665225E+02  0.23260178349E+00 -0.22656581013E+03  0.23035607525E+03  0.15883025775E+02 0.  0.
         22    1    3    3    0    0  0.38464665225E+02 -0.23260178349E+00 -0.75239184672E+02  0.84501594568E+02  0.00000000000E+00 0. -1.
         22    1    4    4    0    0 -0.36408607241E+01 -0.31628472091E+01 -0.57832740763E+02  0.58033484933E+02  0.00000000000E+00 0. -1.
         22    1    4    4    0    0 -0.34823804501E+02  0.33954489926E+01 -0.16873306937E+03  0.17232259031E+03  0.00000000000E+00 0. -1.
<mgrwt>
<rscale>  0 0.89716762E+02</rscale>
<asrwt>0</asrwt>
<pdfrwt beam="1">  1        2 0.10040522E-02 0.89716762E+02</pdfrwt>
<pdfrwt beam="2">  1       -2 0.47435578E-01 0.89716762E+02</pdfrwt>
<totfact> 0.52345070E+04</totfact>
</mgrwt>
</event>
<event>
 7    1  0.3337990E-009  0.6688679E+02  0.7818608E-02  0.1371011E+00
         -2   -1    0    0    0  501 -0.00000000000E+00  0.00000000000E+00  0.22735352222E+02  0.22735352365E+02  0.25500000000E-02 0.  1.
          2   -1    0    0  501    0  0.00000000000E+00 -0.00000000000E+00 -0.49194784685E+02  0.49194784752E+02  0.25500000000E-02 0. -1.
         23    2    1    2    0    0  0.00000000000E+00  0.00000000000E+00 -0.26459432464E+02  0.71930137116E+02  0.66886792861E+02 0.  0.
    9000005    2    3    3    0    0 -0.26301093055E+02 -0.86863560314E+01  0.55120080193E+01  0.29629152689E+02  0.89612599391E+01 0.  0.
         22    1    3    3    0    0  0.26301093055E+02  0.86863560314E+01 -0.31971440483E+02  0.42300984427E+02  0.00000000000E+00 0. -1.
         22    1    4    4    0    0 -0.10219556552E+02 -0.55018194129E+01  0.63197216972E+01  0.13215454411E+02  0.00000000000E+00 0.  1.
         22    1    4    4    0    0 -0.16081536503E+02 -0.31845366185E+01 -0.80771367794E+00  0.16413698278E+02  0.00000000000E+00 0.  1.
<mgrwt>
<rscale>  0 0.66886793E+02</rscale>
<asrwt>0</asrwt>
<pdfrwt beam="2">  1        2 0.75684284E-02 0.66886793E+02</pdfrwt>
<pdfrwt beam="1">  1       -2 0.34977465E-02 0.66886793E+02</pdfrwt>
<totfact> 0.23759106E+05</totfact>
</mgrwt>
</event>
<event>
 7    1  0.3337990E-009  0.9070335E+02  0.7818608E-02  0.1301157E+00
         -2   -1    0    0    0  501 -0.00000000000E+00  0.00000000000E+00  0.18981293778E+03  0.18981293780E+03  0.25500000000E-02 0.  1.
          2   -1    0    0  501    0  0.00000000000E+00 -0.00000000000E+00 -0.10835796976E+02  0.10835797276E+02  0.25500000000E-02 0. -1.
         23    2    1    2    0    0  0.00000000000E+00  0.71054273576E-14  0.17897714081E+03  0.20064873508E+03  0.90703351405E+02 0.  0.
    9000005    2    3    3    0    0  0.12349734960E+01 -0.41456620671E+02  0.12748707227E+03  0.13453214325E+03  0.11214607175E+02 0.  0.
         22    1    3    3    0    0 -0.12349734960E+01  0.41456620671E+02  0.51490068540E+02  0.66116591830E+02  0.00000000000E+00 0.  1.
         22    1    4    4    0    0  0.32404690168E+01 -0.39911752427E+02  0.11448392864E+03  0.12128486525E+03  0.00000000000E+00 0.  1.
         22    1    4    4    0    0 -0.20054955208E+01 -0.15448682433E+01  0.13003143629E+02  0.13247278000E+02  0.00000000000E+00 0.  1.
<mgrwt>
<rscale>  0 0.90703351E+02</rscale>
<asrwt>0</asrwt>
<pdfrwt beam="2">  1        2 0.16670458E-02 0.90703351E+02</pdfrwt>
<pdfrwt beam="1">  1       -2 0.29201989E-01 0.90703351E+02</pdfrwt>
<totfact> 0.64574186E+04</totfact>
</mgrwt>
</event>
<event>
 7    1  0.3337990E-009  0.9197927E+02  0.7818608E-02  0.1298128E+00
          2   -1    0    0  501    0  0.00000000000E+00  0.00000000000E+00  0.16726060452E+03  0.16726060454E+03  0.25500000000E-02 0. -1.
         -2   -1    0    0    0  501 -0.00000000000E+00 -0.00000000000E+00 -0.12645217522E+02  0.12645217779E+02  0.25500000000E-02 0.  1.
         23    2    1    2    0    0  0.35527136788E-14  0.00000000000E+00  0.15461538700E+03  0.17990582232E+03  0.91979274879E+02 0.  0.
    9000005    2    3    3    0    0  0.27851232395E+02  0.20087877483E+02  0.20352544269E+02  0.41321101279E+02  0.10676768473E+02 0.  0.
         22    1    3    3    0    0 -0.27851232395E+02 -0.20087877483E+02  0.13426284273E+03  0.13858472104E+03  0.00000000000E+00 0. -1.
         22    1    4    4    0    0  0.19791063080E+01 -0.95529088199E+00  0.30245886478E+01  0.37386600455E+01  0.00000000000E+00 0. -1.
         22    1    4    4    0    0  0.25872126087E+02  0.21043168365E+02  0.17327955621E+02  0.37582441234E+02  0.00000000000E+00 0. -1.
<mgrwt>
<rscale>  0 0.91979275E+02</rscale>
<asrwt>0</asrwt>
<pdfrwt beam="1">  1        2 0.25732400E-01 0.91979275E+02</pdfrwt>
<pdfrwt beam="2">  1       -2 0.19454182E-02 0.91979275E+02</pdfrwt>
<totfact> 0.14174823E+05</totfact>
</mgrwt>
</event>
<event>
 7    1  0.3337990E-009  0.9121599E+02  0.7818608E-02  0.1299933E+00
         -2   -1    0    0    0  501 -0.00000000000E+00  0.00000000000E+00  0.27004403056E+01  0.27004415095E+01  0.25500000000E-02 0.  1.
          2   -1    0    0  501    0  0.00000000000E+00 -0.00000000000E+00 -0.77027766873E+03  0.77027766874E+03  0.25500000000E-02 0. -1.
         23    2    1    2    0    0  0.00000000000E+00  0.88817841970E-15 -0.76757722843E+03  0.77297811025E+03  0.91215992678E+02 0.  0.
    9000005    2    3    3    0    0 -0.38812177245E+02 -0.48205087868E+01 -0.57927980532E+03  0.58066185520E+03  0.85717455519E+01 0.  0.
         22    1    3    3    0    0  0.38812177245E+02  0.48205087868E+01 -0.18829742311E+03  0.19231625505E+03  0.00000000000E+00 0.  1.
         22    1    4    4    0    0 -0.25712993317E+02 -0.65357025732E+01 -0.41857048742E+03  0.41941045095E+03  0.00000000000E+00 0.  1.
         22    1    4    4    0    0 -0.13099183927E+02  0.17151937864E+01 -0.16070931790E+03  0.16125140424E+03  0.00000000000E+00 0.  1.
<mgrwt>
<rscale>  0 0.91215993E+02</rscale>
<asrwt>0</asrwt>
<pdfrwt beam="2">  1        2 0.11850408E+00 0.91215993E+02</pdfrwt>
<pdfrwt beam="1">  1       -2 0.41545306E-03 0.91215993E+02</pdfrwt>
<totfact> 0.24176846E+05</totfact>
</mgrwt>
</event>
<event>
 7    1  0.7646401E-009  0.8966501E+02  0.7818608E-02  0.1303665E+00
          2   -1    0    0  501    0  0.00000000000E+00  0.00000000000E+00  0.34676387869E+03  0.34676387870E+03  0.25500000000E-02 0.  1.
         -2   -1    0    0    0  501 -0.00000000000E+00 -0.00000000000E+00 -0.57963165855E+01  0.57963171465E+01  0.25500000000E-02 0. -1.
         23    2    1    2    0    0  0.35527136788E-14  0.44408920985E-15  0.34096756210E+03  0.35256019584E+03  0.89665005924E+02 0.  0.
    9000005    2    3    3    0    0  0.18725094812E+02  0.16640250594E+01  0.32979825065E+03  0.33069351632E+03  0.15424572881E+02 0.  0.
         22    1    3    3    0    0 -0.18725094812E+02 -0.16640250594E+01  0.11169311453E+02  0.21866679525E+02  0.00000000000E+00 0. -1.
         22    1    4    4    0    0  0.17963089929E+02  0.29699234322E+01  0.32705337440E+03  0.32755976974E+03  0.00000000000E+00 0. -1.
         22    1    4    4    0    0  0.76200488351E+00 -0.13058983728E+01  0.27448762522E+01  0.31337465824E+01  0.00000000000E+00 0. -1.
<mgrwt>
<rscale>  0 0.89665006E+02</rscale>
<asrwt>0</asrwt>
<pdfrwt beam="1">  1        2 0.53348310E-01 0.89665006E+02</pdfrwt>
<pdfrwt beam="2">  1       -2 0.89174071E-03 0.89665006E+02</pdfrwt>
<totfact> 0.19816258E+05</totfact>
</mgrwt>
</event>
<event>
 7    1  0.3337990E-009  0.9149161E+02  0.7818608E-02  0.1299279E+00
         -2   -1    0    0    0  501 -0.00000000000E+00  0.00000000000E+00  0.15142735087E+03  0.15142735089E+03  0.25500000000E-02 0.  1.
          2   -1    0    0  501    0  0.00000000000E+00 -0.00000000000E+00 -0.13819687440E+02  0.13819687675E+02  0.25500000000E-02 0. -1.
         23    2    1    2    0    0  0.00000000000E+00  0.00000000000E+00  0.13760766343E+03  0.16524703856E+03  0.91491610107E+02 0.  0.
    9000005    2    3    3    0    0  0.41577225841E+02  0.33953656585E+01  0.41218292504E+02  0.60217970951E+02  0.13677067371E+02 0.  0.
         22    1    3    3    0    0 -0.41577225841E+02 -0.33953656585E+01  0.96389370922E+02  0.10502906761E+03  0.00000000000E+00 0.  1.
         22    1    4    4    0    0  0.31782654195E+02 -0.89507778393E+00  0.36839742481E+02  0.48663178051E+02  0.00000000000E+00 0. -1.
         22    1    4    4    0    0  0.97945716460E+01  0.42904434425E+01  0.43785500234E+01  0.11554792900E+02  0.00000000000E+00 0. -1.
<mgrwt>
<rscale>  0 0.91491610E+02</rscale>
<asrwt>0</asrwt>
<pdfrwt beam="2">  1        2 0.21261057E-02 0.91491610E+02</pdfrwt>
<pdfrwt beam="1">  1       -2 0.23296516E-01 0.91491610E+02</pdfrwt>
<totfact> 0.69009948E+04</totfact>
</mgrwt>
</event>
<event>
 7    1  0.3337990E-009  0.1049155E+03  0.7818608E-02  0.1270286E+00
          2   -1    0    0  501    0  0.00000000000E+00  0.00000000000E+00  0.21900551751E+02  0.21900551900E+02  0.25500000000E-02 0. -1.
         -2   -1    0    0    0  501 -0.00000000000E+00 -0.00000000000E+00 -0.12565045665E+03  0.12565045668E+03  0.25500000000E-02 0.  1.
         23    2    1    2    0    0  0.00000000000E+00  0.00000000000E+00 -0.10374990490E+03  0.14755100858E+03  0.10491547724E+03 0.  0.
    9000005    2    3    3    0    0 -0.44962556466E+02  0.68669380893E+01 -0.86631428219E+02  0.98952360791E+02  0.14757338108E+02 0.  0.
         22    1    3    3    0    0  0.44962556466E+02 -0.68669380893E+01 -0.17118476679E+02  0.48598647785E+02  0.00000000000E+00 0. -1.
         22    1    4    4    0    0 -0.31680298159E+02 -0.19256291418E+01 -0.61293073043E+02  0.69023113101E+02  0.00000000000E+00 0.  1.
         22    1    4    4    0    0 -0.13282258307E+02  0.87925672311E+01 -0.25338355176E+02  0.29929247690E+02  0.00000000000E+00 0.  1.
<mgrwt>
<rscale>  0 0.10491548E+03</rscale>
<asrwt>0</asrwt>
<pdfrwt beam="1">  1        2 0.33693157E-02 0.10491548E+03</pdfrwt>
<pdfrwt beam="2">  1       -2 0.19330839E-01 0.10491548E+03</pdfrwt>
<totfact> 0.52201815E+04</totfact>
</mgrwt>
</event>
<event>
 7    1  0.3337990E-009  0.9201312E+02  0.7818608E-02  0.1298049E+00
         -2   -1    0    0    0  501 -0.00000000000E+00  0.00000000000E+00  0.23588472013E+03  0.23588472014E+03  0.25500000000E-02 0.  1.
          2   -1    0    0  501    0  0.00000000000E+00 -0.00000000000E+00 -0.89730415206E+01  0.89730418829E+01  0.25500000000E-02 0. -1.
         23    2    1    2    0    0  0.00000000000E+00  0.71054273576E-14  0.22691167861E+03  0.24485776203E+03  0.92013117192E+02 0.  0.
    9000005    2    3    3    0    0 -0.25380577379E+02  0.32765438071E+02  0.63671204494E+02  0.76438048128E+02  0.84264630719E+01 0.  0.
         22    1    3    3    0    0  0.25380577379E+02 -0.32765438071E+02  0.16324047412E+03  0.16841971390E+03  0.00000000000E+00 0.  1.
         22    1    4    4    0    0 -0.13149012540E+02  0.21994207159E+02  0.43717850488E+02  0.50674373510E+02  0.00000000000E+00 0. -1.
         22    1    4    4    0    0 -0.12231564838E+02  0.10771230912E+02  0.19953354006E+02  0.25763674618E+02  0.00000000000E+00 0. -1.
<mgrwt>
<rscale>  0 0.92013117E+02</rscale>
<asrwt>0</asrwt>
<pdfrwt beam="2">  1        2 0.13804680E-02 0.92013117E+02</pdfrwt>
<pdfrwt beam="1">  1       -2 0.36289957E-01 0.92013117E+02</pdfrwt>
<totfact> 0.56460827E+04</totfact>
</mgrwt>
</event>
<event>
 7    1  0.3337990E-009  0.9149112E+02  0.7818608E-02  0.1299280E+00
          2   -1    0    0  501    0  0.00000000000E+00  0.00000000000E+00  0.20904782505E+03  0.20904782507E+03  0.25500000000E-02 0. -1.
         -2   -1    0    0    0  501 -0.00000000000E+00 -0.00000000000E+00 -0.10010418118E+02  0.10010418443E+02  0.25500000000E-02 0.  1.
         23    2    1    2    0    0  0.00000000000E+00  0.00000000000E+00  0.19903740693E+03  0.21905824351E+03  0.91491118098E+02 0.  0.
    9000005    2    3    3    0    0  0.31143943521E+02 -0.30200120777E+02  0.12609634285E+03  0.13419133982E+03  0.15001182901E+02 0.  0.
         22    1    3    3    0    0 -0.31143943521E+02  0.30200120777E+02  0.72941064082E+02  0.84866903693E+02  0.00000000000E+00 0.  1.
         22    1    4    4    0    0  0.25262847927E+02 -0.24827316586E+02  0.11624901556E+03  0.12152547367E+03  0.00000000000E+00 0. -1.
         22    1    4    4    0    0  0.58810955943E+01 -0.53728041906E+01  0.98473272952E+01  0.12665866142E+02  0.00000000000E+00 0. -1.
<mgrwt>
<rscale>  0 0.91491118E+02</rscale>
<asrwt>0</asrwt>
<pdfrwt beam="1">  1        2 0.32161205E-01 0.91491118E+02</pdfrwt>
<pdfrwt beam="2">  1       -2 0.15400643E-02 0.91491118E+02</pdfrwt>
<totfact> 0.15573318E+05</totfact>
</mgrwt>
</event>
<event>
 7    1  0.3337990E-009  0.9130099E+02  0.7818608E-02  0.1299731E+00
          2   -1    0    0  501    0  0.00000000000E+00  0.00000000000E+00  0.17597918685E+02  0.17597918870E+02  0.25500000000E-02 0. -1.
         -2   -1    0    0    0  501 -0.00000000000E+00 -0.00000000000E+00 -0.11842126830E+03  0.11842126833E+03  0.25500000000E-02 0.  1.
         23    2    1    2    0    0  0.00000000000E+00  0.00000000000E+00 -0.10082334962E+03  0.13601918720E+03  0.91300993743E+02 0.  0.
    9000005    2    3    3    0    0 -0.27089454061E+02 -0.17035237360E+02 -0.98255710260E+02  0.10391575117E+03  0.10966353466E+02 0.  0.
         22    1    3    3    0    0  0.27089454061E+02  0.17035237360E+02 -0.25676393553E+01  0.32103436033E+02  0.00000000000E+00 0. -1.
         22    1    4    4    0    0 -0.14292355028E+01 -0.50532877572E+01 -0.20546762772E+02  0.21207260353E+02  0.00000000000E+00 0. -1.
         22    1    4    4    0    0 -0.25660218558E+02 -0.11981949603E+02 -0.77708947488E+02  0.82708490812E+02  0.00000000000E+00 0. -1.
<mgrwt>
<rscale>  0 0.91300994E+02</rscale>
<asrwt>0</asrwt>
<pdfrwt beam="1">  1        2 0.27073722E-02 0.91300994E+02</pdfrwt>
<pdfrwt beam="2">  1       -2 0.18218656E-01 0.91300994E+02</pdfrwt>
<totfact> 0.75481031E+04</totfact>
</mgrwt>
</event>
<event>
 7    1  0.3337990E-009  0.9167602E+02  0.7818608E-02  0.1298843E+00
          2   -1    0    0  501    0  0.00000000000E+00  0.00000000000E+00  0.22286668614E+02  0.22286668760E+02  0.25500000000E-02 0. -1.
         -2   -1    0    0    0  501 -0.00000000000E+00 -0.00000000000E+00 -0.94277136729E+02  0.94277136764E+02  0.25500000000E-02 0.  1.
         23    2    1    2    0    0  0.00000000000E+00  0.35527136788E-14 -0.71990468115E+02  0.11656380552E+03  0.91676023359E+02 0.  0.
    9000005    2    3    3    0    0  0.31150675071E+02  0.28093727439E+02 -0.58252808369E+02  0.72423740118E+02  0.96013733892E+01 0.  0.
         22    1    3    3    0    0 -0.31150675071E+02 -0.28093727439E+02 -0.13737659746E+02  0.44140065406E+02  0.00000000000E+00 0. -1.
         22    1    4    4    0    0  0.23807729179E+02  0.16681581705E+02 -0.44070738009E+02  0.52795010043E+02  0.00000000000E+00 0. -1.
         22    1    4    4    0    0  0.73429458922E+01  0.11412145734E+02 -0.14182070361E+02  0.19628730075E+02  0.00000000000E+00 0. -1.
<mgrwt>
<rscale>  0 0.91676023E+02</rscale>
<asrwt>0</asrwt>
<pdfrwt beam="1">  1        2 0.34287183E-02 0.91676023E+02</pdfrwt>
<pdfrwt beam="2">  1       -2 0.14504175E-01 0.91676023E+02</pdfrwt>
<totfact> 0.80112444E+04</totfact>
</mgrwt>
</event>
<event>
 7    1  0.3337990E-009  0.8996631E+02  0.7818608E-02  0.1302933E+00
          2   -1    0    0  501    0  0.00000000000E+00  0.00000000000E+00  0.48635436169E+03  0.48635436170E+03  0.25500000000E-02 0. -1.
         -2   -1    0    0    0  501 -0.00000000000E+00 -0.00000000000E+00 -0.41605135688E+01  0.41605143503E+01  0.25500000000E-02 0.  1.
         23    2    1    2    0    0  0.35527136788E-14 -0.35527136788E-14  0.48219384813E+03  0.49051487605E+03  0.89966307347E+02 0.  0.
    9000005    2    3    3    0    0 -0.18970985458E+02  0.29865563054E+02  0.39010958022E+03  0.39186720734E+03  0.11071290183E+02 0.  0.
         22    1    3    3    0    0  0.18970985458E+02 -0.29865563054E+02  0.92084267911E+02  0.98647668713E+02  0.00000000000E+00 0.  1.
         22    1    4    4    0    0 -0.18097236071E+02  0.19593813393E+02  0.26857354293E+03  0.26989474882E+03  0.00000000000E+00 0.  1.
         22    1    4    4    0    0 -0.87374938673E+00  0.10271749661E+02  0.12153603729E+03  0.12197245852E+03  0.00000000000E+00 0.  1.
<mgrwt>
<rscale>  0 0.89966307E+02</rscale>
<asrwt>0</asrwt>
<pdfrwt beam="1">  1        2 0.74823751E-01 0.89966307E+02</pdfrwt>
<pdfrwt beam="2">  1       -2 0.64007904E-03 0.89966307E+02</pdfrwt>
<totfact> 0.22123651E+05</totfact>
</mgrwt>
</event>
<event>
 7    1  0.3337990E-009  0.9305500E+02  0.7818608E-02  0.1295618E+00
          2   -1    0    0  501    0  0.00000000000E+00  0.00000000000E+00  0.15399169389E+03  0.15399169391E+03  0.25500000000E-02 0.  1.
         -2   -1    0    0    0  501 -0.00000000000E+00 -0.00000000000E+00 -0.14057954801E+02  0.14057955032E+02  0.25500000000E-02 0. -1.
         23    2    1    2    0    0  0.00000000000E+00 -0.17763568394E-14  0.13993373909E+03  0.16804964895E+03  0.93055000804E+02 0.  0.
    9000005    2    3    3    0    0 -0.26876405468E+02  0.98357320778E+01  0.62369059069E+01  0.31323916181E+02  0.11099816811E+02 0.  0.
         22    1    3    3    0    0  0.26876405468E+02 -0.98357320778E+01  0.13369683318E+03  0.13672573276E+03  0.00000000000E+00 0.  1.
         22    1    4    4    0    0 -0.26303356549E+02  0.92847626376E+01  0.83084751216E+01  0.29105053545E+02  0.00000000000E+00 0. -1.
         22    1    4    4    0    0 -0.57304891874E+00  0.55096944022E+00 -0.20715692146E+01  0.22188626362E+01  0.00000000000E+00 0. -1.
<mgrwt>
<rscale>  0 0.93055001E+02</rscale>
<asrwt>0</asrwt>
<pdfrwt beam="1">  1        2 0.23691031E-01 0.93055001E+02</pdfrwt>
<pdfrwt beam="2">  1       -2 0.21627622E-02 0.93055001E+02</pdfrwt>
<totfact> 0.13346346E+05</totfact>
</mgrwt>
</event>
<event>
 7    1  0.3337990E-009  0.9070872E+02  0.7818608E-02  0.1301144E+00
         -2   -1    0    0    0  501 -0.00000000000E+00  0.00000000000E+00  0.11793594963E+02  0.11793595238E+02  0.25500000000E-02 0.  1.
          2   -1    0    0  501    0  0.00000000000E+00 -0.00000000000E+00 -0.17441821399E+03  0.17441821401E+03  0.25500000000E-02 0. -1.
         23    2    1    2    0    0  0.71054273576E-14  0.00000000000E+00 -0.16262461903E+03  0.18621180925E+03  0.90708716172E+02 0.  0.
    9000005    2    3    3    0    0  0.36615988807E+02 -0.99453920533E+01 -0.34877050127E+02  0.52948600449E+02  0.12145130897E+02 0.  0.
         22    1    3    3    0    0 -0.36615988807E+02  0.99453920533E+01 -0.12774756890E+03  0.13326320880E+03  0.00000000000E+00 0. -1.
         22    1    4    4    0    0  0.35617078055E+02 -0.11167766996E+02 -0.30204970259E+02  0.48017033408E+02  0.00000000000E+00 0.  1.
         22    1    4    4    0    0  0.99891075164E+00  0.12223749431E+01 -0.46720798679E+01  0.49315670413E+01  0.00000000000E+00 0.  1.
<mgrwt>
<rscale>  0 0.90708716E+02</rscale>
<asrwt>0</asrwt>
<pdfrwt beam="2">  1        2 0.26833569E-01 0.90708716E+02</pdfrwt>
<pdfrwt beam="1">  1       -2 0.18143994E-02 0.90708716E+02</pdfrwt>
<totfact> 0.14935917E+05</totfact>
</mgrwt>
</event>
<event>
 7    1  0.3337990E-009  0.8867284E+02  0.7818608E-02  0.1306098E+00
         -2   -1    0    0    0  501 -0.00000000000E+00  0.00000000000E+00  0.71481807758E+01  0.71481812307E+01  0.25500000000E-02 0.  1.
          2   -1    0    0  501    0  0.00000000000E+00 -0.00000000000E+00 -0.27499559274E+03  0.27499559275E+03  0.25500000000E-02 0. -1.
         23    2    1    2    0    0 -0.35527136788E-14  0.17763568394E-14 -0.26784741197E+03  0.28214377398E+03  0.88672843088E+02 0.  0.
    9000005    2    3    3    0    0 -0.29864175686E+02 -0.15304704455E+02 -0.22483537210E+03  0.22758977742E+03  0.10957156133E+02 0.  0.
         22    1    3    3    0    0  0.29864175686E+02  0.15304704455E+02 -0.43012039869E+02  0.54553996568E+02  0.00000000000E+00 0.  1.
         22    1    4    4    0    0 -0.16815522309E+02 -0.35041104967E+01 -0.91448552819E+02  0.93047721055E+02  0.00000000000E+00 0.  1.
         22    1    4    4    0    0 -0.13048653376E+02 -0.11800593958E+02 -0.13338681928E+03  0.13454205636E+03  0.00000000000E+00 0.  1.
<mgrwt>
<rscale>  0 0.88672843E+02</rscale>
<asrwt>0</asrwt>
<pdfrwt beam="2">  1        2 0.42307006E-01 0.88672843E+02</pdfrwt>
<pdfrwt beam="1">  1       -2 0.10997204E-02 0.88672843E+02</pdfrwt>
<totfact> 0.18733128E+05</totfact>
</mgrwt>
</event>
<event>
 7    1  0.3337990E-009  0.1000321E+03  0.7818608E-02  0.1280228E+00
          2   -1    0    0  501    0  0.00000000000E+00  0.00000000000E+00  0.35821548184E+03  0.35821548185E+03  0.25500000000E-02 0. -1.
         -2   -1    0    0    0  501 -0.00000000000E+00 -0.00000000000E+00 -0.69835218852E+01  0.69835223508E+01  0.25500000000E-02 0.  1.
         23    2    1    2    0    0  0.00000000000E+00  0.00000000000E+00  0.35123195995E+03  0.36519900420E+03  0.10003210972E+03 0.  0.
    9000005    2    3    3    0    0  0.19784087455E+02  0.25030667374E+02  0.31549532196E+03  0.31729230612E+03  0.10916268538E+02 0.  0.
         22    1    3    3    0    0 -0.19784087455E+02 -0.25030667374E+02  0.35736637992E+02  0.47906698076E+02  0.00000000000E+00 0. -1.
         22    1    4    4    0    0  0.17755060177E+02  0.21280788110E+02  0.22561168126E+03  0.22730759958E+03  0.00000000000E+00 0.  1.
         22    1    4    4    0    0  0.20290272784E+01  0.37498792640E+01  0.89883640696E+02  0.89984706539E+02  0.00000000000E+00 0.  1.
<mgrwt>
<rscale>  0 0.10003211E+03</rscale>
<asrwt>0</asrwt>
<pdfrwt beam="1">  1        2 0.55110072E-01 0.10003211E+03</pdfrwt>
<pdfrwt beam="2">  1       -2 0.10743881E-02 0.10003211E+03</pdfrwt>
<totfact> 0.14970652E+05</totfact>
</mgrwt>
</event>
<event>
 7    1  0.3337990E-009  0.9115589E+02  0.7818608E-02  0.1300076E+00
          2   -1    0    0  501    0  0.00000000000E+00  0.00000000000E+00  0.28622943034E+03  0.28622943035E+03  0.25500000000E-02 0. -1.
         -2   -1    0    0    0  501 -0.00000000000E+00 -0.00000000000E+00 -0.72576357379E+01  0.72576361859E+01  0.25500000000E-02 0.  1.
         23    2    1    2    0    0  0.00000000000E+00  0.88817841970E-15  0.27897179460E+03  0.29348706654E+03  0.91155888681E+02 0.  0.
    9000005    2    3    3    0    0  0.20521022879E+02  0.48104474897E+01  0.26911773708E+03  0.27022002473E+03  0.12257755389E+02 0.  0.
         22    1    3    3    0    0 -0.20521022879E+02 -0.48104474897E+01  0.98540575261E+01  0.23267041814E+02  0.00000000000E+00 0.  1.
         22    1    4    4    0    0  0.20846515048E+02  0.69463930780E+01  0.23157059463E+03  0.23261076902E+03  0.00000000000E+00 0.  1.
         22    1    4    4    0    0 -0.32549216875E+00 -0.21359455883E+01  0.37547142451E+02  0.37609255708E+02  0.00000000000E+00 0.  1.
<mgrwt>
<rscale>  0 0.91155889E+02</rscale>
<asrwt>0</asrwt>
<pdfrwt beam="1">  1        2 0.44035293E-01 0.91155889E+02</pdfrwt>
<pdfrwt beam="2">  1       -2 0.11165595E-02 0.91155889E+02</pdfrwt>
<totfact> 0.17664910E+05</totfact>
</mgrwt>
</event>
<event>
 7    1  0.3337990E-009  0.9150168E+02  0.7818608E-02  0.1299255E+00
         -2   -1    0    0    0  501 -0.00000000000E+00  0.00000000000E+00  0.36969843730E+01  0.36969852524E+01  0.25500000000E-02 0. -1.
          2   -1    0    0  501    0  0.00000000000E+00 -0.00000000000E+00 -0.56617473233E+03  0.56617473234E+03  0.25500000000E-02 0.  1.
         23    2    1    2    0    0 -0.35527136788E-14  0.00000000000E+00 -0.56247774796E+03  0.56987171759E+03  0.91501680641E+02 0.  0.
    9000005    2    3    3    0    0 -0.20830194396E+02 -0.32562589281E+02 -0.42838539371E+03  0.43031893658E+03  0.12888848559E+02 0.  0.
         22    1    3    3    0    0  0.20830194396E+02  0.32562589281E+02 -0.13409235425E+03  0.13955278101E+03  0.00000000000E+00 0. -1.
         22    1    4    4    0    0 -0.11046453886E+02 -0.62891265313E+01 -0.13358775236E+03  0.13419115037E+03  0.00000000000E+00 0.  1.
         22    1    4    4    0    0 -0.97837405105E+01 -0.26273462750E+02 -0.29479764135E+03  0.29612778621E+03  0.00000000000E+00 0.  1.
<mgrwt>
<rscale>  0 0.91501681E+02</rscale>
<asrwt>0</asrwt>
<pdfrwt beam="2">  1        2 0.87103737E-01 0.91501681E+02</pdfrwt>
<pdfrwt beam="1">  1       -2 0.56876734E-03 0.91501681E+02</pdfrwt>
<totfact> 0.22193377E+05</totfact>
</mgrwt>
</event>
<event>
 7    1  0.3337990E-009  0.9283380E+02  0.7818608E-02  0.1296131E+00
          2   -1    0    0  501    0  0.00000000000E+00  0.00000000000E+00  0.45201241852E+02  0.45201241924E+02  0.25500000000E-02 0.  1.
         -2   -1    0    0    0  501 -0.00000000000E+00 -0.00000000000E+00 -0.47665256033E+02  0.47665256101E+02  0.25500000000E-02 0. -1.
         23    2    1    2    0    0  0.00000000000E+00  0.00000000000E+00 -0.24640141809E+01  0.92866498025E+02  0.92833803593E+02 0.  0.
    9000005    2    3    3    0    0  0.29124791779E+02 -0.33535754759E+02 -0.14039351860E+02  0.46965639800E+02  0.59806001180E+01 0.  0.
         22    1    3    3    0    0 -0.29124791779E+02  0.33535754759E+02  0.11575337679E+02  0.45900858225E+02  0.00000000000E+00 0.  1.
         22    1    4    4    0    0  0.13847801558E+02 -0.13038982621E+02 -0.36292951223E+01  0.19363585899E+02  0.00000000000E+00 0. -1.
         22    1    4    4    0    0  0.15276990221E+02 -0.20496772138E+02 -0.10410056738E+02  0.27602053901E+02  0.00000000000E+00 0. -1.
<mgrwt>
<rscale>  0 0.92833804E+02</rscale>
<asrwt>0</asrwt>
<pdfrwt beam="1">  1        2 0.69540372E-02 0.92833804E+02</pdfrwt>
<pdfrwt beam="2">  1       -2 0.73331164E-02 0.92833804E+02</pdfrwt>
<totfact> 0.93480792E+04</totfact>
</mgrwt>
</event>
<event>
 7    1  0.3337990E-009  0.9083653E+02  0.7818608E-02  0.1300838E+00
          2   -1    0    0  501    0  0.00000000000E+00  0.00000000000E+00  0.74942585353E+02  0.74942585396E+02  0.25500000000E-02 0. -1.
         -2   -1    0    0    0  501 -0.00000000000E+00 -0.00000000000E+00 -0.27525324205E+02  0.27525324323E+02  0.25500000000E-02 0.  1.
         23    2    1    2    0    0  0.00000000000E+00  0.00000000000E+00  0.47417261148E+02  0.10246790972E+03  0.90836533771E+02 0.  0.
    9000005    2    3    3    0    0  0.38895316299E+02 -0.20780020752E+02  0.33308959008E+02  0.56167811645E+02  0.10034013271E+02 0.  0.
         22    1    3    3    0    0 -0.38895316299E+02  0.20780020752E+02  0.14108302139E+02  0.46300098075E+02  0.00000000000E+00 0. -1.
         22    1    4    4    0    0  0.21630725236E+02 -0.63390742791E+01  0.19148685434E+02  0.29576076326E+02  0.00000000000E+00 0. -1.
         22    1    4    4    0    0  0.17264591063E+02 -0.14440946473E+02  0.14160273574E+02  0.26591735319E+02  0.00000000000E+00 0. -1.
<mgrwt>
<rscale>  0 0.90836534E+02</rscale>
<asrwt>0</asrwt>
<pdfrwt beam="1">  1        2 0.11529628E-01 0.90836534E+02</pdfrwt>
<pdfrwt beam="2">  1       -2 0.42346653E-02 0.90836534E+02</pdfrwt>
<totfact> 0.11392860E+05</totfact>
</mgrwt>
</event>
<event>
 7    1  0.3337990E-009  0.9217373E+02  0.7818608E-02  0.1297671E+00
          2   -1    0    0  501    0  0.00000000000E+00  0.00000000000E+00  0.22515255411E+03  0.22515255412E+03  0.25500000000E-02 0. -1.
         -2   -1    0    0    0  501 -0.00000000000E+00 -0.00000000000E+00 -0.94336002963E+01  0.94336006409E+01  0.25500000000E-02 0.  1.
         23    2    1    2    0    0  0.00000000000E+00  0.00000000000E+00  0.21571895381E+03  0.23458615476E+03  0.92173732555E+02 0.  0.
    9000005    2    3    3    0    0 -0.16585149158E+02 -0.36857388802E+02  0.16087498462E+03  0.16645836866E+03  0.13931745783E+02 0.  0.
         22    1    3    3    0    0  0.16585149158E+02  0.36857388802E+02  0.54843969196E+02  0.68127786101E+02  0.00000000000E+00 0.  1.
         22    1    4    4    0    0 -0.60008304035E+00 -0.17449280174E+02  0.72828278376E+02  0.74891892815E+02  0.00000000000E+00 0. -1.
         22    1    4    4    0    0 -0.15985066118E+02 -0.19408108628E+02  0.88046706241E+02  0.91566475848E+02  0.00000000000E+00 0. -1.
<mgrwt>
<rscale>  0 0.92173733E+02</rscale>
<asrwt>0</asrwt>
<pdfrwt beam="1">  1        2 0.34638851E-01 0.92173733E+02</pdfrwt>
<pdfrwt beam="2">  1       -2 0.14513233E-02 0.92173733E+02</pdfrwt>
<totfact> 0.15685224E+05</totfact>
</mgrwt>
</event>
<event>
 7    1  0.3337990E-009  0.8988689E+02  0.7818608E-02  0.1303126E+00
          2   -1    0    0  501    0  0.00000000000E+00  0.00000000000E+00  0.12745139579E+04  0.12745139579E+04  0.25500000000E-02 0.  1.
         -2   -1    0    0    0  501 -0.00000000000E+00 -0.00000000000E+00 -0.15848488429E+01  0.15848508944E+01  0.25500000000E-02 0. -1.
         23    2    1    2    0    0 -0.88817841970E-15  0.00000000000E+00  0.12729291090E+04  0.12760988088E+04  0.89886890747E+02 0.  0.
    9000005    2    3    3    0    0 -0.66083807255E+01  0.30602254486E+02  0.10918367028E+04  0.10923200606E+04  0.86925594443E+01 0.  0.
         22    1    3    3    0    0  0.66083807255E+01 -0.30602254486E+02  0.18109240629E+03  0.18377874820E+03  0.00000000000E+00 0. -1.
         22    1    4    4    0    0 -0.36140595815E+00 -0.52098243008E+00  0.11867534744E+02  0.11884461193E+02  0.00000000000E+00 0. -1.
         22    1    4    4    0    0 -0.62469747674E+01  0.31123236916E+02  0.10799691680E+04  0.10804355994E+04  0.00000000000E+00 0. -1.
<mgrwt>
<rscale>  0 0.89886891E+02</rscale>
<asrwt>0</asrwt>
<pdfrwt beam="1">  1        2 0.19607911E+00 0.89886891E+02</pdfrwt>
<pdfrwt beam="2">  1       -2 0.24382301E-03 0.89886891E+02</pdfrwt>
<totfact> 0.25600917E+05</totfact>
</mgrwt>
</event>
<event>
 7    1  0.3337990E-009  0.9124765E+02  0.7818608E-02  0.1299858E+00
         -2   -1    0    0    0  501 -0.00000000000E+00  0.00000000000E+00  0.19255117276E+03  0.19255117278E+03  0.25500000000E-02 0.  1.
          2   -1    0    0  501    0  0.00000000000E+00 -0.00000000000E+00 -0.10810287794E+02  0.10810288095E+02  0.25500000000E-02 0. -1.
         23    2    1    2    0    0  0.35527136788E-14  0.35527136788E-14  0.18174088497E+03  0.20336146087E+03  0.91247654763E+02 0.  0.
    9000005    2    3    3    0    0 -0.30183144161E+02 -0.19892200484E+02  0.15228453442E+03  0.15673101568E+03  0.82042684354E+01 0.  0.
         22    1    3    3    0    0  0.30183144161E+02  0.19892200484E+02  0.29456350550E+02  0.46630445197E+02  0.00000000000E+00 0. -1.
         22    1    4    4    0    0 -0.23309365690E+02 -0.10863185386E+02  0.10667808434E+03  0.10973399201E+03  0.00000000000E+00 0. -1.
         22    1    4    4    0    0 -0.68737784704E+01 -0.90290150983E+01  0.45606450083E+02  0.46997023664E+02  0.00000000000E+00 0. -1.
<mgrwt>
<rscale>  0 0.91247655E+02</rscale>
<asrwt>0</asrwt>
<pdfrwt beam="2">  1        2 0.16631214E-02 0.91247655E+02</pdfrwt>
<pdfrwt beam="1">  1       -2 0.29623254E-01 0.91247655E+02</pdfrwt>
<totfact> 0.63214272E+04</totfact>
</mgrwt>
</event>
<event>
 7    1  0.3337990E-009  0.8987057E+02  0.7818608E-02  0.1303165E+00
          2   -1    0    0  501    0  0.00000000000E+00  0.00000000000E+00  0.11634039321E+04  0.11634039321E+04  0.25500000000E-02 0.  1.
         -2   -1    0    0    0  501 -0.00000000000E+00 -0.00000000000E+00 -0.17355785617E+01  0.17355804349E+01  0.25500000000E-02 0. -1.
         23    2    1    2    0    0  0.00000000000E+00  0.17763568394E-14  0.11616683535E+04  0.11651395125E+04  0.89870573960E+02 0.  0.
    9000005    2    3    3    0    0 -0.25622266803E+02  0.12596901196E+02  0.10294648854E+04  0.10298881190E+04  0.75103150897E+01 0.  0.
         22    1    3    3    0    0  0.25622266803E+02 -0.12596901196E+02  0.13220346809E+03  0.13525139352E+03  0.00000000000E+00 0. -1.
         22    1    4    4    0    0 -0.21439699792E+02  0.99211866968E+01  0.92932118364E+03  0.92962140306E+03  0.00000000000E+00 0.  1.
         22    1    4    4    0    0 -0.41825670118E+01  0.26757144996E+01  0.10014370177E+03  0.10026671590E+03  0.00000000000E+00 0.  1.
<mgrwt>
<rscale>  0 0.89870574E+02</rscale>
<asrwt>0</asrwt>
<pdfrwt beam="1">  1        2 0.17898604E+00 0.89870574E+02</pdfrwt>
<pdfrwt beam="2">  1       -2 0.26701101E-03 0.89870574E+02</pdfrwt>
<totfact> 0.25906924E+05</totfact>
</mgrwt>
</event>
<event>
 7    1  0.3337990E-009  0.9323692E+02  0.7818608E-02  0.1295197E+00
          2   -1    0    0  501    0  0.00000000000E+00  0.00000000000E+00  0.12182136138E+03  0.12182136141E+03  0.25500000000E-02 0. -1.
         -2   -1    0    0    0  501 -0.00000000000E+00 -0.00000000000E+00 -0.17839898169E+02  0.17839898352E+02  0.25500000000E-02 0.  1.
         23    2    1    2    0    0  0.00000000000E+00 -0.88817841970E-15  0.10398146321E+03  0.13966125976E+03  0.93236917506E+02 0.  0.
    9000005    2    3    3    0    0 -0.91117707307E+01  0.77815054429E+01  0.11915604905E+03  0.12032620745E+03  0.11689994917E+02 0.  0.
         22    1    3    3    0    0  0.91117707307E+01 -0.77815054429E+01 -0.15174585833E+02  0.19335052315E+02  0.00000000000E+00 0.  1.
         22    1    4    4    0    0 -0.22766056863E+01 -0.59717073604E-01  0.72020771952E+02  0.72056769926E+02  0.00000000000E+00 0. -1.
         22    1    4    4    0    0 -0.68351650443E+01  0.78412225165E+01  0.47135277096E+02  0.48269437521E+02  0.00000000000E+00 0. -1.
<mgrwt>
<rscale>  0 0.93236918E+02</rscale>
<asrwt>0</asrwt>
<pdfrwt beam="1">  1        2 0.18741747E-01 0.93236918E+02</pdfrwt>
<pdfrwt beam="2">  1       -2 0.27445998E-02 0.93236918E+02</pdfrwt>
<totfact> 0.12274689E+05</totfact>
</mgrwt>
</event>
<event>
 7    1  0.3337990E-009  0.9317985E+02  0.7818608E-02  0.1295329E+00
          2   -1    0    0  501    0  0.00000000000E+00  0.00000000000E+00  0.64069145646E+02  0.64069145697E+02  0.25500000000E-02 0. -1.
         -2   -1    0    0    0  501 -0.00000000000E+00 -0.00000000000E+00 -0.33879352884E+02  0.33879352980E+02  0.25500000000E-02 0.  1.
         23    2    1    2    0    0 -0.71054273576E-14  0.00000000000E+00  0.30189792762E+02  0.97948498677E+02  0.93179851932E+02 0.  0.
    9000005    2    3    3    0    0 -0.39905456505E+02  0.21844324415E+02  0.12685622360E+02  0.49204104645E+02  0.13802135023E+02 0.  0.
         22    1    3    3    0    0  0.39905456505E+02 -0.21844324415E+02  0.17504170403E+02  0.48744394032E+02  0.00000000000E+00 0. -1.
         22    1    4    4    0    0 -0.17375431427E+02  0.17368829956E+02  0.68111807565E+01  0.25494588732E+02  0.00000000000E+00 0.  1.
         22    1    4    4    0    0 -0.22530025078E+02  0.44754944597E+01  0.58744416031E+01  0.23709515913E+02  0.00000000000E+00 0.  1.
<mgrwt>
<rscale>  0 0.93179852E+02</rscale>
<asrwt>0</asrwt>
<pdfrwt beam="1">  1        2 0.98567915E-02 0.93179852E+02</pdfrwt>
<pdfrwt beam="2">  1       -2 0.52122082E-02 0.93179852E+02</pdfrwt>
<totfact> 0.10155101E+05</totfact>
</mgrwt>
</event>
<event>
 7    1  0.3337990E-009  0.8965376E+02  0.7818608E-02  0.1303692E+00
          2   -1    0    0  501    0  0.00000000000E+00  0.00000000000E+00  0.23123727625E+02  0.23123727766E+02  0.25500000000E-02 0. -1.
         -2   -1    0    0    0  501 -0.00000000000E+00 -0.00000000000E+00 -0.86899883893E+02  0.86899883931E+02  0.25500000000E-02 0.  1.
         23    2    1    2    0    0  0.44408920985E-15  0.00000000000E+00 -0.63776156268E+02  0.11002361170E+03  0.89653761897E+02 0.  0.
    9000005    2    3    3    0    0 -0.37580930031E+01  0.29042905104E+02 -0.73095091236E+02  0.79291606412E+02  0.93087531244E+01 0.  0.
         22    1    3    3    0    0  0.37580930031E+01 -0.29042905104E+02  0.93189349675E+01  0.30732005285E+02  0.00000000000E+00 0. -1.
         22    1    4    4    0    0  0.17623893554E-01  0.42515605131E+01 -0.21606509324E+02  0.22020838372E+02  0.00000000000E+00 0.  1.
         22    1    4    4    0    0 -0.37757168967E+01  0.24791344591E+02 -0.51488581911E+02  0.57270768040E+02  0.00000000000E+00 0.  1.
<mgrwt>
<rscale>  0 0.89653762E+02</rscale>
<asrwt>0</asrwt>
<pdfrwt beam="1">  1        2 0.35574966E-02 0.89653762E+02</pdfrwt>
<pdfrwt beam="2">  1       -2 0.13369213E-01 0.89653762E+02</pdfrwt>
<totfact> 0.86660553E+04</totfact>
</mgrwt>
</event>
<event>
 7    1  0.3337990E-009  0.9303570E+02  0.7818608E-02  0.1295662E+00
          2   -1    0    0  501    0  0.00000000000E+00  0.00000000000E+00  0.23227041312E+03  0.23227041313E+03  0.25500000000E-02 0. -1.
         -2   -1    0    0    0  501 -0.00000000000E+00 -0.00000000000E+00 -0.93163412539E+01  0.93163416029E+01  0.25500000000E-02 0.  1.
         23    2    1    2    0    0  0.00000000000E+00  0.00000000000E+00  0.22295407186E+03  0.24158675473E+03  0.93035702301E+02 0.  0.
    9000005    2    3    3    0    0 -0.88647585051E+01 -0.47832074847E+01  0.22939064032E+03  0.22963299254E+03  0.31276798732E+01 0.  0.
         22    1    3    3    0    0  0.88647585051E+01  0.47832074847E+01 -0.64365684510E+01  0.11953762195E+02  0.00000000000E+00 0.  1.
         22    1    4    4    0    0 -0.75654662458E+01 -0.32756598973E+01  0.20303985009E+03  0.20320715281E+03  0.00000000000E+00 0.  1.
         22    1    4    4    0    0 -0.12992922593E+01 -0.15075475874E+01  0.26350790223E+02  0.26425839731E+02  0.00000000000E+00 0.  1.
<mgrwt>
<rscale>  0 0.93035702E+02</rscale>
<asrwt>0</asrwt>
<pdfrwt beam="1">  1        2 0.35733907E-01 0.93035702E+02</pdfrwt>
<pdfrwt beam="2">  1       -2 0.14332834E-02 0.93035702E+02</pdfrwt>
<totfact> 0.15473832E+05</totfact>
</mgrwt>
</event>
<event>
 7    1  0.3337990E-009  0.8906851E+02  0.7818608E-02  0.1305123E+00
          2   -1    0    0  501    0  0.00000000000E+00  0.00000000000E+00  0.24299866798E+02  0.24299866932E+02  0.25500000000E-02 0. -1.
         -2   -1    0    0    0  501 -0.00000000000E+00 -0.00000000000E+00 -0.81617732638E+02  0.81617732678E+02  0.25500000000E-02 0.  1.
         23    2    1    2    0    0 -0.71054273576E-14  0.17763568394E-14 -0.57317865840E+02  0.10591759961E+03  0.89068513868E+02 0.  0.
    9000005    2    3    3    0    0 -0.42395400850E+02  0.10995236826E+02 -0.37820623161E+02  0.57975887936E+02  0.35410167403E+01 0.  0.
         22    1    3    3    0    0  0.42395400850E+02 -0.10995236826E+02 -0.19497242679E+02  0.47941711674E+02  0.00000000000E+00 0. -1.
         22    1    4    4    0    0 -0.56796767411E+01  0.61180044811E+00 -0.38474709129E+01  0.68873841259E+01  0.00000000000E+00 0. -1.
         22    1    4    4    0    0 -0.36715724109E+02  0.10383436378E+02 -0.33973152248E+02  0.51088503810E+02  0.00000000000E+00 0. -1.
<mgrwt>
<rscale>  0 0.89068514E+02</rscale>
<asrwt>0</asrwt>
<pdfrwt beam="1">  1        2 0.37384411E-02 0.89068514E+02</pdfrwt>
<pdfrwt beam="2">  1       -2 0.12556574E-01 0.89068514E+02</pdfrwt>
<totfact> 0.89617857E+04</totfact>
</mgrwt>
</event>
<event>
 7    1  0.3948619E-009  0.9228231E+02  0.7818608E-02  0.1297417E+00
          2   -1    0    0  501    0  0.00000000000E+00  0.00000000000E+00  0.81197271830E+03  0.81197271830E+03  0.25500000000E-02 0.  1.
         -2   -1    0    0    0  501 -0.00000000000E+00 -0.00000000000E+00 -0.26220162403E+01  0.26220174803E+01  0.25500000000E-02 0. -1.
         23    2    1    2    0    0  0.17763568394E-14  0.00000000000E+00  0.80935070206E+03  0.81459473578E+03  0.92282309479E+02 0.  0.
    9000005    2    3    3    0    0  0.12784838065E+02  0.30286699674E+02  0.68558965452E+03  0.68654188283E+03  0.15028181320E+02 0.  0.
         22    1    3    3    0    0 -0.12784838065E+02 -0.30286699674E+02  0.12376104754E+03  0.12805285295E+03  0.00000000000E+00 0. -1.
         22    1    4    4    0    0  0.30106595133E+01  0.11037263891E+02  0.12100581789E+03  0.12154543689E+03  0.00000000000E+00 0.  1.
         22    1    4    4    0    0  0.97741785521E+01  0.19249435783E+02  0.56458383663E+03  0.56499644594E+03  0.00000000000E+00 0.  1.
<mgrwt>
<rscale>  0 0.92282309E+02</rscale>
<asrwt>0</asrwt>
<pdfrwt beam="1">  1        2 0.12491897E+00 0.92282309E+02</pdfrwt>
<pdfrwt beam="2">  1       -2 0.40338691E-03 0.92282309E+02</pdfrwt>
<totfact> 0.23671920E+05</totfact>
</mgrwt>
</event>
<event>
 7    1  0.3337990E-009  0.9340814E+02  0.7818608E-02  0.1294802E+00
          2   -1    0    0  501    0  0.00000000000E+00  0.00000000000E+00  0.45507151973E+02  0.45507152044E+02  0.25500000000E-02 0.  1.
         -2   -1    0    0    0  501 -0.00000000000E+00 -0.00000000000E+00 -0.47932464921E+02  0.47932464989E+02  0.25500000000E-02 0. -1.
         23    2    1    2    0    0 -0.35527136788E-14  0.00000000000E+00 -0.24253129479E+01  0.93439617033E+02  0.93408136093E+02 0.  0.
    9000005    2    3    3    0    0  0.20245839516E+02 -0.70895040196E+01 -0.41639333735E+02  0.48741803762E+02  0.13482367563E+02 0.  0.
         22    1    3    3    0    0 -0.20245839516E+02  0.70895040196E+01  0.39214020787E+02  0.44697813271E+02  0.00000000000E+00 0.  1.
         22    1    4    4    0    0  0.16285088904E+02 -0.88923328685E+01 -0.39995586623E+02  0.44089960919E+02  0.00000000000E+00 0.  1.
         22    1    4    4    0    0  0.39607506122E+01  0.18028288489E+01 -0.16437471114E+01  0.46518428431E+01  0.00000000000E+00 0.  1.
<mgrwt>
<rscale>  0 0.93408136E+02</rscale>
<asrwt>0</asrwt>
<pdfrwt beam="1">  1        2 0.70011003E-02 0.93408136E+02</pdfrwt>
<pdfrwt beam="2">  1       -2 0.73742254E-02 0.93408136E+02</pdfrwt>
<totfact> 0.91995226E+04</totfact>
</mgrwt>
</event>
<event>
 7    1  0.3337990E-009  0.1006448E+03  0.7818608E-02  0.1278946E+00
          2   -1    0    0  501    0  0.00000000000E+00  0.00000000000E+00  0.25674511722E+03  0.25674511723E+03  0.25500000000E-02 0. -1.
         -2   -1    0    0    0  501 -0.00000000000E+00 -0.00000000000E+00 -0.98632641416E+01  0.98632644713E+01  0.25500000000E-02 0.  1.
         23    2    1    2    0    0  0.17763568394E-14  0.00000000000E+00  0.24688185308E+03  0.26660838170E+03  0.10064482011E+03 0.  0.
    9000005    2    3    3    0    0 -0.98884996827E+01  0.44415321887E+02  0.72204649939E+02  0.86101793068E+02  0.11379984729E+02 0.  0.
         22    1    3    3    0    0  0.98884996827E+01 -0.44415321887E+02  0.17467720314E+03  0.18050658864E+03  0.00000000000E+00 0.  1.
         22    1    4    4    0    0  0.21535542005E+01  0.25436571256E+01  0.49062217299E+01  0.59311886608E+01  0.00000000000E+00 0. -1.
         22    1    4    4    0    0 -0.12042053883E+02  0.41871664762E+02  0.67298428209E+02  0.80170604407E+02  0.00000000000E+00 0. -1.
<mgrwt>
<rscale>  0 0.10064482E+03</rscale>
<asrwt>0</asrwt>
<pdfrwt beam="1">  1        2 0.39499251E-01 0.10064482E+03</pdfrwt>
<pdfrwt beam="2">  1       -2 0.15174252E-02 0.10064482E+03</pdfrwt>
<totfact> 0.12992073E+05</totfact>
</mgrwt>
</event>
<event>
 7    1  0.3337990E-009  0.9245250E+02  0.7818608E-02  0.1297019E+00
          2   -1    0    0  501    0  0.00000000000E+00  0.00000000000E+00  0.24982000898E+03  0.24982000899E+03  0.25500000000E-02 0.  1.
         -2   -1    0    0    0  501 -0.00000000000E+00 -0.00000000000E+00 -0.85536228449E+01  0.85536232250E+01  0.25500000000E-02 0. -1.
         23    2    1    2    0    0  0.00000000000E+00  0.00000000000E+00  0.24126638613E+03  0.25837363221E+03  0.92452499949E+02 0.  0.
    9000005    2    3    3    0    0 -0.27725820503E+02 -0.26153410783E+02  0.19264298498E+03  0.19659210457E+03  0.91877037623E+01 0.  0.
         22    1    3    3    0    0  0.27725820503E+02  0.26153410783E+02  0.48623401153E+02  0.61781527642E+02  0.00000000000E+00 0. -1.
         22    1    4    4    0    0 -0.39818022577E+01 -0.88018716425E+00  0.31306022755E+02  0.31570501095E+02  0.00000000000E+00 0.  1.
         22    1    4    4    0    0 -0.23744018246E+02 -0.25273223619E+02  0.16133696222E+03  0.16502160348E+03  0.00000000000E+00 0.  1.
<mgrwt>
<rscale>  0 0.92452500E+02</rscale>
<asrwt>0</asrwt>
<pdfrwt beam="1">  1        2 0.38433850E-01 0.92452500E+02</pdfrwt>
<pdfrwt beam="2">  1       -2 0.13159419E-02 0.92452500E+02</pdfrwt>
<totfact> 0.16167709E+05</totfact>
</mgrwt>
</event>
<event>
 7    1  0.3337990E-009  0.9142501E+02  0.7818608E-02  0.1299437E+00
          2   -1    0    0  501    0  0.00000000000E+00  0.00000000000E+00  0.18515771450E+03  0.18515771451E+03  0.25500000000E-02 0.  1.
         -2   -1    0    0    0  501 -0.00000000000E+00 -0.00000000000E+00 -0.11285693819E+02  0.11285694107E+02  0.25500000000E-02 0. -1.
         23    2    1    2    0    0 -0.17763568394E-14  0.00000000000E+00  0.17387202068E+03  0.19644340862E+03  0.91425014172E+02 0.  0.
    9000005    2    3    3    0    0 -0.12346871495E+02  0.42856788621E+02  0.87066598322E+02  0.98850730018E+02  0.14202982615E+02 0.  0.
         22    1    3    3    0    0  0.12346871495E+02 -0.42856788621E+02  0.86805422355E+02  0.97592678603E+02  0.00000000000E+00 0. -1.
         22    1    4    4    0    0 -0.13568065044E+02  0.34148900216E+02  0.59661267602E+02  0.70069298747E+02  0.00000000000E+00 0. -1.
         22    1    4    4    0    0  0.12211935493E+01  0.87078884054E+01  0.27405330720E+02  0.28781431271E+02  0.00000000000E+00 0. -1.
<mgrwt>
<rscale>  0 0.91425014E+02</rscale>
<asrwt>0</asrwt>
<pdfrwt beam="1">  1        2 0.28485804E-01 0.91425014E+02</pdfrwt>
<pdfrwt beam="2">  1       -2 0.17362605E-02 0.91425014E+02</pdfrwt>
<totfact> 0.14935197E+05</totfact>
</mgrwt>
</event>
<event>
 7    1  0.3337990E-009  0.9256563E+02  0.7818608E-02  0.1296755E+00
         -2   -1    0    0    0  501 -0.00000000000E+00  0.00000000000E+00  0.19936999713E+03  0.19936999714E+03  0.25500000000E-02 0.  1.
          2   -1    0    0  501    0  0.00000000000E+00 -0.00000000000E+00 -0.10744338485E+02  0.10744338788E+02  0.25500000000E-02 0. -1.
         23    2    1    2    0    0 -0.71054273576E-14  0.00000000000E+00  0.18862565864E+03  0.21011433593E+03  0.92565625725E+02 0.  0.
    9000005    2    3    3    0    0 -0.32478476725E+02  0.22686171633E+01  0.16844013154E+03  0.17180697921E+03  0.92499794629E+01 0.  0.
         22    1    3    3    0    0  0.32478476725E+02 -0.22686171633E+01  0.20185527104E+02  0.38307356717E+02  0.00000000000E+00 0. -1.
         22    1    4    4    0    0 -0.81240942284E+01 -0.30966215770E+01  0.52506304841E+02  0.53221255343E+02  0.00000000000E+00 0.  1.
         22    1    4    4    0    0 -0.24354382496E+02  0.53652387403E+01  0.11593382670E+03  0.11858572387E+03  0.00000000000E+00 0.  1.
<mgrwt>
<rscale>  0 0.92565626E+02</rscale>
<asrwt>0</asrwt>
<pdfrwt beam="2">  1        2 0.16529752E-02 0.92565626E+02</pdfrwt>
<pdfrwt beam="1">  1       -2 0.30672308E-01 0.92565626E+02</pdfrwt>
<totfact> 0.60038965E+04</totfact>
</mgrwt>
</event>
<event>
 7    1  0.3337990E-009  0.9071150E+02  0.7818608E-02  0.1301138E+00
          2   -1    0    0  501    0  0.00000000000E+00  0.00000000000E+00  0.18042777609E+03  0.18042777611E+03  0.25500000000E-02 0. -1.
         -2   -1    0    0    0  501 -0.00000000000E+00 -0.00000000000E+00 -0.11401481047E+02  0.11401481332E+02  0.25500000000E-02 0.  1.
         23    2    1    2    0    0  0.00000000000E+00 -0.22204460493E-15  0.16902629504E+03  0.19182925744E+03  0.90711496482E+02 0.  0.
    9000005    2    3    3    0    0 -0.26629249109E+02  0.19818752123E+01  0.85431493003E+01  0.29139722420E+02  0.79431281802E+01 0.  0.
         22    1    3    3    0    0  0.26629249109E+02 -0.19818752123E+01  0.16048314574E+03  0.16268953502E+03  0.00000000000E+00 0. -1.
         22    1    4    4    0    0 -0.52583263159E-01 -0.10259680965E+01 -0.98420663040E-01  0.10320184889E+01  0.00000000000E+00 0. -1.
         22    1    4    4    0    0 -0.26576665846E+02  0.30078433088E+01  0.86415699634E+01  0.28107703931E+02  0.00000000000E+00 0. -1.
<mgrwt>
<rscale>  0 0.90711496E+02</rscale>
<asrwt>0</asrwt>
<pdfrwt beam="1">  1        2 0.27758118E-01 0.90711496E+02</pdfrwt>
<pdfrwt beam="2">  1       -2 0.17540741E-02 0.90711496E+02</pdfrwt>
<totfact> 0.15114426E+05</totfact>
</mgrwt>
</event>
<event>
 7    1  0.3337990E-009  0.9024553E+02  0.7818608E-02  0.1302258E+00
          2   -1    0    0  501    0  0.00000000000E+00  0.00000000000E+00  0.43921586210E+02  0.43921586284E+02  0.25500000000E-02 0. -1.
         -2   -1    0    0    0  501 -0.00000000000E+00 -0.00000000000E+00 -0.46356791042E+02  0.46356791112E+02  0.25500000000E-02 0.  1.
         23    2    1    2    0    0  0.00000000000E+00  0.00000000000E+00 -0.24352048328E+01  0.90278377396E+02  0.90245527328E+02 0.  0.
    9000005    2    3    3    0    0 -0.28251332739E+02 -0.31035033814E+02 -0.16435373107E+02  0.46036815069E+02  0.93784714720E+01 0.  0.
         22    1    3    3    0    0  0.28251332739E+02  0.31035033814E+02  0.14000168275E+02  0.44241562327E+02  0.00000000000E+00 0.  1.
         22    1    4    4    0    0 -0.69628664505E+01 -0.35599628137E+01 -0.56389611504E+01  0.96411994740E+01  0.00000000000E+00 0. -1.
         22    1    4    4    0    0 -0.21288466289E+02 -0.27475071001E+02 -0.10796411957E+02  0.36395615595E+02  0.00000000000E+00 0. -1.
<mgrwt>
<rscale>  0 0.90245527E+02</rscale>
<asrwt>0</asrwt>
<pdfrwt beam="1">  1        2 0.67571671E-02 0.90245527E+02</pdfrwt>
<pdfrwt beam="2">  1       -2 0.71318140E-02 0.90245527E+02</pdfrwt>
<totfact> 0.10065071E+05</totfact>
</mgrwt>
</event>
<event>
 7    1  0.3337990E-009  0.9106306E+02  0.7818608E-02  0.1300298E+00
         -2   -1    0    0    0  501 -0.00000000000E+00  0.00000000000E+00  0.39765512486E+03  0.39765512487E+03  0.25500000000E-02 0.  1.
          2   -1    0    0  501    0  0.00000000000E+00 -0.00000000000E+00 -0.52133614882E+01  0.52133621118E+01  0.25500000000E-02 0. -1.
         23    2    1    2    0    0  0.00000000000E+00  0.88817841970E-15  0.39244176337E+03  0.40286848698E+03  0.91063055973E+02 0.  0.
    9000005    2    3    3    0    0  0.44747655286E+02 -0.45819973290E+01  0.18848676752E+03  0.19401210645E+03  0.94914997687E+01 0.  0.
         22    1    3    3    0    0 -0.44747655286E+02  0.45819973290E+01  0.20395499586E+03  0.20885638053E+03  0.00000000000E+00 0.  1.
         22    1    4    4    0    0  0.36133073043E+01  0.21151844023E+01  0.13704237485E+02  0.14329554067E+02  0.00000000000E+00 0. -1.
         22    1    4    4    0    0  0.41134347981E+02 -0.66971817313E+01  0.17478253003E+03  0.17968255238E+03  0.00000000000E+00 0. -1.
<mgrwt>
<rscale>  0 0.91063056E+02</rscale>
<asrwt>0</asrwt>
<pdfrwt beam="2">  1        2 0.80205529E-03 0.91063056E+02</pdfrwt>
<pdfrwt beam="1">  1       -2 0.61177740E-01 0.91063056E+02</pdfrwt>
<totfact> 0.43000887E+04</totfact>
</mgrwt>
</event>
<event>
 7    1  0.3337990E-009  0.9280304E+02  0.7818608E-02  0.1296202E+00
         -2   -1    0    0    0  501 -0.00000000000E+00  0.00000000000E+00  0.18179969740E+01  0.18179987623E+01  0.25500000000E-02 0.  1.
          2   -1    0    0  501    0  0.00000000000E+00 -0.00000000000E+00 -0.11843252821E+04  0.11843252821E+04  0.25500000000E-02 0. -1.
         23    2    1    2    0    0  0.88817841970E-15  0.00000000000E+00 -0.11825072851E+04  0.11861432809E+04  0.92803035324E+02 0.  0.
    9000005    2    3    3    0    0 -0.66357807968E+01 -0.12558967865E+02 -0.11558034858E+04  0.11558967247E+04  0.37120299152E+01 0.  0.
         22    1    3    3    0    0  0.66357807968E+01  0.12558967865E+02 -0.26703799371E+02  0.30246556192E+02  0.00000000000E+00 0.  1.
         22    1    4    4    0    0  0.33112485343E+00 -0.72510541014E-01 -0.16239327617E+02  0.16242864985E+02  0.00000000000E+00 0.  1.
         22    1    4    4    0    0 -0.69669056503E+01 -0.12486457324E+02 -0.11395641581E+04  0.11396538597E+04  0.00000000000E+00 0.  1.
<mgrwt>
<rscale>  0 0.92803035E+02</rscale>
<asrwt>0</asrwt>
<pdfrwt beam="2">  1        2 0.18220327E+00 0.92803035E+02</pdfrwt>
<pdfrwt beam="1">  1       -2 0.27969293E-03 0.92803035E+02</pdfrwt>
<totfact> 0.23769050E+05</totfact>
</mgrwt>
</event>
<event>
 7    1  0.3337990E-009  0.9109554E+02  0.7818608E-02  0.1300220E+00
          2   -1    0    0  501    0  0.00000000000E+00  0.00000000000E+00  0.25095740882E+02  0.25095741012E+02  0.25500000000E-02 0.  1.
         -2   -1    0    0    0  501 -0.00000000000E+00 -0.00000000000E+00 -0.82667380048E+02  0.82667380087E+02  0.25500000000E-02 0. -1.
         23    2    1    2    0    0  0.71054273576E-14  0.00000000000E+00 -0.57571639166E+02  0.10776312110E+03  0.91095535746E+02 0.  0.
    9000005    2    3    3    0    0 -0.44478973358E+02 -0.13114018373E+01 -0.31480262636E+02  0.56179608472E+02  0.13603037407E+02 0.  0.
         22    1    3    3    0    0  0.44478973358E+02  0.13114018373E+01 -0.26091376530E+02  0.51583512627E+02  0.00000000000E+00 0. -1.
         22    1    4    4    0    0 -0.22900913283E+02  0.48775934313E+01 -0.11319338609E+02  0.26007117745E+02  0.00000000000E+00 0.  1.
         22    1    4    4    0    0 -0.21578060075E+02 -0.61889952687E+01 -0.20160924027E+02  0.30172490727E+02  0.00000000000E+00 0.  1.
<mgrwt>
<rscale>  0 0.91095536E+02</rscale>
<asrwt>0</asrwt>
<pdfrwt beam="1">  1        2 0.38608832E-02 0.91095536E+02</pdfrwt>
<pdfrwt beam="2">  1       -2 0.12718058E-01 0.91095536E+02</pdfrwt>
<totfact> 0.84493530E+04</totfact>
</mgrwt>
</event>
<event>
 7    1  0.3337990E-009  0.9030770E+02  0.7818608E-02  0.1302108E+00
          2   -1    0    0  501    0  0.00000000000E+00  0.00000000000E+00  0.11807330476E+03  0.11807330479E+03  0.25500000000E-02 0. -1.
         -2   -1    0    0    0  501 -0.00000000000E+00 -0.00000000000E+00 -0.17267835166E+02  0.17267835354E+02  0.25500000000E-02 0.  1.
         23    2    1    2    0    0 -0.17763568394E-14 -0.17763568394E-14  0.10080546960E+03  0.13534114014E+03  0.90307704625E+02 0.  0.
    9000005    2    3    3    0    0  0.15809666887E+02  0.13292725481E+02  0.11020260683E+03  0.11264866769E+03  0.10884193177E+02 0.  0.
         22    1    3    3    0    0 -0.15809666887E+02 -0.13292725481E+02 -0.93971372390E+01  0.22692472454E+02  0.00000000000E+00 0.  1.
         22    1    4    4    0    0 -0.10155070197E+01  0.39977670436E+01  0.19845556226E+02  0.20269669405E+02  0.00000000000E+00 0. -1.
         22    1    4    4    0    0  0.16825173907E+02  0.92949584372E+01  0.90357050608E+02  0.92378998284E+02  0.00000000000E+00 0. -1.
<mgrwt>
<rscale>  0 0.90307705E+02</rscale>
<asrwt>0</asrwt>
<pdfrwt beam="1">  1        2 0.18165123E-01 0.90307705E+02</pdfrwt>
<pdfrwt beam="2">  1       -2 0.26565901E-02 0.90307705E+02</pdfrwt>
<totfact> 0.13261959E+05</totfact>
</mgrwt>
</event>
<event>
 7    1  0.3337990E-009  0.9449212E+02  0.7818608E-02  0.1292324E+00
         -2   -1    0    0    0  501 -0.00000000000E+00  0.00000000000E+00  0.18919706030E+03  0.18919706031E+03  0.25500000000E-02 0.  1.
          2   -1    0    0  501    0  0.00000000000E+00 -0.00000000000E+00 -0.11798229018E+02  0.11798229293E+02  0.25500000000E-02 0. -1.
         23    2    1    2    0    0  0.00000000000E+00  0.00000000000E+00  0.17739883128E+03  0.20099528961E+03  0.94492121920E+02 0.  0.
    9000005    2    3    3    0    0  0.26607151516E+02  0.16463562464E+02  0.16315942155E+03  0.16661869597E+03  0.12720204549E+02 0.  0.
         22    1    3    3    0    0 -0.26607151516E+02 -0.16463562464E+02  0.14239409725E+02  0.34376593638E+02  0.00000000000E+00 0. -1.
         22    1    4    4    0    0  0.26868779791E+01 -0.86038346851E+00  0.34394451013E+02  0.34509967161E+02  0.00000000000E+00 0. -1.
         22    1    4    4    0    0  0.23920273537E+02  0.17323945933E+02  0.12876497054E+03  0.13210872881E+03  0.00000000000E+00 0. -1.
<mgrwt>
<rscale>  0 0.94492122E+02</rscale>
<asrwt>0</asrwt>
<pdfrwt beam="2">  1        2 0.18151123E-02 0.94492122E+02</pdfrwt>
<pdfrwt beam="1">  1       -2 0.29107238E-01 0.94492122E+02</pdfrwt>
<totfact> 0.58249007E+04</totfact>
</mgrwt>
</event>
<event>
 7    1  0.3337990E-009  0.8950948E+02  0.7818608E-02  0.1304044E+00
          2   -1    0    0  501    0  0.00000000000E+00  0.00000000000E+00  0.20637151372E+02  0.20637151530E+02  0.25500000000E-02 0. -1.
         -2   -1    0    0    0  501 -0.00000000000E+00 -0.00000000000E+00 -0.97057332612E+02  0.97057332646E+02  0.25500000000E-02 0.  1.
         23    2    1    2    0    0  0.88817841970E-15 -0.17763568394E-14 -0.76420181240E+02  0.11769448418E+03  0.89509482763E+02 0.  0.
    9000005    2    3    3    0    0 -0.79236310548E+01  0.15531463204E+02  0.14711405298E+02  0.24909914643E+02  0.10003405585E+02 0.  0.
         22    1    3    3    0    0  0.79236310548E+01 -0.15531463204E+02 -0.91131586538E+02  0.92784569533E+02  0.00000000000E+00 0.  1.
         22    1    4    4    0    0 -0.17573281358E+01  0.94242731265E+01  0.24623286303E+01  0.98978880790E+01  0.00000000000E+00 0. -1.
         22    1    4    4    0    0 -0.61663029191E+01  0.61071900777E+01  0.12249076668E+02  0.15012026564E+02  0.00000000000E+00 0. -1.
<mgrwt>
<rscale>  0 0.89509483E+02</rscale>
<asrwt>0</asrwt>
<pdfrwt beam="1">  1        2 0.31749465E-02 0.89509483E+02</pdfrwt>
<pdfrwt beam="2">  1       -2 0.14931897E-01 0.89509483E+02</pdfrwt>
<totfact> 0.84291883E+04</totfact>
</mgrwt>
</event>
<event>
 7    1  0.3337990E-009  0.9137464E+02  0.7818608E-02  0.1299557E+00
          2   -1    0    0  501    0  0.00000000000E+00  0.00000000000E+00  0.30731862002E+02  0.30731862108E+02  0.25500000000E-02 0. -1.
         -2   -1    0    0    0  501 -0.00000000000E+00 -0.00000000000E+00 -0.67920750882E+02  0.67920750930E+02  0.25500000000E-02 0.  1.
         23    2    1    2    0    0 -0.35527136788E-14 -0.35527136788E-14 -0.37188888880E+02  0.98652613038E+02  0.91374638730E+02 0.  0.
    9000005    2    3    3    0    0 -0.25946532738E+02 -0.24602566093E+02  0.11449312844E+02  0.38285540171E+02  0.74957989649E+01 0.  0.
         22    1    3    3    0    0  0.25946532738E+02  0.24602566093E+02 -0.48638201725E+02  0.60367072867E+02  0.00000000000E+00 0.  1.
         22    1    4    4    0    0 -0.13964357596E+02 -0.86886752632E+01  0.69987750561E+01  0.17873981459E+02  0.00000000000E+00 0.  1.
         22    1    4    4    0    0 -0.11982175142E+02 -0.15913890830E+02  0.44505377883E+01  0.20411558712E+02  0.00000000000E+00 0.  1.
<mgrwt>
<rscale>  0 0.91374639E+02</rscale>
<asrwt>0</asrwt>
<pdfrwt beam="1">  1        2 0.47279788E-02 0.91374639E+02</pdfrwt>
<pdfrwt beam="2">  1       -2 0.10449346E-01 0.91374639E+02</pdfrwt>
<totfact> 0.88465719E+04</totfact>
</mgrwt>
</event>
<event>
 7    1  0.3337990E-009  0.9099696E+02  0.7818608E-02  0.1300455E+00
         -2   -1    0    0    0  501 -0.00000000000E+00  0.00000000000E+00  0.39510555260E+02  0.39510555342E+02  0.25500000000E-02 0.  1.
          2   -1    0    0  501    0  0.00000000000E+00 -0.00000000000E+00 -0.52393887600E+02  0.52393887662E+02  0.25500000000E-02 0. -1.
         23    2    1    2    0    0  0.00000000000E+00  0.17763568394E-14 -0.12883332340E+02  0.91904443005E+02  0.90996958146E+02 0.  0.
    9000005    2    3    3    0    0  0.25173630934E+02  0.13760434735E+02  0.28126365742E+02  0.41855900615E+02  0.11737235958E+02 0.  0.
         22    1    3    3    0    0 -0.25173630934E+02 -0.13760434735E+02 -0.41009698082E+02  0.50048542390E+02  0.00000000000E+00 0. -1.
         22    1    4    4    0    0  0.39439842791E+01 -0.30568831240E+00  0.58044799722E-01  0.39562389383E+01  0.00000000000E+00 0.  1.
         22    1    4    4    0    0  0.21229646655E+02  0.14066123047E+02  0.28068320942E+02  0.37899661677E+02  0.00000000000E+00 0.  1.
<mgrwt>
<rscale>  0 0.90996958E+02</rscale>
<asrwt>0</asrwt>
<pdfrwt beam="2">  1        2 0.80605981E-02 0.90996958E+02</pdfrwt>
<pdfrwt beam="1">  1       -2 0.60785470E-02 0.90996958E+02</pdfrwt>
<totfact> 0.10290024E+05</totfact>
</mgrwt>
</event>
<event>
 7    1  0.3337990E-009  0.9703459E+02  0.7818608E-02  0.1286658E+00
         -2   -1    0    0    0  501 -0.00000000000E+00  0.00000000000E+00  0.20808971777E+02  0.20808971933E+02  0.25500000000E-02 0. -1.
          2   -1    0    0  501    0  0.00000000000E+00 -0.00000000000E+00 -0.11312082762E+03  0.11312082765E+03  0.25500000000E-02 0.  1.
         23    2    1    2    0    0  0.17763568394E-14  0.71054273576E-14 -0.92311855847E+02  0.13392979959E+03  0.97034594281E+02 0.  0.
    9000005    2    3    3    0    0  0.13341352242E+02  0.44269084501E+02 -0.31008734633E+02  0.57145581203E+02  0.12896988224E+02 0.  0.
         22    1    3    3    0    0 -0.13341352242E+02 -0.44269084501E+02 -0.61303121213E+02  0.76784218383E+02  0.00000000000E+00 0.  1.
         22    1    4    4    0    0  0.73230927231E+01  0.39459674969E+02 -0.24206536237E+02  0.46868433218E+02  0.00000000000E+00 0. -1.
         22    1    4    4    0    0  0.60182595191E+01  0.48094095319E+01 -0.68021983961E+01  0.10277147985E+02  0.00000000000E+00 0. -1.
<mgrwt>
<rscale>  0 0.97034594E+02</rscale>
<asrwt>0</asrwt>
<pdfrwt beam="2">  1        2 0.17403204E-01 0.97034594E+02</pdfrwt>
<pdfrwt beam="1">  1       -2 0.32013804E-02 0.97034594E+02</pdfrwt>
<totfact> 0.10736571E+05</totfact>
</mgrwt>
</event>
<event>
 7    1  0.3337990E-009  0.8904812E+02  0.7818608E-02  0.1305173E+00
         -2   -1    0    0    0  501 -0.00000000000E+00  0.00000000000E+00  0.84498161979E+01  0.84498165827E+01  0.25500000000E-02 0.  1.
          2   -1    0    0  501    0  0.00000000000E+00 -0.00000000000E+00 -0.23460767340E+03  0.23460767341E+03  0.25500000000E-02 0. -1.
         23    2    1    2    0    0  0.00000000000E+00  0.00000000000E+00 -0.22615785720E+03  0.24305748999E+03  0.89048116595E+02 0.  0.
    9000005    2    3    3    0    0 -0.76842800164E+01 -0.42793900297E+02 -0.13179413067E+03  0.13915908314E+03  0.10256289755E+02 0.  0.
         22    1    3    3    0    0  0.76842800164E+01  0.42793900297E+02 -0.94363726528E+02  0.10389840685E+03  0.00000000000E+00 0. -1.
         22    1    4    4    0    0 -0.42595491136E+01 -0.39883196508E+02 -0.11605487113E+03  0.12279066021E+03  0.00000000000E+00 0. -1.
         22    1    4    4    0    0 -0.34247309028E+01 -0.29107037895E+01 -0.15739259543E+02  0.16368422932E+02  0.00000000000E+00 0. -1.
<mgrwt>
<rscale>  0 0.89048117E+02</rscale>
<asrwt>0</asrwt>
<pdfrwt beam="2">  1        2 0.36093483E-01 0.89048117E+02</pdfrwt>
<pdfrwt beam="1">  1       -2 0.12999719E-02 0.89048117E+02</pdfrwt>
<totfact> 0.17466969E+05</totfact>
</mgrwt>
</event>
<event>
 7    1  0.3337990E-009  0.8656944E+02  0.7818608E-02  0.1311379E+00
          2   -1    0    0  501    0  0.00000000000E+00  0.00000000000E+00  0.12494001144E+03  0.12494001147E+03  0.25500000000E-02 0. -1.
         -2   -1    0    0    0  501 -0.00000000000E+00 -0.00000000000E+00 -0.14995732984E+02  0.14995733201E+02  0.25500000000E-02 0.  1.
         23    2    1    2    0    0 -0.71054273576E-14  0.17763568394E-14  0.10994427846E+03  0.13993574467E+03  0.86569441898E+02 0.  0.
    9000005    2    3    3    0    0  0.39222029794E+02 -0.15140899687E+02  0.50108070463E+02  0.66805817473E+02  0.13586171583E+02 0.  0.
         22    1    3    3    0    0 -0.39222029794E+02  0.15140899687E+02  0.59836207996E+02  0.73129927197E+02  0.00000000000E+00 0.  1.
         22    1    4    4    0    0  0.38995022333E+02 -0.11954239709E+02  0.47951777134E+02  0.62951477696E+02  0.00000000000E+00 0. -1.
         22    1    4    4    0    0  0.22700746090E+00 -0.31866599777E+01  0.21562933288E+01  0.38543397775E+01  0.00000000000E+00 0. -1.
<mgrwt>
<rscale>  0 0.86569442E+02</rscale>
<asrwt>0</asrwt>
<pdfrwt beam="1">  1        2 0.19221542E-01 0.86569442E+02</pdfrwt>
<pdfrwt beam="2">  1       -2 0.23070357E-02 0.86569442E+02</pdfrwt>
<totfact> 0.15148248E+05</totfact>
</mgrwt>
</event>
<event>
 7    1  0.3337990E-009  0.9182565E+02  0.7818608E-02  0.1298490E+00
         -2   -1    0    0    0  501 -0.00000000000E+00  0.00000000000E+00  0.70756558496E+02  0.70756558542E+02  0.25500000000E-02 0.  1.
          2   -1    0    0  501    0  0.00000000000E+00 -0.00000000000E+00 -0.29792116959E+02  0.29792117068E+02  0.25500000000E-02 0. -1.
         23    2    1    2    0    0  0.00000000000E+00 -0.71054273576E-14  0.40964441537E+02  0.10054867561E+03  0.91825653804E+02 0.  0.
    9000005    2    3    3    0    0 -0.38401730857E+01  0.38731489940E+02  0.47017032399E+02  0.61159475334E+02  0.38736087997E+01 0.  0.
         22    1    3    3    0    0  0.38401730857E+01 -0.38731489940E+02 -0.60525908621E+01  0.39389200277E+02  0.00000000000E+00 0.  1.
         22    1    4    4    0    0 -0.31593557929E+01  0.32968103066E+02  0.37685038027E+02  0.50170105042E+02  0.00000000000E+00 0.  1.
         22    1    4    4    0    0 -0.68081729278E+00  0.57633868740E+01  0.93319943725E+01  0.10989370292E+02  0.00000000000E+00 0.  1.
<mgrwt>
<rscale>  0 0.91825654E+02</rscale>
<asrwt>0</asrwt>
<pdfrwt beam="2">  1        2 0.45834026E-02 0.91825654E+02</pdfrwt>
<pdfrwt beam="1">  1       -2 0.10885625E-01 0.91825654E+02</pdfrwt>
<totfact> 0.86458555E+04</totfact>
</mgrwt>
</event>
<event>
 7    1  0.3337990E-009  0.1186822E+03  0.7818608E-02  0.1245287E+00
         -2   -1    0    0    0  501 -0.00000000000E+00  0.00000000000E+00  0.23173237065E+03  0.23173237066E+03  0.25500000000E-02 0. -1.
          2   -1    0    0  501    0  0.00000000000E+00 -0.00000000000E+00 -0.15195830570E+02  0.15195830784E+02  0.25500000000E-02 0.  1.
         23    2    1    2    0    0  0.00000000000E+00  0.00000000000E+00  0.21653654008E+03  0.24692820145E+03  0.11868219530E+03 0.  0.
    9000005    2    3    3    0    0  0.57291441607E+02  0.12711496513E+01  0.13863269225E+03  0.15021763011E+03  0.78986031036E+01 0.  0.
         22    1    3    3    0    0 -0.57291441607E+02 -0.12711496513E+01  0.77903847827E+02  0.96710571341E+02  0.00000000000E+00 0.  1.
         22    1    4    4    0    0  0.59267654010E+01  0.20102673732E+01  0.11378807343E+02  0.12986338190E+02  0.00000000000E+00 0.  1.
         22    1    4    4    0    0  0.51364676206E+02 -0.73911772186E+00  0.12725388491E+03  0.13723129192E+03  0.00000000000E+00 0.  1.
<mgrwt>
<rscale>  0 0.11868220E+03</rscale>
<asrwt>0</asrwt>
<pdfrwt beam="2">  1        2 0.23378201E-02 0.11868220E+03</pdfrwt>
<pdfrwt beam="1">  1       -2 0.35651133E-01 0.11868220E+03</pdfrwt>
<totfact> 0.29586815E+04</totfact>
</mgrwt>
</event>
<event>
 7    1  0.3337990E-009  0.9582154E+02  0.7818608E-02  0.1289336E+00
         -2   -1    0    0    0  501 -0.00000000000E+00  0.00000000000E+00  0.29225540016E+03  0.29225540017E+03  0.25500000000E-02 0. -1.
          2   -1    0    0  501    0  0.00000000000E+00 -0.00000000000E+00 -0.78542328598E+01  0.78542332738E+01  0.25500000000E-02 0.  1.
         23    2    1    2    0    0  0.17763568394E-14  0.00000000000E+00  0.28440116730E+03  0.30010963344E+03  0.95821543114E+02 0.  0.
    9000005    2    3    3    0    0 -0.13913965382E+02 -0.18524775263E+02  0.27313995981E+03  0.27434957666E+03  0.11202090812E+02 0.  0.
         22    1    3    3    0    0  0.13913965382E+02  0.18524775263E+02  0.11261207486E+02  0.25760056778E+02  0.00000000000E+00 0.  1.
         22    1    4    4    0    0 -0.53531713684E+01 -0.13740310369E+02  0.20189329770E+03  0.20243111477E+03  0.00000000000E+00 0. -1.
         22    1    4    4    0    0 -0.85607940135E+01 -0.47844648938E+01  0.71246662117E+02  0.71918461895E+02  0.00000000000E+00 0. -1.
<mgrwt>
<rscale>  0 0.95821543E+02</rscale>
<asrwt>0</asrwt>
<pdfrwt beam="2">  1        2 0.12083434E-02 0.95821543E+02</pdfrwt>
<pdfrwt beam="1">  1       -2 0.44962375E-01 0.95821543E+02</pdfrwt>
<totfact> 0.45527582E+04</totfact>
</mgrwt>
</event>
<event>
 7    1  0.3337990E-009  0.8935386E+02  0.7818608E-02  0.1304424E+00
         -2   -1    0    0    0  501 -0.00000000000E+00  0.00000000000E+00  0.85650706955E+01  0.85650710751E+01  0.25500000000E-02 0.  1.
          2   -1    0    0  501    0  0.00000000000E+00 -0.00000000000E+00 -0.23304278949E+03  0.23304278950E+03  0.25500000000E-02 0. -1.
         23    2    1    2    0    0  0.00000000000E+00  0.00000000000E+00 -0.22447771879E+03  0.24160786058E+03  0.89353858665E+02 0.  0.
    9000005    2    3    3    0    0  0.27890765315E+02  0.32757532004E+02 -0.94196219971E+02  0.10440647710E+03  0.13297891216E+02 0.  0.
         22    1    3    3    0    0 -0.27890765315E+02 -0.32757532004E+02 -0.13028149882E+03  0.13720138348E+03  0.00000000000E+00 0. -1.
         22    1    4    4    0    0  0.20146216858E+02  0.18954694661E+02 -0.72121728715E+02  0.77244380094E+02  0.00000000000E+00 0. -1.
         22    1    4    4    0    0  0.77445484568E+01  0.13802837343E+02 -0.22074491256E+02  0.27162097006E+02  0.00000000000E+00 0. -1.
<mgrwt>
<rscale>  0 0.89353859E+02</rscale>
<asrwt>0</asrwt>
<pdfrwt beam="2">  1        2 0.35852732E-01 0.89353859E+02</pdfrwt>
<pdfrwt beam="1">  1       -2 0.13177034E-02 0.89353859E+02</pdfrwt>
<totfact> 0.17265189E+05</totfact>
</mgrwt>
</event>
<event>
 7    1  0.3337990E-009  0.9245903E+02  0.7818608E-02  0.1297004E+00
         -2   -1    0    0    0  501 -0.00000000000E+00  0.00000000000E+00  0.36758128897E+02  0.36758128985E+02  0.25500000000E-02 0.  1.
          2   -1    0    0  501    0  0.00000000000E+00 -0.00000000000E+00 -0.58141370948E+02  0.58141371004E+02  0.25500000000E-02 0. -1.
         23    2    1    2    0    0  0.00000000000E+00  0.00000000000E+00 -0.21383242051E+02  0.94899499989E+02  0.92459029075E+02 0.  0.
    9000005    2    3    3    0    0 -0.16803200770E+02 -0.73838995118E+01 -0.54098874373E+02  0.57387073697E+02  0.54514668700E+01 0.  0.
         22    1    3    3    0    0  0.16803200770E+02  0.73838995118E+01  0.32715632321E+02  0.37512426292E+02  0.00000000000E+00 0.  1.
         22    1    4    4    0    0 -0.43567846053E+00  0.61819582070E+00 -0.41698395271E+01  0.42378701580E+01  0.00000000000E+00 0. -1.
         22    1    4    4    0    0 -0.16367522309E+02 -0.80020953325E+01 -0.49929034845E+02  0.53149203539E+02  0.00000000000E+00 0. -1.
<mgrwt>
<rscale>  0 0.92459029E+02</rscale>
<asrwt>0</asrwt>
<pdfrwt beam="2">  1        2 0.89448263E-02 0.92459029E+02</pdfrwt>
<pdfrwt beam="1">  1       -2 0.56550968E-02 0.92459029E+02</pdfrwt>
<totfact> 0.10110159E+05</totfact>
</mgrwt>
</event>
<event>
 7    1  0.3337990E-009  0.8855918E+02  0.7818608E-02  0.1306379E+00
         -2   -1    0    0    0  501 -0.00000000000E+00  0.00000000000E+00  0.27449693253E+01  0.27449705097E+01  0.25500000000E-02 0.  1.
          2   -1    0    0  501    0  0.00000000000E+00 -0.00000000000E+00 -0.71428188595E+03  0.71428188596E+03  0.25500000000E-02 0. -1.
         23    2    1    2    0    0  0.00000000000E+00  0.00000000000E+00 -0.71153691663E+03  0.71702685647E+03  0.88559184568E+02 0.  0.
    9000005    2    3    3    0    0 -0.19682320148E+02  0.86487079039E+01 -0.66831441180E+03  0.66875285934E+03  0.11137323946E+02 0.  0.
         22    1    3    3    0    0  0.19682320148E+02 -0.86487079039E+01 -0.43222504827E+02  0.48273997124E+02  0.00000000000E+00 0.  1.
         22    1    4    4    0    0 -0.15298399836E+02  0.14323515283E+01 -0.36985025280E+03  0.37016928852E+03  0.00000000000E+00 0.  1.
         22    1    4    4    0    0 -0.43839203111E+01  0.72163563756E+01 -0.29846415900E+03  0.29858357082E+03  0.00000000000E+00 0.  1.
<mgrwt>
<rscale>  0 0.88559185E+02</rscale>
<asrwt>0</asrwt>
<pdfrwt beam="2">  1        2 0.10988937E+00 0.88559185E+02</pdfrwt>
<pdfrwt beam="1">  1       -2 0.42230363E-03 0.88559185E+02</pdfrwt>
<totfact> 0.25723340E+05</totfact>
</mgrwt>
</event>
<event>
 6    1  0.3337990E-009  0.2445964E+03  0.7818608E-02  0.1116768E+00
         -2   -1    0    0    0  501 -0.00000000000E+00  0.00000000000E+00  0.89967101708E+01  0.89967105322E+01  0.25500000000E-02 0. -1.
          2   -1    0    0  501    0  0.00000000000E+00 -0.00000000000E+00 -0.16624803897E+04  0.16624803897E+04  0.25500000000E-02 0.  1.
    9000005    2    1    2    0    0  0.53457319680E+02 -0.38262696413E+01 -0.15778079189E+04  0.15787455192E+04  0.93413190120E+01 0.  0.
         22    1    1    2    0    0 -0.53457319680E+02  0.38262696413E+01 -0.75675760678E+02  0.92731581033E+02  0.00000000000E+00 0. -1.
         22    1    3    3    0    0  0.31133505587E+02 -0.13481504662E+01 -0.10446319951E+04  0.10450967027E+04  0.00000000000E+00 0.  1.
         22    1    3    3    0    0  0.22323814093E+02 -0.24781191751E+01 -0.53317592375E+03  0.53364881656E+03  0.00000000000E+00 0.  1.
<mgrwt>
<rscale>  0 0.24459644E+03</rscale>
<asrwt>0</asrwt>
<pdfrwt beam="2">  1        2 0.25576597E+00 0.24459644E+03</pdfrwt>
<pdfrwt beam="1">  1       -2 0.13841106E-02 0.24459644E+03</pdfrwt>
<totfact> 0.14784794E+04</totfact>
</mgrwt>
</event>
<event>
 7    1  0.3337990E-009  0.9156243E+02  0.7818608E-02  0.1299112E+00
          2   -1    0    0  501    0  0.00000000000E+00  0.00000000000E+00  0.53684163064E+03  0.53684163064E+03  0.25500000000E-02 0. -1.
         -2   -1    0    0    0  501 -0.00000000000E+00 -0.00000000000E+00 -0.39041671521E+01  0.39041679848E+01  0.25500000000E-02 0.  1.
         23    2    1    2    0    0  0.00000000000E+00  0.00000000000E+00  0.53293746348E+03  0.54074579863E+03  0.91562430876E+02 0.  0.
    9000005    2    3    3    0    0 -0.23973780815E+02 -0.38119418436E+02  0.30794238458E+03  0.31128857438E+03  0.66507209982E+01 0.  0.
         22    1    3    3    0    0  0.23973780815E+02  0.38119418436E+02  0.22499507891E+03  0.22945722425E+03  0.00000000000E+00 0.  1.
         22    1    4    4    0    0 -0.21017893518E+02 -0.34875292168E+02  0.26315540854E+03  0.26628707609E+03  0.00000000000E+00 0. -1.
         22    1    4    4    0    0 -0.29558872970E+01 -0.32441262675E+01  0.44786976042E+02  0.45001498285E+02  0.00000000000E+00 0. -1.
<mgrwt>
<rscale>  0 0.91562431E+02</rscale>
<asrwt>0</asrwt>
<pdfrwt beam="1">  1        2 0.82590960E-01 0.91562431E+02</pdfrwt>
<pdfrwt beam="2">  1       -2 0.60064160E-03 0.91562431E+02</pdfrwt>
<totfact> 0.21797472E+05</totfact>
</mgrwt>
</event>
<event>
 7    1  0.3337990E-009  0.9335046E+02  0.7818608E-02  0.1294935E+00
          2   -1    0    0  501    0  0.00000000000E+00  0.00000000000E+00  0.12562275685E+02  0.12562275944E+02  0.25500000000E-02 0. -1.
         -2   -1    0    0    0  501 -0.00000000000E+00 -0.00000000000E+00 -0.17342218531E+03  0.17342218532E+03  0.25500000000E-02 0.  1.
         23    2    1    2    0    0  0.00000000000E+00 -0.17763568394E-14 -0.16085990962E+03  0.18598446127E+03  0.93350464969E+02 0.  0.
    9000005    2    3    3    0    0 -0.37849594350E+02  0.10294569107E+02 -0.35104364751E+02  0.54253572669E+02  0.13136353269E+02 0.  0.
         22    1    3    3    0    0  0.37849594350E+02 -0.10294569107E+02 -0.12575554487E+03  0.13173088860E+03  0.00000000000E+00 0.  1.
         22    1    4    4    0    0 -0.36771642623E+02  0.12548952476E+02 -0.33298422171E+02  0.51170448782E+02  0.00000000000E+00 0.  1.
         22    1    4    4    0    0 -0.10779517267E+01 -0.22543833692E+01 -0.18059425800E+01  0.30831238870E+01  0.00000000000E+00 0.  1.
<mgrwt>
<rscale>  0 0.93350465E+02</rscale>
<asrwt>0</asrwt>
<pdfrwt beam="1">  1        2 0.19326579E-02 0.93350465E+02</pdfrwt>
<pdfrwt beam="2">  1       -2 0.26680334E-01 0.93350465E+02</pdfrwt>
<totfact> 0.62263679E+04</totfact>
</mgrwt>
</event>
<event>
 7    1  0.3337990E-009  0.8803213E+02  0.7818608E-02  0.1307688E+00
          2   -1    0    0  501    0  0.00000000000E+00  0.00000000000E+00  0.11941812213E+04  0.11941812213E+04  0.25500000000E-02 0. -1.
         -2   -1    0    0    0  501 -0.00000000000E+00 -0.00000000000E+00 -0.16223773935E+01  0.16223793975E+01  0.25500000000E-02 0.  1.
         23    2    1    2    0    0  0.00000000000E+00 -0.11102230246E-15  0.11925588439E+04  0.11958036007E+04  0.88032126339E+02 0.  0.
    9000005    2    3    3    0    0 -0.13700925136E+02  0.99249234019E+00  0.11632133462E+04  0.11634020787E+04  0.15824272885E+02 0.  0.
         22    1    3    3    0    0  0.13700925136E+02 -0.99249234019E+00  0.29345497698E+02  0.32401521967E+02  0.00000000000E+00 0.  1.
         22    1    4    4    0    0 -0.11146379714E+02 -0.15107240893E+01  0.34967332257E+03  0.34985419332E+03  0.00000000000E+00 0.  1.
         22    1    4    4    0    0 -0.25545454222E+01  0.25032164295E+01  0.81354002360E+03  0.81354788537E+03  0.00000000000E+00 0.  1.
<mgrwt>
<rscale>  0 0.88032126E+02</rscale>
<asrwt>0</asrwt>
<pdfrwt beam="1">  1        2 0.18371994E+00 0.88032126E+02</pdfrwt>
<pdfrwt beam="2">  1       -2 0.24959701E-03 0.88032126E+02</pdfrwt>
<totfact> 0.27286243E+05</totfact>
</mgrwt>
</event>
<event>
 7    1  0.3337990E-009  0.1278175E+03  0.7818608E-02  0.1230731E+00
         -2   -1    0    0    0  501 -0.00000000000E+00  0.00000000000E+00  0.50074570237E+01  0.50074576730E+01  0.25500000000E-02 0.  1.
          2   -1    0    0  501    0  0.00000000000E+00 -0.00000000000E+00 -0.81564909913E+03  0.81564909914E+03  0.25500000000E-02 0. -1.
         23    2    1    2    0    0 -0.71054273576E-14 -0.44408920985E-15 -0.81064164211E+03  0.82065655681E+03  0.12781749612E+03 0.  0.
    9000005    2    3    3    0    0 -0.35530344081E+02 -0.25271224193E+01 -0.74583990745E+03  0.74671024850E+03  0.54987241993E+01 0.  0.
         22    1    3    3    0    0  0.35530344081E+02  0.25271224193E+01 -0.64801734662E+02  0.73946308315E+02  0.00000000000E+00 0.  1.
         22    1    4    4    0    0 -0.31811200366E+02 -0.28452173371E+01 -0.69502125178E+03  0.69575468964E+03  0.00000000000E+00 0. -1.
         22    1    4    4    0    0 -0.37191437155E+01  0.31809491777E+00 -0.50818655669E+02  0.50955558856E+02  0.00000000000E+00 0. -1.
<mgrwt>
<rscale>  0 0.12781750E+03</rscale>
<asrwt>0</asrwt>
<pdfrwt beam="2">  1        2 0.12548437E+00 0.12781750E+03</pdfrwt>
<pdfrwt beam="1">  1       -2 0.77037870E-03 0.12781750E+03</pdfrwt>
<totfact> 0.98912794E+04</totfact>
</mgrwt>
</event>
<event>
 7    1  0.3337990E-009  0.9387905E+02  0.7818608E-02  0.1293721E+00
          2   -1    0    0  501    0  0.00000000000E+00  0.00000000000E+00  0.77972058844E+03  0.77972058844E+03  0.25500000000E-02 0.  1.
         -2   -1    0    0    0  501 -0.00000000000E+00 -0.00000000000E+00 -0.28257794959E+01  0.28257806465E+01  0.25500000000E-02 0. -1.
         23    2    1    2    0    0  0.00000000000E+00  0.00000000000E+00  0.77689480894E+03  0.78254636909E+03  0.93879047783E+02 0.  0.
    9000005    2    3    3    0    0  0.34634549244E+02 -0.20298646532E+02  0.58407205594E+03  0.58558901044E+03  0.12756784870E+02 0.  0.
         22    1    3    3    0    0 -0.34634549244E+02  0.20298646532E+02  0.19282275300E+03  0.19695735865E+03  0.00000000000E+00 0. -1.
         22    1    4    4    0    0  0.22053799844E+02 -0.57364739298E+01  0.33572240194E+03  0.33649488612E+03  0.00000000000E+00 0.  1.
         22    1    4    4    0    0  0.12580749400E+02 -0.14562172602E+02  0.24834965400E+03  0.24909412432E+03  0.00000000000E+00 0.  1.
<mgrwt>
<rscale>  0 0.93879048E+02</rscale>
<asrwt>0</asrwt>
<pdfrwt beam="1">  1        2 0.11995718E+00 0.93879048E+02</pdfrwt>
<pdfrwt beam="2">  1       -2 0.43473479E-03 0.93879048E+02</pdfrwt>
<totfact> 0.22460183E+05</totfact>
</mgrwt>
</event>
<event>
 6    1  0.3337990E-009  0.4046556E+03  0.7818608E-02  0.1042179E+00
         -2   -1    0    0    0  501 -0.00000000000E+00  0.00000000000E+00  0.74243801862E+02  0.74243801906E+02  0.25500000000E-02 0.  1.
          2   -1    0    0  501    0  0.00000000000E+00 -0.00000000000E+00 -0.55137998069E+03  0.55137998070E+03  0.25500000000E-02 0. -1.
    9000005    2    1    2    0    0 -0.11973388159E+03  0.15708596705E+03 -0.17093853431E+03  0.26124869982E+03  0.43240261166E+01 0.  0.
         22    1    1    2    0    0  0.11973388159E+03 -0.15708596705E+03 -0.30619764453E+03  0.36437508279E+03  0.00000000000E+00 0. -1.
         22    1    3    3    0    0 -0.10741962274E+03  0.14289836418E+03 -0.15524715315E+03  0.23677118996E+03  0.00000000000E+00 0.  1.
         22    1    3    3    0    0 -0.12314258847E+02  0.14187602869E+02 -0.15691381155E+02  0.24477509854E+02  0.00000000000E+00 0.  1.
<mgrwt>
<rscale>  0 0.40465564E+03</rscale>
<asrwt>0</asrwt>
<pdfrwt beam="2">  1        2 0.84827687E-01 0.40465564E+03</pdfrwt>
<pdfrwt beam="1">  1       -2 0.11422124E-01 0.40465564E+03</pdfrwt>
<totfact> 0.29995253E+03</totfact>
</mgrwt>
</event>
<event>
 7    1  0.3337990E-009  0.9110850E+02  0.7818608E-02  0.1300189E+00
         -2   -1    0    0    0  501 -0.00000000000E+00  0.00000000000E+00  0.31442188535E+03  0.31442188536E+03  0.25500000000E-02 0. -1.
          2   -1    0    0  501    0  0.00000000000E+00 -0.00000000000E+00 -0.66000170608E+01  0.66000175534E+01  0.25500000000E-02 0.  1.
         23    2    1    2    0    0  0.00000000000E+00 -0.71054273576E-14  0.30782186829E+03  0.32102190291E+03  0.91108504286E+02 0.  0.
    9000005    2    3    3    0    0 -0.22051118397E+02  0.38792771539E+02  0.12862785312E+03  0.13635564714E+03  0.75237600001E+01 0.  0.
         22    1    3    3    0    0  0.22051118397E+02 -0.38792771539E+02  0.17919401517E+03  0.18466625577E+03  0.00000000000E+00 0.  1.
         22    1    4    4    0    0  0.40363353678E+00  0.11247144752E+01  0.61164062454E+01  0.62320404396E+01  0.00000000000E+00 0.  1.
         22    1    4    4    0    0 -0.22454751934E+02  0.37668057063E+02  0.12251144687E+03  0.13012360671E+03  0.00000000000E+00 0.  1.
<mgrwt>
<rscale>  0 0.91108504E+02</rscale>
<asrwt>0</asrwt>
<pdfrwt beam="2">  1        2 0.10153872E-02 0.91108504E+02</pdfrwt>
<pdfrwt beam="1">  1       -2 0.48372599E-01 0.91108504E+02</pdfrwt>
<totfact> 0.49748149E+04</totfact>
</mgrwt>
</event>
<event>
 7    1  0.3337990E-009  0.9439766E+02  0.7818608E-02  0.1292538E+00
          2   -1    0    0  501    0  0.00000000000E+00  0.00000000000E+00  0.21900045090E+02  0.21900045238E+02  0.25500000000E-02 0.  1.
         -2   -1    0    0    0  501 -0.00000000000E+00 -0.00000000000E+00 -0.10172260442E+03  0.10172260445E+03  0.25500000000E-02 0. -1.
         23    2    1    2    0    0  0.00000000000E+00  0.00000000000E+00 -0.79822559326E+02  0.12362264969E+03  0.94397661719E+02 0.  0.
    9000005    2    3    3    0    0 -0.17560020308E+02 -0.12332218748E+02  0.14490923833E+02  0.26898965730E+02  0.72890020826E+01 0.  0.
         22    1    3    3    0    0  0.17560020308E+02  0.12332218748E+02 -0.94313483159E+02  0.96723683956E+02  0.00000000000E+00 0. -1.
         22    1    4    4    0    0 -0.77937401023E+01 -0.73280928589E+01  0.11093684347E+02  0.15411462037E+02  0.00000000000E+00 0.  1.
         22    1    4    4    0    0 -0.97662802054E+01 -0.50041258893E+01  0.33972394851E+01  0.11487503692E+02  0.00000000000E+00 0.  1.
<mgrwt>
<rscale>  0 0.94397662E+02</rscale>
<asrwt>0</asrwt>
<pdfrwt beam="1">  1        2 0.33692378E-02 0.94397662E+02</pdfrwt>
<pdfrwt beam="2">  1       -2 0.15649631E-01 0.94397662E+02</pdfrwt>
<totfact> 0.72819349E+04</totfact>
</mgrwt>
</event>
<event>
 7    1  0.3337990E-009  0.8678858E+02  0.7818608E-02  0.1310820E+00
          2   -1    0    0  501    0  0.00000000000E+00  0.00000000000E+00  0.39419884561E+02  0.39419884643E+02  0.25500000000E-02 0. -1.
         -2   -1    0    0    0  501 -0.00000000000E+00 -0.00000000000E+00 -0.47769405490E+02  0.47769405558E+02  0.25500000000E-02 0.  1.
         23    2    1    2    0    0  0.00000000000E+00  0.88817841970E-15 -0.83495209291E+01  0.87189290201E+02  0.86788581196E+02 0.  0.
    9000005    2    3    3    0    0 -0.34814335295E+02  0.36907096105E+01  0.19124790932E+02  0.42686513977E+02  0.15189521648E+02 0.  0.
         22    1    3    3    0    0  0.34814335295E+02 -0.36907096105E+01 -0.27474311861E+02  0.44502776224E+02  0.00000000000E+00 0.  1.
         22    1    4    4    0    0 -0.22827697336E+02  0.89901468045E+01  0.90285629360E+01  0.26142713209E+02  0.00000000000E+00 0.  1.
         22    1    4    4    0    0 -0.11986637959E+02 -0.52994371939E+01  0.10096227996E+02  0.16543800769E+02  0.00000000000E+00 0.  1.
<mgrwt>
<rscale>  0 0.86788581E+02</rscale>
<asrwt>0</asrwt>
<pdfrwt beam="1">  1        2 0.60645976E-02 0.86788581E+02</pdfrwt>
<pdfrwt beam="2">  1       -2 0.73491393E-02 0.86788581E+02</pdfrwt>
<totfact> 0.10954546E+05</totfact>
</mgrwt>
</event>
<event>
 7    1  0.3337990E-009  0.9191976E+02  0.7818608E-02  0.1298268E+00
         -2   -1    0    0    0  501 -0.00000000000E+00  0.00000000000E+00  0.33379518346E+01  0.33379528086E+01  0.25500000000E-02 0.  1.
          2   -1    0    0  501    0  0.00000000000E+00 -0.00000000000E+00 -0.63281628262E+03  0.63281628263E+03  0.25500000000E-02 0. -1.
         23    2    1    2    0    0 -0.17763568394E-14  0.00000000000E+00 -0.62947833079E+03  0.63615423544E+03  0.91919760291E+02 0.  0.
    9000005    2    3    3    0    0  0.14937639526E+02  0.42792541454E+01 -0.61392678603E+03  0.61417024956E+03  0.75862867793E+01 0.  0.
         22    1    3    3    0    0 -0.14937639526E+02 -0.42792541454E+01 -0.15551544754E+02  0.21983985873E+02  0.00000000000E+00 0.  1.
         22    1    4    4    0    0  0.10307686443E+02  0.14871233582E+01 -0.50691146042E+03  0.50701843028E+03  0.00000000000E+00 0.  1.
         22    1    4    4    0    0  0.46299530832E+01  0.27921307871E+01 -0.10701532561E+03  0.10715181928E+03  0.00000000000E+00 0.  1.
<mgrwt>
<rscale>  0 0.91919760E+02</rscale>
<asrwt>0</asrwt>
<pdfrwt beam="2">  1        2 0.97356256E-01 0.91919760E+02</pdfrwt>
<pdfrwt beam="1">  1       -2 0.51353163E-03 0.91919760E+02</pdfrwt>
<totfact> 0.22631386E+05</totfact>
</mgrwt>
</event>
<event>
 6    1  0.6020232E-009  0.6876218E+03  0.7818608E-02  0.9738638E-01
          2   -1    0    0  501    0  0.00000000000E+00  0.00000000000E+00  0.23991271011E+03  0.23991271013E+03  0.25500000000E-02 0. -1.
         -2   -1    0    0    0  501 -0.00000000000E+00 -0.00000000000E+00 -0.49270399598E+03  0.49270399598E+03  0.25500000000E-02 0.  1.
    9000005    2    1    2    0    0 -0.91956973211E+02  0.55879149878E+02 -0.47421877975E+03  0.48642836488E+03  0.12269424455E+02 0.  0.
         22    1    1    2    0    0  0.91956973211E+02 -0.55879149878E+02  0.22142749388E+03  0.24618834124E+03  0.00000000000E+00 0. -1.
         22    1    3    3    0    0 -0.23580719396E+02  0.88952739691E+01 -0.12110513107E+03  0.12369975342E+03  0.00000000000E+00 0. -1.
         22    1    3    3    0    0 -0.68376253815E+02  0.46983875909E+02 -0.35311364868E+03  0.36272861145E+03  0.00000000000E+00 0. -1.
<mgrwt>
<rscale>  0 0.68762185E+03</rscale>
<asrwt>0</asrwt>
<pdfrwt beam="1">  1        2 0.36909648E-01 0.68762185E+03</pdfrwt>
<pdfrwt beam="2">  1       -2 0.75800614E-01 0.68762185E+03</pdfrwt>
<totfact> 0.22200552E+02</totfact>
</mgrwt>
</event>
<event>
 7    1  0.5785935E-009  0.9214241E+02  0.7818608E-02  0.1297745E+00
          2   -1    0    0  501    0  0.00000000000E+00  0.00000000000E+00  0.46276440370E+02  0.46276440441E+02  0.25500000000E-02 0. -1.
         -2   -1    0    0    0  501 -0.00000000000E+00 -0.00000000000E+00 -0.45866875180E+02  0.45866875251E+02  0.25500000000E-02 0.  1.
         23    2    1    2    0    0  0.00000000000E+00  0.00000000000E+00  0.40956519038E+00  0.92143315692E+02  0.92142405455E+02 0.  0.
    9000005    2    3    3    0    0 -0.37986983129E+02 -0.20744073403E+02 -0.11239572207E+02  0.47321112815E+02  0.15480060273E+02 0.  0.
         22    1    3    3    0    0  0.37986983129E+02  0.20744073403E+02  0.11649137397E+02  0.44822202877E+02  0.00000000000E+00 0.  1.
         22    1    4    4    0    0  0.84217347685E+00  0.11177588824E+01 -0.48457327924E+00  0.14810308394E+01  0.00000000000E+00 0.  1.
         22    1    4    4    0    0 -0.38829156606E+02 -0.21861832285E+02 -0.10754998928E+02  0.45840081976E+02  0.00000000000E+00 0.  1.
<mgrwt>
<rscale>  0 0.92142405E+02</rscale>
<asrwt>0</asrwt>
<pdfrwt beam="1">  1        2 0.71194524E-02 0.92142405E+02</pdfrwt>
<pdfrwt beam="2">  1       -2 0.70564424E-02 0.92142405E+02</pdfrwt>
<totfact> 0.96106402E+04</totfact>
</mgrwt>
</event>
<event>
 7    1  0.3337990E-009  0.8897882E+02  0.7818608E-02  0.1305344E+00
          2   -1    0    0  501    0  0.00000000000E+00  0.00000000000E+00  0.23250509117E+03  0.23250509118E+03  0.25500000000E-02 0. -1.
         -2   -1    0    0    0  501 -0.00000000000E+00 -0.00000000000E+00 -0.85129646752E+01  0.85129650571E+01  0.25500000000E-02 0.  1.
         23    2    1    2    0    0  0.00000000000E+00  0.00000000000E+00  0.22399212649E+03  0.24101805624E+03  0.88978821652E+02 0.  0.
    9000005    2    3    3    0    0 -0.11903981622E+02  0.51203939155E+01  0.22716675769E+03  0.22767633613E+03  0.79909335893E+01 0.  0.
         22    1    3    3    0    0  0.11903981622E+02 -0.51203939155E+01 -0.31746311987E+01  0.13341720113E+02  0.00000000000E+00 0.  1.
         22    1    4    4    0    0 -0.10087567060E+02  0.49134439640E+01  0.12749019280E+03  0.12798300747E+03  0.00000000000E+00 0.  1.
         22    1    4    4    0    0 -0.18164145627E+01  0.20694995148E+00  0.99676564888E+02  0.99693328654E+02  0.00000000000E+00 0.  1.
<mgrwt>
<rscale>  0 0.88978822E+02</rscale>
<asrwt>0</asrwt>
<pdfrwt beam="1">  1        2 0.35770011E-01 0.88978822E+02</pdfrwt>
<pdfrwt beam="2">  1       -2 0.13096870E-02 0.88978822E+02</pdfrwt>
<totfact> 0.17445649E+05</totfact>
</mgrwt>
</event>
<event>
 7    1  0.3337990E-009  0.9382435E+02  0.7818608E-02  0.1293846E+00
         -2   -1    0    0    0  501 -0.00000000000E+00  0.00000000000E+00  0.37236215043E+02  0.37236215131E+02  0.25500000000E-02 0. -1.
          2   -1    0    0  501    0  0.00000000000E+00 -0.00000000000E+00 -0.59102462605E+02  0.59102462660E+02  0.25500000000E-02 0.  1.
         23    2    1    2    0    0  0.35527136788E-14  0.00000000000E+00 -0.21866247561E+02  0.96338677790E+02  0.93824346819E+02 0.  0.
    9000005    2    3    3    0    0  0.23214145208E+02  0.82718472172E+01  0.29398990916E+02  0.39457708475E+02  0.92352637810E+01 0.  0.
         22    1    3    3    0    0 -0.23214145208E+02 -0.82718472172E+01 -0.51265238477E+02  0.56880969315E+02  0.00000000000E+00 0.  1.
         22    1    4    4    0    0  0.16574328151E+02  0.12067200023E+01  0.18887448791E+02  0.25157508793E+02  0.00000000000E+00 0. -1.
         22    1    4    4    0    0  0.66398170573E+01  0.70651272149E+01  0.10511542125E+02  0.14300199683E+02  0.00000000000E+00 0. -1.
<mgrwt>
<rscale>  0 0.93824347E+02</rscale>
<asrwt>0</asrwt>
<pdfrwt beam="2">  1        2 0.90926866E-02 0.93824347E+02</pdfrwt>
<pdfrwt beam="1">  1       -2 0.57286485E-02 0.93824347E+02</pdfrwt>
<totfact> 0.97413508E+04</totfact>
</mgrwt>
</event>
<event>
 7    1  0.3337990E-009  0.8864212E+02  0.7818608E-02  0.1306174E+00
          2   -1    0    0  501    0  0.00000000000E+00  0.00000000000E+00  0.95550985479E+03  0.95550985480E+03  0.25500000000E-02 0. -1.
         -2   -1    0    0    0  501 -0.00000000000E+00 -0.00000000000E+00 -0.20558194225E+01  0.20558210039E+01  0.25500000000E-02 0.  1.
         23    2    1    2    0    0  0.00000000000E+00  0.00000000000E+00  0.95345403537E+03  0.95756567580E+03  0.88642122643E+02 0.  0.
    9000005    2    3    3    0    0 -0.27731610773E+01 -0.34465516499E+02  0.77171923043E+03  0.77257080675E+03  0.10932454880E+02 0.  0.
         22    1    3    3    0    0  0.27731610773E+01  0.34465516499E+02  0.18173480494E+03  0.18499486905E+03  0.00000000000E+00 0.  1.
         22    1    4    4    0    0 -0.42406879714E+01 -0.22722861533E+02  0.59950259761E+03  0.59994806143E+03  0.00000000000E+00 0. -1.
         22    1    4    4    0    0  0.14675268941E+01 -0.11742654966E+02  0.17221663282E+03  0.17262274532E+03  0.00000000000E+00 0. -1.
<mgrwt>
<rscale>  0 0.88642123E+02</rscale>
<asrwt>0</asrwt>
<pdfrwt beam="1">  1        2 0.14700187E+00 0.88642123E+02</pdfrwt>
<pdfrwt beam="2">  1       -2 0.31627928E-03 0.88642123E+02</pdfrwt>
<totfact> 0.26852720E+05</totfact>
</mgrwt>
</event>
<event>
 7    1  0.3337990E-009  0.9090864E+02  0.7818608E-02  0.1300666E+00
          2   -1    0    0  501    0  0.00000000000E+00  0.00000000000E+00  0.63485811158E+02  0.63485811210E+02  0.25500000000E-02 0. -1.
         -2   -1    0    0    0  501 -0.00000000000E+00 -0.00000000000E+00 -0.32544201701E+02  0.32544201801E+02  0.25500000000E-02 0.  1.
         23    2    1    2    0    0  0.00000000000E+00  0.00000000000E+00  0.30941609457E+02  0.96030013011E+02  0.90908636570E+02 0.  0.
    9000005    2    3    3    0    0  0.33044895788E+02 -0.27283504046E+02  0.83223406394E+00  0.43657031262E+02  0.82999418285E+01 0.  0.
         22    1    3    3    0    0 -0.33044895788E+02  0.27283504046E+02  0.30109375393E+02  0.52372981749E+02  0.00000000000E+00 0.  1.
         22    1    4    4    0    0  0.55301283757E+01 -0.17809444447E+01  0.19388701390E+01  0.61248102324E+01  0.00000000000E+00 0. -1.
         22    1    4    4    0    0  0.27514767413E+02 -0.25502559602E+02 -0.11066360751E+01  0.37532221030E+02  0.00000000000E+00 0. -1.
<mgrwt>
<rscale>  0 0.90908637E+02</rscale>
<asrwt>0</asrwt>
<pdfrwt beam="1">  1        2 0.97670479E-02 0.90908637E+02</pdfrwt>
<pdfrwt beam="2">  1       -2 0.50068003E-02 0.90908637E+02</pdfrwt>
<totfact> 0.10859314E+05</totfact>
</mgrwt>
</event>
<event>
 7    1  0.3337990E-009  0.9166830E+02  0.7818608E-02  0.1298861E+00
         -2   -1    0    0    0  501 -0.00000000000E+00  0.00000000000E+00  0.19133633323E+01  0.19133650315E+01  0.25500000000E-02 0.  1.
          2   -1    0    0  501    0  0.00000000000E+00 -0.00000000000E+00 -0.10979454286E+04  0.10979454286E+04  0.25500000000E-02 0. -1.
         23    2    1    2    0    0  0.00000000000E+00  0.00000000000E+00 -0.10960320653E+04  0.10998587937E+04  0.91668303356E+02 0.  0.
    9000005    2    3    3    0    0  0.63989211895E+01 -0.31004844717E+02 -0.94042647695E+03  0.94106538790E+03  0.14137155737E+02 0.  0.
         22    1    3    3    0    0 -0.63989211895E+01  0.31004844717E+02 -0.15560558836E+03  0.15879340577E+03  0.00000000000E+00 0.  1.
         22    1    4    4    0    0  0.70500788312E+01 -0.28451947305E+02 -0.68681179304E+03  0.68743701964E+03  0.00000000000E+00 0. -1.
         22    1    4    4    0    0 -0.65115764167E+00 -0.25528974122E+01 -0.25361468391E+03  0.25362836826E+03  0.00000000000E+00 0. -1.
<mgrwt>
<rscale>  0 0.91668303E+02</rscale>
<asrwt>0</asrwt>
<pdfrwt beam="2">  1        2 0.16891418E+00 0.91668303E+02</pdfrwt>
<pdfrwt beam="1">  1       -2 0.29436460E-03 0.91668303E+02</pdfrwt>
<totfact> 0.24668712E+05</totfact>
</mgrwt>
</event>
<event>
 7    1  0.3337990E-009  0.9032448E+02  0.7818608E-02  0.1302068E+00
         -2   -1    0    0    0  501 -0.00000000000E+00  0.00000000000E+00  0.62559100820E+01  0.62559106018E+01  0.25500000000E-02 0.  1.
          2   -1    0    0  501    0  0.00000000000E+00 -0.00000000000E+00 -0.32603217980E+03  0.32603217981E+03  0.25500000000E-02 0. -1.
         23    2    1    2    0    0  0.00000000000E+00  0.00000000000E+00 -0.31977626971E+03  0.33228809041E+03  0.90324483694E+02 0.  0.
    9000005    2    3    3    0    0  0.39326048572E+02  0.56124235144E+01 -0.89990407947E+02  0.99093794462E+02  0.11969510613E+02 0.  0.
         22    1    3    3    0    0 -0.39326048572E+02 -0.56124235144E+01 -0.22978586177E+03  0.23319429595E+03  0.00000000000E+00 0. -1.
         22    1    4    4    0    0  0.23941690760E+02  0.47907865326E+01 -0.67942321037E+02  0.72196365420E+02  0.00000000000E+00 0. -1.
         22    1    4    4    0    0  0.15384357812E+02  0.82163698179E+00 -0.22048086911E+02  0.26897429041E+02  0.00000000000E+00 0. -1.
<mgrwt>
<rscale>  0 0.90324484E+02</rscale>
<asrwt>0</asrwt>
<pdfrwt beam="2">  1        2 0.50158784E-01 0.90324484E+02</pdfrwt>
<pdfrwt beam="1">  1       -2 0.96244800E-03 0.90324484E+02</pdfrwt>
<totfact> 0.18998695E+05</totfact>
</mgrwt>
</event>
<event>
 7    1  0.3337990E-009  0.9245382E+02  0.7818608E-02  0.1297016E+00
         -2   -1    0    0    0  501 -0.00000000000E+00  0.00000000000E+00  0.19871155785E+01  0.19871172146E+01  0.25500000000E-02 0.  1.
          2   -1    0    0  501    0  0.00000000000E+00 -0.00000000000E+00 -0.10753910772E+04  0.10753910772E+04  0.25500000000E-02 0. -1.
         23    2    1    2    0    0  0.35527136788E-14 -0.17763568394E-14 -0.10734039616E+04  0.10773781944E+04  0.92453820808E+02 0.  0.
    9000005    2    3    3    0    0  0.30186910052E+02 -0.10812383736E+02 -0.92140809511E+03  0.92203695515E+03  0.11450403855E+02 0.  0.
         22    1    3    3    0    0 -0.30186910052E+02  0.10812383736E+02 -0.15199586653E+03  0.15534123928E+03  0.00000000000E+00 0.  1.
         22    1    4    4    0    0  0.18495513973E+02 -0.90153459337E+01 -0.43658777796E+03  0.43707236056E+03  0.00000000000E+00 0. -1.
         22    1    4    4    0    0  0.11691396079E+02 -0.17970378023E+01 -0.48482031716E+03  0.48496459460E+03  0.00000000000E+00 0. -1.
<mgrwt>
<rscale>  0 0.92453821E+02</rscale>
<asrwt>0</asrwt>
<pdfrwt beam="2">  1        2 0.16544432E+00 0.92453821E+02</pdfrwt>
<pdfrwt beam="1">  1       -2 0.30571107E-03 0.92453821E+02</pdfrwt>
<totfact> 0.24130539E+05</totfact>
</mgrwt>
</event>
<event>
 7    1  0.3337990E-009  0.8760744E+02  0.7818608E-02  0.1308751E+00
         -2   -1    0    0    0  501 -0.00000000000E+00  0.00000000000E+00  0.97478854743E+02  0.97478854776E+02  0.25500000000E-02 0.  1.
          2   -1    0    0  501    0  0.00000000000E+00 -0.00000000000E+00 -0.19683919057E+02  0.19683919222E+02  0.25500000000E-02 0. -1.
         23    2    1    2    0    0 -0.71054273576E-14  0.00000000000E+00  0.77794935687E+02  0.11716277400E+03  0.87607440280E+02 0.  0.
    9000005    2    3    3    0    0 -0.37887015961E+02 -0.18440576924E+02  0.27972880650E+02  0.51911582256E+02  0.11698267594E+02 0.  0.
         22    1    3    3    0    0  0.37887015961E+02  0.18440576924E+02  0.49822055037E+02  0.65251191743E+02  0.00000000000E+00 0. -1.
         22    1    4    4    0    0 -0.36141925092E+02 -0.15633930664E+02  0.28438888483E+02  0.48573953056E+02  0.00000000000E+00 0.  1.
         22    1    4    4    0    0 -0.17450908697E+01 -0.28066462599E+01 -0.46600783371E+00  0.33376291994E+01  0.00000000000E+00 0.  1.
<mgrwt>
<rscale>  0 0.87607440E+02</rscale>
<asrwt>0</asrwt>
<pdfrwt beam="2">  1        2 0.30282954E-02 0.87607440E+02</pdfrwt>
<pdfrwt beam="1">  1       -2 0.14996746E-01 0.87607440E+02</pdfrwt>
<totfact> 0.88798958E+04</totfact>
</mgrwt>
</event>
<event>
 7    1  0.3337990E-009  0.9092270E+02  0.7818608E-02  0.1300633E+00
         -2   -1    0    0    0  501 -0.00000000000E+00  0.00000000000E+00  0.50418864064E+01  0.50418870512E+01  0.25500000000E-02 0. -1.
          2   -1    0    0  501    0  0.00000000000E+00 -0.00000000000E+00 -0.40991288973E+03  0.40991288974E+03  0.25500000000E-02 0.  1.
         23    2    1    2    0    0  0.00000000000E+00 -0.71054273576E-14 -0.40487100332E+03  0.41495477679E+03  0.90922700399E+02 0.  0.
    9000005    2    3    3    0    0  0.18963139678E+02 -0.39847211781E+02 -0.16972116175E+03  0.17569999847E+03  0.10854297109E+02 0.  0.
         22    1    3    3    0    0 -0.18963139678E+02  0.39847211781E+02 -0.23514984158E+03  0.23925477832E+03  0.00000000000E+00 0.  1.
         22    1    4    4    0    0  0.19359006679E+02 -0.34390254098E+02 -0.13892804962E+03  0.14442459516E+03  0.00000000000E+00 0. -1.
         22    1    4    4    0    0 -0.39586700034E+00 -0.54569576830E+01 -0.30793112129E+02  0.31275403313E+02  0.00000000000E+00 0. -1.
<mgrwt>
<rscale>  0 0.90922700E+02</rscale>
<asrwt>0</asrwt>
<pdfrwt beam="2">  1        2 0.63063495E-01 0.90922700E+02</pdfrwt>
<pdfrwt beam="1">  1       -2 0.77567521E-03 0.90922700E+02</pdfrwt>
<totfact> 0.20287032E+05</totfact>
</mgrwt>
</event>
<event>
 7    1  0.3337990E-009  0.9949223E+02  0.7818608E-02  0.1281367E+00
          2   -1    0    0  501    0  0.00000000000E+00  0.00000000000E+00  0.11719689565E+02  0.11719689842E+02  0.25500000000E-02 0. -1.
         -2   -1    0    0    0  501 -0.00000000000E+00 -0.00000000000E+00 -0.21115543455E+03  0.21115543457E+03  0.25500000000E-02 0.  1.
         23    2    1    2    0    0  0.35527136788E-14 -0.71054273576E-14 -0.19943574499E+03  0.22287512441E+03  0.99492234380E+02 0.  0.
    9000005    2    3    3    0    0 -0.31684426057E+02  0.37428782959E+02 -0.91938260227E+02  0.10472045511E+03  0.10436157136E+02 0.  0.
         22    1    3    3    0    0  0.31684426057E+02 -0.37428782959E+02 -0.10749748476E+03  0.11815466931E+03  0.00000000000E+00 0.  1.
         22    1    4    4    0    0 -0.81221952278E+00  0.40549196405E+00  0.32768427960E-02  0.90781882763E+00  0.00000000000E+00 0.  1.
         22    1    4    4    0    0 -0.30872206534E+02  0.37023290995E+02 -0.91941537070E+02  0.10381263628E+03  0.00000000000E+00 0.  1.
<mgrwt>
<rscale>  0 0.99492234E+02</rscale>
<asrwt>0</asrwt>
<pdfrwt beam="1">  1        2 0.18030293E-02 0.99492234E+02</pdfrwt>
<pdfrwt beam="2">  1       -2 0.32485449E-01 0.99492234E+02</pdfrwt>
<totfact> 0.48656659E+04</totfact>
</mgrwt>
</event>
<event>
 7    1  0.3337990E-009  0.9150268E+02  0.7818608E-02  0.1299253E+00
         -2   -1    0    0    0  501 -0.00000000000E+00  0.00000000000E+00  0.69995058784E+02  0.69995058830E+02  0.25500000000E-02 0.  1.
          2   -1    0    0  501    0  0.00000000000E+00 -0.00000000000E+00 -0.29904757362E+02  0.29904757471E+02  0.25500000000E-02 0. -1.
         23    2    1    2    0    0  0.00000000000E+00  0.00000000000E+00  0.40090301421E+02  0.99899816301E+02  0.91502683179E+02 0.  0.
    9000005    2    3    3    0    0 -0.21168090005E+02  0.19942225018E+02  0.57863240848E+02  0.65816715665E+02  0.11743297936E+02 0.  0.
         22    1    3    3    0    0  0.21168090005E+02 -0.19942225018E+02 -0.17772939426E+02  0.34083100636E+02  0.00000000000E+00 0. -1.
         22    1    4    4    0    0 -0.94714131718E+01  0.15207919138E+02  0.26280548954E+02  0.31806535889E+02  0.00000000000E+00 0.  1.
         22    1    4    4    0    0 -0.11696676833E+02  0.47343058802E+01  0.31582691894E+02  0.34010179776E+02  0.00000000000E+00 0.  1.
<mgrwt>
<rscale>  0 0.91502683E+02</rscale>
<asrwt>0</asrwt>
<pdfrwt beam="2">  1        2 0.46007319E-02 0.91502683E+02</pdfrwt>
<pdfrwt beam="1">  1       -2 0.10768471E-01 0.91502683E+02</pdfrwt>
<totfact> 0.87458500E+04</totfact>
</mgrwt>
</event>
<event>
 7    1  0.3337990E-009  0.8359330E+02  0.7818608E-02  0.1319153E+00
          2   -1    0    0  501    0  0.00000000000E+00  0.00000000000E+00  0.85297561000E+03  0.85297561000E+03  0.25500000000E-02 0. -1.
         -2   -1    0    0    0  501 -0.00000000000E+00 -0.00000000000E+00 -0.20480764047E+01  0.20480779922E+01  0.25500000000E-02 0.  1.
         23    2    1    2    0    0 -0.44408920985E-15 -0.71054273576E-14  0.85092753359E+03  0.85502368799E+03  0.83593298797E+02 0.  0.
    9000005    2    3    3    0    0  0.15530588905E+01  0.32268616834E+02  0.69001204074E+03  0.69089729930E+03  0.13371095495E+02 0.  0.
         22    1    3    3    0    0 -0.15530588905E+01 -0.32268616834E+02  0.16091549285E+03  0.16412638869E+03  0.00000000000E+00 0.  1.
         22    1    4    4    0    0  0.40016947522E+01  0.18625861943E+01  0.99595742661E+02  0.99693504023E+02  0.00000000000E+00 0.  1.
         22    1    4    4    0    0 -0.24486358617E+01  0.30406030640E+02  0.59041629808E+03  0.59120379528E+03  0.00000000000E+00 0.  1.
<mgrwt>
<rscale>  0 0.83593299E+02</rscale>
<asrwt>0</asrwt>
<pdfrwt beam="1">  1        2 0.13122703E+00 0.83593299E+02</pdfrwt>
<pdfrwt beam="2">  1       -2 0.31508877E-03 0.83593299E+02</pdfrwt>
<totfact> 0.30923053E+05</totfact>
</mgrwt>
</event>
<event>
 7    1  0.3337990E-009  0.9110834E+02  0.7818608E-02  0.1300190E+00
         -2   -1    0    0    0  501 -0.00000000000E+00  0.00000000000E+00  0.76196997635E+01  0.76197001902E+01  0.25500000000E-02 0.  1.
          2   -1    0    0  501    0  0.00000000000E+00 -0.00000000000E+00 -0.27234437481E+03  0.27234437482E+03  0.25500000000E-02 0. -1.
         23    2    1    2    0    0  0.00000000000E+00  0.00000000000E+00 -0.26472467505E+03  0.27996407501E+03  0.91108340556E+02 0.  0.
    9000005    2    3    3    0    0 -0.44460902615E+02 -0.54317075341E+01 -0.12312364654E+03  0.13144765645E+03  0.10619733569E+02 0.  0.
         22    1    3    3    0    0  0.44460902615E+02  0.54317075341E+01 -0.14160102851E+03  0.14851641856E+03  0.00000000000E+00 0.  1.
         22    1    4    4    0    0 -0.12325865578E+02 -0.31567234323E+01 -0.23210447588E+02  0.26469165878E+02  0.00000000000E+00 0.  1.
         22    1    4    4    0    0 -0.32135037037E+02 -0.22749841018E+01 -0.99913198951E+02  0.10497849057E+03  0.00000000000E+00 0.  1.
<mgrwt>
<rscale>  0 0.91108341E+02</rscale>
<asrwt>0</asrwt>
<pdfrwt beam="2">  1        2 0.41899127E-01 0.91108341E+02</pdfrwt>
<pdfrwt beam="1">  1       -2 0.11722617E-02 0.91108341E+02</pdfrwt>
<totfact> 0.17364348E+05</totfact>
</mgrwt>
</event>
<event>
 7    1  0.3337990E-009  0.9487335E+02  0.7818608E-02  0.1291462E+00
          2   -1    0    0  501    0  0.00000000000E+00  0.00000000000E+00  0.48708469640E+02  0.48708469707E+02  0.25500000000E-02 0. -1.
         -2   -1    0    0    0  501 -0.00000000000E+00 -0.00000000000E+00 -0.46198085463E+02  0.46198085534E+02  0.25500000000E-02 0.  1.
         23    2    1    2    0    0  0.00000000000E+00  0.35527136788E-14  0.25103841765E+01  0.94906555241E+02  0.94873348201E+02 0.  0.
    9000005    2    3    3    0    0  0.36476796585E+02 -0.28731258966E+02  0.10556593560E+02  0.47781366474E+02  0.39465660604E+01 0.  0.
         22    1    3    3    0    0 -0.36476796585E+02  0.28731258966E+02 -0.80462093832E+01  0.47125188767E+02  0.00000000000E+00 0.  1.
         22    1    4    4    0    0  0.18207262461E+02 -0.15899644366E+02  0.70717228224E+01  0.25185558580E+02  0.00000000000E+00 0.  1.
         22    1    4    4    0    0  0.18269534124E+02 -0.12831614600E+02  0.34848707374E+01  0.22595807894E+02  0.00000000000E+00 0.  1.
<mgrwt>
<rscale>  0 0.94873348E+02</rscale>
<asrwt>0</asrwt>
<pdfrwt beam="1">  1        2 0.74936107E-02 0.94873348E+02</pdfrwt>
<pdfrwt beam="2">  1       -2 0.71073978E-02 0.94873348E+02</pdfrwt>
<totfact> 0.89563854E+04</totfact>
</mgrwt>
</event>
<event>
 7    1  0.3337990E-009  0.9341402E+02  0.7818608E-02  0.1294789E+00
          2   -1    0    0  501    0  0.00000000000E+00  0.00000000000E+00  0.69159413596E+02  0.69159413643E+02  0.25500000000E-02 0.  1.
         -2   -1    0    0    0  501 -0.00000000000E+00 -0.00000000000E+00 -0.31543713603E+02  0.31543713706E+02  0.25500000000E-02 0. -1.
         23    2    1    2    0    0  0.00000000000E+00  0.00000000000E+00  0.37615699994E+02  0.10070312735E+03  0.93414019140E+02 0.  0.
    9000005    2    3    3    0    0  0.35382679178E+02  0.40959496442E+01 -0.13541361750E+02  0.38367296918E+02  0.44688035788E+01 0.  0.
         22    1    3    3    0    0 -0.35382679178E+02 -0.40959496442E+01  0.51157061744E+02  0.62335830431E+02  0.00000000000E+00 0.  1.
         22    1    4    4    0    0  0.31850970564E+02  0.35591215433E+01 -0.10652752438E+02  0.33773255788E+02  0.00000000000E+00 0. -1.
         22    1    4    4    0    0  0.35317086140E+01  0.53682810090E+00 -0.28886093113E+01  0.45940411293E+01  0.00000000000E+00 0. -1.
<mgrwt>
<rscale>  0 0.93414019E+02</rscale>
<asrwt>0</asrwt>
<pdfrwt beam="1">  1        2 0.10639910E-01 0.93414019E+02</pdfrwt>
<pdfrwt beam="2">  1       -2 0.48528791E-02 0.93414019E+02</pdfrwt>
<totfact> 0.10299637E+05</totfact>
</mgrwt>
</event>
<event>
 7    1  0.3337990E-009  0.9096588E+02  0.7818608E-02  0.1300529E+00
         -2   -1    0    0    0  501 -0.00000000000E+00  0.00000000000E+00  0.11382309647E+03  0.11382309650E+03  0.25500000000E-02 0.  1.
          2   -1    0    0  501    0  0.00000000000E+00 -0.00000000000E+00 -0.18174676193E+02  0.18174676372E+02  0.25500000000E-02 0. -1.
         23    2    1    2    0    0 -0.35527136788E-14  0.00000000000E+00  0.95648420274E+02  0.13199777287E+03  0.90965882291E+02 0.  0.
    9000005    2    3    3    0    0 -0.20446992973E+02  0.70441876104E+01  0.10552817564E+03  0.10822153122E+03  0.10392490811E+02 0.  0.
         22    1    3    3    0    0  0.20446992973E+02 -0.70441876104E+01 -0.98797553658E+01  0.23776241646E+02  0.00000000000E+00 0. -1.
         22    1    4    4    0    0 -0.60646242442E+01 -0.19065513932E+01  0.41782650581E+02  0.42263512573E+02  0.00000000000E+00 0. -1.
         22    1    4    4    0    0 -0.14382368729E+02  0.89507390036E+01  0.63745525059E+02  0.65958018648E+02  0.00000000000E+00 0. -1.
<mgrwt>
<rscale>  0 0.90965882E+02</rscale>
<asrwt>0</asrwt>
<pdfrwt beam="2">  1        2 0.27961040E-02 0.90965882E+02</pdfrwt>
<pdfrwt beam="1">  1       -2 0.17511246E-01 0.90965882E+02</pdfrwt>
<totfact> 0.77146592E+04</totfact>
</mgrwt>
</event>
<event>
 7    1  0.3337990E-009  0.9025143E+02  0.7818608E-02  0.1302244E+00
         -2   -1    0    0    0  501 -0.00000000000E+00  0.00000000000E+00  0.10080389004E+03  0.10080389008E+03  0.25500000000E-02 0.  1.
          2   -1    0    0  501    0  0.00000000000E+00 -0.00000000000E+00 -0.20200907761E+02  0.20200907922E+02  0.25500000000E-02 0. -1.
         23    2    1    2    0    0  0.00000000000E+00  0.00000000000E+00  0.80602982282E+02  0.12100479800E+03  0.90251428717E+02 0.  0.
    9000005    2    3    3    0    0  0.38600117284E+02 -0.23146914079E+02  0.44130247803E+02  0.63073726489E+02  0.22511144364E+01 0.  0.
         22    1    3    3    0    0 -0.38600117284E+02  0.23146914079E+02  0.36472734479E+02  0.57931071509E+02  0.00000000000E+00 0.  1.
         22    1    4    4    0    0  0.28758473949E+02 -0.18339926109E+02  0.33088425198E+02  0.47521012148E+02  0.00000000000E+00 0. -1.
         22    1    4    4    0    0  0.98416433355E+01 -0.48069879704E+01  0.11041822606E+02  0.15552714340E+02  0.00000000000E+00 0. -1.
<mgrwt>
<rscale>  0 0.90251429E+02</rscale>
<asrwt>0</asrwt>
<pdfrwt beam="2">  1        2 0.31078320E-02 0.90251429E+02</pdfrwt>
<pdfrwt beam="1">  1       -2 0.15508291E-01 0.90251429E+02</pdfrwt>
<totfact> 0.81661905E+04</totfact>
</mgrwt>
</event>
<event>
 7    1  0.3337990E-009  0.9271557E+02  0.7818608E-02  0.1296406E+00
          2   -1    0    0  501    0  0.00000000000E+00  0.00000000000E+00  0.90876798448E+03  0.90876798448E+03  0.25500000000E-02 0. -1.
         -2   -1    0    0    0  501 -0.00000000000E+00 -0.00000000000E+00 -0.23647881100E+01  0.23647894849E+01  0.25500000000E-02 0.  1.
         23    2    1    2    0    0  0.00000000000E+00  0.00000000000E+00  0.90640319637E+03  0.91113277397E+03  0.92715572639E+02 0.  0.
    9000005    2    3    3    0    0  0.34973441620E+02  0.10265835261E+02  0.73151580943E+03  0.73248751905E+03  0.96983056875E+01 0.  0.
         22    1    3    3    0    0 -0.34973441620E+02 -0.10265835261E+02  0.17488738694E+03  0.17864525492E+03  0.00000000000E+00 0. -1.
         22    1    4    4    0    0  0.23493452906E+02  0.71970043411E+01  0.57318387072E+03  0.57371028303E+03  0.00000000000E+00 0.  1.
         22    1    4    4    0    0  0.11479988714E+02  0.30688309199E+01  0.15833193871E+03  0.15877723602E+03  0.00000000000E+00 0.  1.
<mgrwt>
<rscale>  0 0.92715573E+02</rscale>
<asrwt>0</asrwt>
<pdfrwt beam="1">  1        2 0.13981037E+00 0.92715573E+02</pdfrwt>
<pdfrwt beam="2">  1       -2 0.36381389E-03 0.92715573E+02</pdfrwt>
<totfact> 0.23749275E+05</totfact>
</mgrwt>
</event>
<event>
 7    1  0.3337990E-009  0.9508329E+02  0.7818608E-02  0.1290989E+00
         -2   -1    0    0    0  501 -0.00000000000E+00  0.00000000000E+00  0.11184547146E+03  0.11184547149E+03  0.25500000000E-02 0.  1.
          2   -1    0    0  501    0  0.00000000000E+00 -0.00000000000E+00 -0.20208311446E+02  0.20208311607E+02  0.25500000000E-02 0. -1.
         23    2    1    2    0    0  0.35527136788E-14  0.00000000000E+00  0.91637160010E+02  0.13205378309E+03  0.95083292613E+02 0.  0.
    9000005    2    3    3    0    0 -0.29872612671E+02  0.28660648113E+02  0.13675905752E+02  0.43782820123E+02  0.40123810469E+01 0.  0.
         22    1    3    3    0    0  0.29872612671E+02 -0.28660648113E+02  0.77961254258E+02  0.88270962969E+02  0.00000000000E+00 0.  1.
         22    1    4    4    0    0 -0.13792724098E+02  0.15194282885E+02  0.82603856790E+01  0.22121018105E+02  0.00000000000E+00 0. -1.
         22    1    4    4    0    0 -0.16079888574E+02  0.13466365228E+02  0.54155200735E+01  0.21661802018E+02  0.00000000000E+00 0. -1.
<mgrwt>
<rscale>  0 0.95083293E+02</rscale>
<asrwt>0</asrwt>
<pdfrwt beam="2">  1        2 0.31089711E-02 0.95083293E+02</pdfrwt>
<pdfrwt beam="1">  1       -2 0.17206995E-01 0.95083293E+02</pdfrwt>
<totfact> 0.69434898E+04</totfact>
</mgrwt>
</event>
<event>
 7    1  0.3337990E-009  0.9169915E+02  0.7818608E-02  0.1298788E+00
         -2   -1    0    0    0  501 -0.00000000000E+00  0.00000000000E+00  0.20831562286E+02  0.20831562442E+02  0.25500000000E-02 0. -1.
          2   -1    0    0  501    0  0.00000000000E+00 -0.00000000000E+00 -0.10091337775E+03  0.10091337778E+03  0.25500000000E-02 0.  1.
         23    2    1    2    0    0 -0.17763568394E-14  0.00000000000E+00 -0.80081815467E+02  0.12174494023E+03  0.91699145591E+02 0.  0.
    9000005    2    3    3    0    0  0.10239709236E+02 -0.35102317036E+02 -0.75969382141E+02  0.84949065262E+02  0.10390974901E+02 0.  0.
         22    1    3    3    0    0 -0.10239709236E+02  0.35102317036E+02 -0.41124333257E+01  0.36795874964E+02  0.00000000000E+00 0. -1.
         22    1    4    4    0    0  0.26586793203E+01 -0.12726828715E+02 -0.38671191462E+02  0.40798306263E+02  0.00000000000E+00 0. -1.
         22    1    4    4    0    0  0.75810299154E+01 -0.22375488321E+02 -0.37298190679E+02  0.44150758999E+02  0.00000000000E+00 0. -1.
<mgrwt>
<rscale>  0 0.91699146E+02</rscale>
<asrwt>0</asrwt>
<pdfrwt beam="2">  1        2 0.15525135E-01 0.91699146E+02</pdfrwt>
<pdfrwt beam="1">  1       -2 0.32048558E-02 0.91699146E+02</pdfrwt>
<totfact> 0.12109548E+05</totfact>
</mgrwt>
</event>
<event>
 7    1  0.3337990E-009  0.9174272E+02  0.7818608E-02  0.1298686E+00
         -2   -1    0    0    0  501 -0.00000000000E+00  0.00000000000E+00  0.63555398868E+02  0.63555398919E+02  0.25500000000E-02 0.  1.
          2   -1    0    0  501    0  0.00000000000E+00 -0.00000000000E+00 -0.33107832361E+02  0.33107832460E+02  0.25500000000E-02 0. -1.
         23    2    1    2    0    0  0.00000000000E+00  0.00000000000E+00  0.30447566507E+02  0.96663231379E+02  0.91742716302E+02 0.  0.
    9000005    2    3    3    0    0 -0.20823110687E+02 -0.22722486713E+02  0.49973146290E+02  0.60178143919E+02  0.13197738985E+02 0.  0.
         22    1    3    3    0    0  0.20823110687E+02  0.22722486713E+02 -0.19525579783E+02  0.36485087460E+02  0.00000000000E+00 0. -1.
         22    1    4    4    0    0 -0.22256070270E+00 -0.83433687585E+01  0.10965818726E+02  0.13780802438E+02  0.00000000000E+00 0. -1.
         22    1    4    4    0    0 -0.20600549985E+02 -0.14379117954E+02  0.39007327564E+02  0.46397341481E+02  0.00000000000E+00 0. -1.
<mgrwt>
<rscale>  0 0.91742716E+02</rscale>
<asrwt>0</asrwt>
<pdfrwt beam="2">  1        2 0.50935127E-02 0.91742716E+02</pdfrwt>
<pdfrwt beam="1">  1       -2 0.97777536E-02 0.91742716E+02</pdfrwt>
<totfact> 0.89165030E+04</totfact>
</mgrwt>
</event>
<event>
 7    1  0.3337990E-009  0.9121682E+02  0.7818608E-02  0.1299931E+00
          2   -1    0    0  501    0  0.00000000000E+00  0.00000000000E+00  0.23479093549E+03  0.23479093551E+03  0.25500000000E-02 0. -1.
         -2   -1    0    0    0  501 -0.00000000000E+00 -0.00000000000E+00 -0.88594864014E+01  0.88594867684E+01  0.25500000000E-02 0.  1.
         23    2    1    2    0    0  0.71054273576E-14  0.00000000000E+00  0.22593144909E+03  0.24365042227E+03  0.91216821838E+02 0.  0.
    9000005    2    3    3    0    0  0.35406209471E+02  0.25174075686E+02  0.14426575540E+03  0.15114842617E+03  0.12079105902E+02 0.  0.
         22    1    3    3    0    0 -0.35406209471E+02 -0.25174075686E+02  0.81665693696E+02  0.92501996101E+02  0.00000000000E+00 0.  1.
         22    1    4    4    0    0  0.17481287053E+02  0.19602254563E+02  0.80405381529E+02  0.84586459671E+02  0.00000000000E+00 0. -1.
         22    1    4    4    0    0  0.17924922418E+02  0.55718211234E+01  0.63860373867E+02  0.66561966503E+02  0.00000000000E+00 0. -1.
<mgrwt>
<rscale>  0 0.91216822E+02</rscale>
<asrwt>0</asrwt>
<pdfrwt beam="1">  1        2 0.36121688E-01 0.91216822E+02</pdfrwt>
<pdfrwt beam="2">  1       -2 0.13629977E-02 0.91216822E+02</pdfrwt>
<totfact> 0.16382159E+05</totfact>
</mgrwt>
</event>
<event>
 7    1  0.3337990E-009  0.8781289E+02  0.7818608E-02  0.1308236E+00
          2   -1    0    0  501    0  0.00000000000E+00  0.00000000000E+00  0.26638814744E+03  0.26638814745E+03  0.25500000000E-02 0. -1.
         -2   -1    0    0    0  501 -0.00000000000E+00 -0.00000000000E+00 -0.72367177569E+01  0.72367182062E+01  0.25500000000E-02 0.  1.
         23    2    1    2    0    0  0.00000000000E+00  0.00000000000E+00  0.25915142968E+03  0.27362486566E+03  0.87812889713E+02 0.  0.
    9000005    2    3    3    0    0  0.33156961365E+02  0.13648656762E+02  0.57912370873E+02  0.69216380734E+02  0.12304257127E+02 0.  0.
         22    1    3    3    0    0 -0.33156961365E+02 -0.13648656762E+02  0.20123905881E+03  0.20440848492E+03  0.00000000000E+00 0. -1.
         22    1    4    4    0    0  0.38170963900E+01  0.64758443561E+01  0.14467896903E+02  0.16304196570E+02  0.00000000000E+00 0.  1.
         22    1    4    4    0    0  0.29339864975E+02  0.71728124054E+01  0.43444473970E+02  0.52912184164E+02  0.00000000000E+00 0.  1.
<mgrwt>
<rscale>  0 0.87812890E+02</rscale>
<asrwt>0</asrwt>
<pdfrwt beam="1">  1        2 0.40982787E-01 0.87812890E+02</pdfrwt>
<pdfrwt beam="2">  1       -2 0.11133414E-02 0.87812890E+02</pdfrwt>
<totfact> 0.18999762E+05</totfact>
</mgrwt>
</event>
<event>
 7    1  0.3337990E-009  0.1043637E+03  0.7818608E-02  0.1271378E+00
         -2   -1    0    0    0  501 -0.00000000000E+00  0.00000000000E+00  0.61985978966E+03  0.61985978967E+03  0.25500000000E-02 0.  1.
          2   -1    0    0  501    0  0.00000000000E+00 -0.00000000000E+00 -0.43928439102E+01  0.43928446503E+01  0.25500000000E-02 0. -1.
         23    2    1    2    0    0  0.00000000000E+00  0.00000000000E+00  0.61546694575E+03  0.62425263432E+03  0.10436373958E+03 0.  0.
    9000005    2    3    3    0    0 -0.41230961832E+02 -0.12954901585E+02  0.47989449122E+03  0.48195817864E+03  0.10823195751E+02 0.  0.
         22    1    3    3    0    0  0.41230961832E+02  0.12954901585E+02  0.13557245453E+03  0.14229445568E+03  0.00000000000E+00 0. -1.
         22    1    4    4    0    0 -0.26092990402E+01  0.18398726448E+01  0.35518429356E+02  0.35661637606E+02  0.00000000000E+00 0. -1.
         22    1    4    4    0    0 -0.38621662792E+02 -0.14794774230E+02  0.44437606186E+03  0.44629654103E+03  0.00000000000E+00 0. -1.
<mgrwt>
<rscale>  0 0.10436374E+03</rscale>
<asrwt>0</asrwt>
<pdfrwt beam="2">  1        2 0.67582240E-03 0.10436374E+03</pdfrwt>
<pdfrwt beam="1">  1       -2 0.95363017E-01 0.10436374E+03</pdfrwt>
<totfact> 0.21369763E+04</totfact>
</mgrwt>
</event>
<event>
 7    1  0.3337990E-009  0.9231857E+02  0.7818608E-02  0.1297332E+00
         -2   -1    0    0    0  501 -0.00000000000E+00  0.00000000000E+00  0.43600173014E+02  0.43600173088E+02  0.25500000000E-02 0. -1.
          2   -1    0    0  501    0  0.00000000000E+00 -0.00000000000E+00 -0.48868602916E+02  0.48868602983E+02  0.25500000000E-02 0.  1.
         23    2    1    2    0    0  0.35527136788E-14  0.00000000000E+00 -0.52684299025E+01  0.92468776071E+02  0.92318569066E+02 0.  0.
    9000005    2    3    3    0    0 -0.24297612695E+02  0.28113424556E+02  0.23802442433E+02  0.45289816340E+02  0.10191789606E+02 0.  0.
         22    1    3    3    0    0  0.24297612695E+02 -0.28113424556E+02 -0.29070872336E+02  0.47178959731E+02  0.00000000000E+00 0.  1.
         22    1    4    4    0    0 -0.11179567011E+02  0.16850543532E+02  0.76243935501E+01  0.21611453280E+02  0.00000000000E+00 0.  1.
         22    1    4    4    0    0 -0.13118045683E+02  0.11262881024E+02  0.16178048883E+02  0.23678363060E+02  0.00000000000E+00 0.  1.
<mgrwt>
<rscale>  0 0.92318569E+02</rscale>
<asrwt>0</asrwt>
<pdfrwt beam="2">  1        2 0.75182466E-02 0.92318569E+02</pdfrwt>
<pdfrwt beam="1">  1       -2 0.67077189E-02 0.92318569E+02</pdfrwt>
<totfact> 0.96958249E+04</totfact>
</mgrwt>
</event>
<event>
 7    1  0.3337990E-009  0.9276422E+02  0.7818608E-02  0.1296293E+00
          2   -1    0    0  501    0  0.00000000000E+00  0.00000000000E+00  0.13831081036E+03  0.13831081039E+03  0.25500000000E-02 0. -1.
         -2   -1    0    0    0  501 -0.00000000000E+00 -0.00000000000E+00 -0.15554098773E+02  0.15554098982E+02  0.25500000000E-02 0.  1.
         23    2    1    2    0    0  0.00000000000E+00  0.00000000000E+00  0.12275671159E+03  0.15386490937E+03  0.92764217749E+02 0.  0.
    9000005    2    3    3    0    0  0.33615191059E+02  0.29538570691E+02  0.71595438354E+02  0.85894444403E+02  0.15793687279E+02 0.  0.
         22    1    3    3    0    0 -0.33615191059E+02 -0.29538570691E+02  0.51161273238E+02  0.67970464966E+02  0.00000000000E+00 0.  1.
         22    1    4    4    0    0  0.33702364091E+02  0.24173206102E+02  0.58218697859E+02  0.71481536210E+02  0.00000000000E+00 0. -1.
         22    1    4    4    0    0 -0.87173032140E-01  0.53653645891E+01  0.13376740495E+02  0.14412908193E+02  0.00000000000E+00 0. -1.
<mgrwt>
<rscale>  0 0.92764218E+02</rscale>
<asrwt>0</asrwt>
<pdfrwt beam="1">  1        2 0.21278586E-01 0.92764218E+02</pdfrwt>
<pdfrwt beam="2">  1       -2 0.23929383E-02 0.92764218E+02</pdfrwt>
<totfact> 0.12978722E+05</totfact>
</mgrwt>
</event>
<event>
 7    1  0.3337990E-009  0.9095908E+02  0.7818608E-02  0.1300546E+00
         -2   -1    0    0    0  501 -0.00000000000E+00  0.00000000000E+00  0.45108920455E+01  0.45108927663E+01  0.25500000000E-02 0. -1.
          2   -1    0    0  501    0  0.00000000000E+00 -0.00000000000E+00 -0.45853204527E+03  0.45853204528E+03  0.25500000000E-02 0.  1.
         23    2    1    2    0    0  0.71054273576E-14  0.17763568394E-14 -0.45402115323E+03  0.46304293805E+03  0.90959083640E+02 0.  0.
    9000005    2    3    3    0    0 -0.43656481919E+02 -0.87059882754E+01 -0.20726223063E+03  0.21230074270E+03  0.11501758999E+02 0.  0.
         22    1    3    3    0    0  0.43656481919E+02  0.87059882754E+01 -0.24675892260E+03  0.25074219535E+03  0.00000000000E+00 0.  1.
         22    1    4    4    0    0 -0.21714007682E+02 -0.12663364442E+01 -0.12313403963E+03  0.12504036729E+03  0.00000000000E+00 0. -1.
         22    1    4    4    0    0 -0.21942474237E+02 -0.74396518312E+01 -0.84128190998E+02  0.87260375404E+02  0.00000000000E+00 0. -1.
<mgrwt>
<rscale>  0 0.90959084E+02</rscale>
<asrwt>0</asrwt>
<pdfrwt beam="2">  1        2 0.70543355E-01 0.90959084E+02</pdfrwt>
<pdfrwt beam="1">  1       -2 0.69398381E-03 0.90959084E+02</pdfrwt>
<totfact> 0.21070904E+05</totfact>
</mgrwt>
</event>
<event>
 7    1  0.3337990E-009  0.9121024E+02  0.7818608E-02  0.1299947E+00
          2   -1    0    0  501    0  0.00000000000E+00  0.00000000000E+00  0.42991083335E+02  0.42991083411E+02  0.25500000000E-02 0. -1.
         -2   -1    0    0    0  501 -0.00000000000E+00 -0.00000000000E+00 -0.48378100241E+02  0.48378100308E+02  0.25500000000E-02 0.  1.
         23    2    1    2    0    0 -0.35527136788E-14  0.00000000000E+00 -0.53870169059E+01  0.91369183719E+02  0.91210239460E+02 0.  0.
    9000005    2    3    3    0    0  0.30865387168E+02 -0.19801165132E+02 -0.28036176339E+02  0.48267644435E+02  0.14106028855E+02 0.  0.
         22    1    3    3    0    0 -0.30865387168E+02  0.19801165132E+02  0.22649159433E+02  0.43101539283E+02  0.00000000000E+00 0. -1.
         22    1    4    4    0    0  0.16492050228E+02 -0.16453891533E+02 -0.22831155675E+02  0.32618705321E+02  0.00000000000E+00 0. -1.
         22    1    4    4    0    0  0.14373336939E+02 -0.33472735984E+01 -0.52050206638E+01  0.15648939115E+02  0.00000000000E+00 0. -1.
<mgrwt>
<rscale>  0 0.91210239E+02</rscale>
<asrwt>0</asrwt>
<pdfrwt beam="1">  1        2 0.66140128E-02 0.91210239E+02</pdfrwt>
<pdfrwt beam="2">  1       -2 0.74427847E-02 0.91210239E+02</pdfrwt>
<totfact> 0.97082926E+04</totfact>
</mgrwt>
</event>
<event>
 7    1  0.3337990E-009  0.1004271E+03  0.7818608E-02  0.1279400E+00
         -2   -1    0    0    0  501 -0.00000000000E+00  0.00000000000E+00  0.19473006212E+02  0.19473006379E+02  0.25500000000E-02 0.  1.
          2   -1    0    0  501    0  0.00000000000E+00 -0.00000000000E+00 -0.12948184877E+03  0.12948184880E+03  0.25500000000E-02 0. -1.
         23    2    1    2    0    0 -0.17763568394E-14  0.00000000000E+00 -0.11000884256E+03  0.14895485518E+03  0.10042710510E+03 0.  0.
    9000005    2    3    3    0    0 -0.88306786634E+01 -0.44958391334E+02 -0.26301202545E+02  0.53528407932E+02  0.86197078495E+01 0.  0.
         22    1    3    3    0    0  0.88306786634E+01  0.44958391334E+02 -0.83707640015E+02  0.95426447245E+02  0.00000000000E+00 0. -1.
         22    1    4    4    0    0 -0.66609187586E-01 -0.16943098607E+02 -0.66386572995E+01  0.18197384371E+02  0.00000000000E+00 0.  1.
         22    1    4    4    0    0 -0.87640694758E+01 -0.28015292727E+02 -0.19662545245E+02  0.35331023561E+02  0.00000000000E+00 0.  1.
<mgrwt>
<rscale>  0 0.10042711E+03</rscale>
<asrwt>0</asrwt>
<pdfrwt beam="2">  1        2 0.19920284E-01 0.10042711E+03</pdfrwt>
<pdfrwt beam="1">  1       -2 0.29958472E-02 0.10042711E+03</pdfrwt>
<totfact> 0.10207697E+05</totfact>
</mgrwt>
</event>
<event>
 7    1  0.3337990E-009  0.9260150E+02  0.7818608E-02  0.1296671E+00
          2   -1    0    0  501    0  0.00000000000E+00  0.00000000000E+00  0.93273408494E+02  0.93273408529E+02  0.25500000000E-02 0. -1.
         -2   -1    0    0    0  501 -0.00000000000E+00 -0.00000000000E+00 -0.22983605486E+02  0.22983605627E+02  0.25500000000E-02 0.  1.
         23    2    1    2    0    0  0.35527136788E-14  0.00000000000E+00  0.70289803008E+02  0.11625701416E+03  0.92601495310E+02 0.  0.
    9000005    2    3    3    0    0 -0.31303490388E+02  0.89059534472E+01  0.75118695599E+02  0.83354997183E+02  0.15684789118E+02 0.  0.
         22    1    3    3    0    0  0.31303490388E+02 -0.89059534472E+01 -0.48288925906E+01  0.32902016973E+02  0.00000000000E+00 0.  1.
         22    1    4    4    0    0 -0.10165046222E+02  0.74119069462E+00  0.42047318792E+02  0.43264934369E+02  0.00000000000E+00 0. -1.
         22    1    4    4    0    0 -0.21138444166E+02  0.81647627526E+01  0.33071376807E+02  0.40090062814E+02  0.00000000000E+00 0. -1.
<mgrwt>
<rscale>  0 0.92601495E+02</rscale>
<asrwt>0</asrwt>
<pdfrwt beam="1">  1        2 0.14349755E-01 0.92601495E+02</pdfrwt>
<pdfrwt beam="2">  1       -2 0.35359394E-02 0.92601495E+02</pdfrwt>
<totfact> 0.11508330E+05</totfact>
</mgrwt>
</event>
<event>
 7    1  0.3337990E-009  0.9258502E+02  0.7818608E-02  0.1296710E+00
         -2   -1    0    0    0  501 -0.00000000000E+00  0.00000000000E+00  0.58951531880E+02  0.58951531935E+02  0.25500000000E-02 0. -1.
          2   -1    0    0  501    0  0.00000000000E+00 -0.00000000000E+00 -0.36351834797E+02  0.36351834887E+02  0.25500000000E-02 0.  1.
         23    2    1    2    0    0  0.00000000000E+00  0.44408920985E-15  0.22599697082E+02  0.95303366822E+02  0.92585017251E+02 0.  0.
    9000005    2    3    3    0    0 -0.22751488218E+02  0.29297267759E+01  0.51551733562E+02  0.58365121988E+02  0.14922892356E+02 0.  0.
         22    1    3    3    0    0  0.22751488218E+02 -0.29297267759E+01 -0.28952036480E+02  0.36938244834E+02  0.00000000000E+00 0.  1.
         22    1    4    4    0    0 -0.61306767315E+01 -0.55778207908E+01  0.11506687103E+02  0.14181013012E+02  0.00000000000E+00 0.  1.
         22    1    4    4    0    0 -0.16620811487E+02  0.85075475667E+01  0.40045046459E+02  0.44184108976E+02  0.00000000000E+00 0.  1.
<mgrwt>
<rscale>  0 0.92585017E+02</rscale>
<asrwt>0</asrwt>
<pdfrwt beam="2">  1        2 0.55925900E-02 0.92585017E+02</pdfrwt>
<pdfrwt beam="1">  1       -2 0.90694665E-02 0.92585017E+02</pdfrwt>
<totfact> 0.88970714E+04</totfact>
</mgrwt>
</event>
<event>
 7    1  0.3337990E-009  0.9930840E+02  0.7818608E-02  0.1281757E+00
          2   -1    0    0  501    0  0.00000000000E+00  0.00000000000E+00  0.48390681275E+02  0.48390681342E+02  0.25500000000E-02 0. -1.
         -2   -1    0    0    0  501 -0.00000000000E+00 -0.00000000000E+00 -0.50950706837E+02  0.50950706901E+02  0.25500000000E-02 0.  1.
         23    2    1    2    0    0  0.00000000000E+00  0.00000000000E+00 -0.25600255617E+01  0.99341388243E+02  0.99308396861E+02 0.  0.
    9000005    2    3    3    0    0  0.30864867259E+02  0.25035770262E+02 -0.30224972229E+02  0.50918469107E+02  0.99855759141E+01 0.  0.
         22    1    3    3    0    0 -0.30864867259E+02 -0.25035770262E+02  0.27664946667E+02  0.48422919136E+02  0.00000000000E+00 0. -1.
         22    1    4    4    0    0  0.46428597531E+01  0.14197634942E+01 -0.75372856093E+01  0.89656315685E+01  0.00000000000E+00 0.  1.
         22    1    4    4    0    0  0.26222007506E+02  0.23616006768E+02 -0.22687686620E+02  0.41952837538E+02  0.00000000000E+00 0.  1.
<mgrwt>
<rscale>  0 0.99308397E+02</rscale>
<asrwt>0</asrwt>
<pdfrwt beam="1">  1        2 0.74447203E-02 0.99308397E+02</pdfrwt>
<pdfrwt beam="2">  1       -2 0.78385702E-02 0.99308397E+02</pdfrwt>
<totfact> 0.78324038E+04</totfact>
</mgrwt>
</event>
<event>
 7    1  0.3337990E-009  0.9175880E+02  0.7818608E-02  0.1298648E+00
         -2   -1    0    0    0  501 -0.00000000000E+00  0.00000000000E+00  0.85584778736E+02  0.85584778774E+02  0.25500000000E-02 0.  1.
          2   -1    0    0  501    0  0.00000000000E+00 -0.00000000000E+00 -0.24594554497E+02  0.24594554629E+02  0.25500000000E-02 0. -1.
         23    2    1    2    0    0 -0.35527136788E-14 -0.71054273576E-14  0.60990224239E+02  0.11017933340E+03  0.91758803699E+02 0.  0.
    9000005    2    3    3    0    0  0.18403442789E+02  0.39415453015E+02  0.13752904695E+02  0.45963844612E+02  0.55917779892E+01 0.  0.
         22    1    3    3    0    0 -0.18403442789E+02 -0.39415453015E+02  0.47237319545E+02  0.64215488791E+02  0.00000000000E+00 0.  1.
         22    1    4    4    0    0  0.10658202392E+01  0.16212629615E+01  0.19249985836E+01  0.27331457919E+01  0.00000000000E+00 0. -1.
         22    1    4    4    0    0  0.17337622550E+02  0.37794190054E+02  0.11827906111E+02  0.43230698820E+02  0.00000000000E+00 0. -1.
<mgrwt>
<rscale>  0 0.91758804E+02</rscale>
<asrwt>0</asrwt>
<pdfrwt beam="2">  1        2 0.37837776E-02 0.91758804E+02</pdfrwt>
<pdfrwt beam="1">  1       -2 0.13166889E-01 0.91758804E+02</pdfrwt>
<totfact> 0.82189968E+04</totfact>
</mgrwt>
</event>
<event>
 7    1  0.3337990E-009  0.9417987E+02  0.7818608E-02  0.1293034E+00
          2   -1    0    0  501    0  0.00000000000E+00  0.00000000000E+00  0.13264152940E+04  0.13264152940E+04  0.25500000000E-02 0. -1.
         -2   -1    0    0    0  501 -0.00000000000E+00 -0.00000000000E+00 -0.16717695013E+01  0.16717714461E+01  0.25500000000E-02 0.  1.
         23    2    1    2    0    0  0.88817841970E-15  0.00000000000E+00  0.13247435245E+04  0.13280870654E+04  0.94179868924E+02 0.  0.
    9000005    2    3    3    0    0 -0.28998615525E+01  0.15410399345E+02  0.12876594849E+04  0.12878239856E+04  0.13333388432E+02 0.  0.
         22    1    3    3    0    0  0.28998615525E+01 -0.15410399345E+02  0.37084039540E+02  0.40263079783E+02  0.00000000000E+00 0.  1.
         22    1    4    4    0    0 -0.80436660021E+01  0.10027734835E+02  0.70809777921E+03  0.70821445972E+03  0.00000000000E+00 0.  1.
         22    1    4    4    0    0  0.51438044497E+01  0.53826645102E+01  0.57956170573E+03  0.57960952593E+03  0.00000000000E+00 0.  1.
<mgrwt>
<rscale>  0 0.94179869E+02</rscale>
<asrwt>0</asrwt>
<pdfrwt beam="1">  1        2 0.20406400E+00 0.94179869E+02</pdfrwt>
<pdfrwt beam="2">  1       -2 0.25719531E-03 0.94179869E+02</pdfrwt>
<totfact> 0.22463799E+05</totfact>
</mgrwt>
</event>
<event>
 7    1  0.3337990E-009  0.1105220E+03  0.7818608E-02  0.1259606E+00
          2   -1    0    0  501    0  0.00000000000E+00  0.00000000000E+00  0.24130836624E+03  0.24130836625E+03  0.25500000000E-02 0. -1.
         -2   -1    0    0    0  501 -0.00000000000E+00 -0.00000000000E+00 -0.12655093957E+02  0.12655094214E+02  0.25500000000E-02 0.  1.
         23    2    1    2    0    0  0.00000000000E+00  0.00000000000E+00  0.22865327228E+03  0.25396346046E+03  0.11052203548E+03 0.  0.
    9000005    2    3    3    0    0 -0.50389003403E+02 -0.19544094434E+02  0.13754658529E+03  0.14803210672E+03  0.85684423798E+01 0.  0.
         22    1    3    3    0    0  0.50389003403E+02  0.19544094434E+02  0.91106686989E+02  0.10593135374E+03  0.00000000000E+00 0. -1.
         22    1    4    4    0    0 -0.55857721022E+00 -0.17028610893E+01  0.46881996991E+01  0.50190597534E+01  0.00000000000E+00 0.  1.
         22    1    4    4    0    0 -0.49830426193E+02 -0.17841233345E+02  0.13285838559E+03  0.14301304697E+03  0.00000000000E+00 0.  1.
<mgrwt>
<rscale>  0 0.11052204E+03</rscale>
<asrwt>0</asrwt>
<pdfrwt beam="1">  1        2 0.37124358E-01 0.11052204E+03</pdfrwt>
<pdfrwt beam="2">  1       -2 0.19469379E-02 0.11052204E+03</pdfrwt>
<totfact> 0.98329205E+04</totfact>
</mgrwt>
</event>
<event>
 7    1  0.3337990E-009  0.9183309E+02  0.7818608E-02  0.1298472E+00
          2   -1    0    0  501    0  0.00000000000E+00  0.00000000000E+00  0.23146919774E+03  0.23146919775E+03  0.25500000000E-02 0. -1.
         -2   -1    0    0    0  501 -0.00000000000E+00 -0.00000000000E+00 -0.91084653557E+01  0.91084657126E+01  0.25500000000E-02 0.  1.
         23    2    1    2    0    0  0.00000000000E+00  0.00000000000E+00  0.22236073238E+03  0.24057766347E+03  0.91833092361E+02 0.  0.
    9000005    2    3    3    0    0  0.41098961529E+02 -0.16650996465E+02  0.12812356287E+03  0.13642861431E+03  0.15190099347E+02 0.  0.
         22    1    3    3    0    0 -0.41098961529E+02  0.16650996465E+02  0.94237169511E+02  0.10414904915E+03  0.00000000000E+00 0.  1.
         22    1    4    4    0    0  0.28836095977E+02 -0.61175117190E+01  0.66894127497E+02  0.73101085316E+02  0.00000000000E+00 0.  1.
         22    1    4    4    0    0  0.12262865552E+02 -0.10533484746E+02  0.61229435374E+02  0.63327528996E+02  0.00000000000E+00 0.  1.
<mgrwt>
<rscale>  0 0.91833092E+02</rscale>
<asrwt>0</asrwt>
<pdfrwt beam="1">  1        2 0.35610649E-01 0.91833092E+02</pdfrwt>
<pdfrwt beam="2">  1       -2 0.14013023E-02 0.91833092E+02</pdfrwt>
<totfact> 0.16004345E+05</totfact>
</mgrwt>
</event>
<event>
 7    1  0.3337990E-009  0.9038311E+02  0.7818608E-02  0.1301927E+00
         -2   -1    0    0    0  501 -0.00000000000E+00  0.00000000000E+00  0.13386265281E+03  0.13386265284E+03  0.25500000000E-02 0.  1.
          2   -1    0    0  501    0  0.00000000000E+00 -0.00000000000E+00 -0.15256507122E+02  0.15256507335E+02  0.25500000000E-02 0. -1.
         23    2    1    2    0    0 -0.35527136788E-14  0.00000000000E+00  0.11860614569E+03  0.14911916017E+03  0.90383107575E+02 0.  0.
    9000005    2    3    3    0    0  0.27824552326E+02 -0.17903559149E+02  0.10608806855E+02  0.36167098049E+02  0.10038379154E+02 0.  0.
         22    1    3    3    0    0 -0.27824552326E+02  0.17903559149E+02  0.10799733884E+03  0.11295206212E+03  0.00000000000E+00 0.  1.
         22    1    4    4    0    0  0.84309516227E+01 -0.90854955510E+01  0.78833150810E+01  0.14689242027E+02  0.00000000000E+00 0. -1.
         22    1    4    4    0    0  0.19393600703E+02 -0.88180635980E+01  0.27254917735E+01  0.21477856021E+02  0.00000000000E+00 0. -1.
<mgrwt>
<rscale>  0 0.90383108E+02</rscale>
<asrwt>0</asrwt>
<pdfrwt beam="2">  1        2 0.23471550E-02 0.90383108E+02</pdfrwt>
<pdfrwt beam="1">  1       -2 0.20594254E-01 0.90383108E+02</pdfrwt>
<totfact> 0.74340223E+04</totfact>
</mgrwt>
</event>
<event>
 7    1  0.3337990E-009  0.8888388E+02  0.7818608E-02  0.1305577E+00
          2   -1    0    0  501    0  0.00000000000E+00  0.00000000000E+00  0.36438824013E+03  0.36438824013E+03  0.25500000000E-02 0. -1.
         -2   -1    0    0    0  501 -0.00000000000E+00 -0.00000000000E+00 -0.54202795316E+01  0.54202801314E+01  0.25500000000E-02 0.  1.
         23    2    1    2    0    0 -0.44408920985E-15  0.00000000000E+00  0.35896796059E+03  0.36980852027E+03  0.88883884525E+02 0.  0.
    9000005    2    3    3    0    0 -0.30576332114E+01  0.97661283723E+01  0.35941721209E+03  0.35956507304E+03  0.12581811792E+01 0.  0.
         22    1    3    3    0    0  0.30576332114E+01 -0.97661283723E+01 -0.44925149184E+00  0.10243447229E+02  0.00000000000E+00 0.  1.
         22    1    4    4    0    0 -0.29103997316E+01  0.77495671555E+01  0.29513314569E+03  0.29524921660E+03  0.00000000000E+00 0. -1.
         22    1    4    4    0    0 -0.14723347980E+00  0.20165612168E+01  0.64284066396E+02  0.64315856438E+02  0.00000000000E+00 0. -1.
<mgrwt>
<rscale>  0 0.88883885E+02</rscale>
<asrwt>0</asrwt>
<pdfrwt beam="1">  1        2 0.56059734E-01 0.88883885E+02</pdfrwt>
<pdfrwt beam="2">  1       -2 0.83388914E-03 0.88883885E+02</pdfrwt>
<totfact> 0.20650928E+05</totfact>
</mgrwt>
</event>
<event>
 7    1  0.3337990E-009  0.9121693E+02  0.7818608E-02  0.1299931E+00
          2   -1    0    0  501    0  0.00000000000E+00  0.00000000000E+00  0.24129863202E+02  0.24129863337E+02  0.25500000000E-02 0. -1.
         -2   -1    0    0    0  501 -0.00000000000E+00 -0.00000000000E+00 -0.86205717866E+02  0.86205717904E+02  0.25500000000E-02 0.  1.
         23    2    1    2    0    0  0.00000000000E+00  0.00000000000E+00 -0.62075854664E+02  0.11033558124E+03  0.91216932394E+02 0.  0.
    9000005    2    3    3    0    0 -0.76361872603E+01 -0.14262584037E+02 -0.82082230851E+02  0.84606458686E+02  0.12610613412E+02 0.  0.
         22    1    3    3    0    0  0.76361872603E+01  0.14262584037E+02  0.20006376187E+02  0.25729122554E+02  0.00000000000E+00 0. -1.
         22    1    4    4    0    0 -0.86608904868E+00 -0.73468482535E+01 -0.13948498172E+02  0.15788821702E+02  0.00000000000E+00 0.  1.
         22    1    4    4    0    0 -0.67700982116E+01 -0.69157357834E+01 -0.68133732679E+02  0.68817636984E+02  0.00000000000E+00 0.  1.
<mgrwt>
<rscale>  0 0.91216932E+02</rscale>
<asrwt>0</asrwt>
<pdfrwt beam="1">  1        2 0.37122867E-02 0.91216932E+02</pdfrwt>
<pdfrwt beam="2">  1       -2 0.13262418E-01 0.91216932E+02</pdfrwt>
<totfact> 0.83230597E+04</totfact>
</mgrwt>
</event>
<event>
 7    1  0.3337990E-009  0.9247378E+02  0.7818608E-02  0.1296969E+00
         -2   -1    0    0    0  501 -0.00000000000E+00  0.00000000000E+00  0.35889531954E+02  0.35889532045E+02  0.25500000000E-02 0.  1.
          2   -1    0    0  501    0  0.00000000000E+00 -0.00000000000E+00 -0.59567507303E+02  0.59567507357E+02  0.25500000000E-02 0. -1.
         23    2    1    2    0    0  0.71054273576E-14  0.00000000000E+00 -0.23677975349E+02  0.95457039402E+02  0.92473779283E+02 0.  0.
    9000005    2    3    3    0    0  0.42932094364E+02  0.85234666238E+01 -0.10679499094E-01  0.45698069330E+02  0.13133895717E+02 0.  0.
         22    1    3    3    0    0 -0.42932094364E+02 -0.85234666238E+01 -0.23667295849E+02  0.49758970072E+02  0.00000000000E+00 0. -1.
         22    1    4    4    0    0  0.37583456291E+02  0.68838838697E+01 -0.45702057192E+01  0.38481044999E+02  0.00000000000E+00 0.  1.
         22    1    4    4    0    0  0.53486380728E+01  0.16395827541E+01  0.45595262201E+01  0.72170243309E+01  0.00000000000E+00 0.  1.
<mgrwt>
<rscale>  0 0.92473779E+02</rscale>
<asrwt>0</asrwt>
<pdfrwt beam="2">  1        2 0.91642319E-02 0.92473779E+02</pdfrwt>
<pdfrwt beam="1">  1       -2 0.55214665E-02 0.92473779E+02</pdfrwt>
<totfact> 0.10171843E+05</totfact>
</mgrwt>
</event>
<event>
 7    1  0.3337990E-009  0.9191012E+02  0.7818608E-02  0.1298291E+00
          2   -1    0    0  501    0  0.00000000000E+00  0.00000000000E+00  0.20523538476E+03  0.20523538477E+03  0.25500000000E-02 0. -1.
         -2   -1    0    0    0  501 -0.00000000000E+00 -0.00000000000E+00 -0.10289978458E+02  0.10289978774E+02  0.25500000000E-02 0.  1.
         23    2    1    2    0    0  0.00000000000E+00  0.00000000000E+00  0.19494540630E+03  0.21552536355E+03  0.91910124008E+02 0.  0.
    9000005    2    3    3    0    0  0.19057047142E+02  0.12240746220E+02  0.19049743344E+03  0.19244308948E+03  0.15233634659E+02 0.  0.
         22    1    3    3    0    0 -0.19057047142E+02 -0.12240746220E+02  0.44479728569E+01  0.23082274072E+02  0.00000000000E+00 0.  1.
         22    1    4    4    0    0  0.84696048840E+01  0.53863154350E+00  0.11506930515E+03  0.11538184137E+03  0.00000000000E+00 0.  1.
         22    1    4    4    0    0  0.10587442258E+02  0.11702114677E+02  0.75428128294E+02  0.77061248104E+02  0.00000000000E+00 0.  1.
<mgrwt>
<rscale>  0 0.91910124E+02</rscale>
<asrwt>0</asrwt>
<pdfrwt beam="1">  1        2 0.31574673E-01 0.91910124E+02</pdfrwt>
<pdfrwt beam="2">  1       -2 0.15830737E-02 0.91910124E+02</pdfrwt>
<totfact> 0.15280131E+05</totfact>
</mgrwt>
</event>
<event>
 7    1  0.3337990E-009  0.9058593E+02  0.7818608E-02  0.1301439E+00
         -2   -1    0    0    0  501 -0.00000000000E+00  0.00000000000E+00  0.22440946452E+01  0.22440960940E+01  0.25500000000E-02 0.  1.
          2   -1    0    0  501    0  0.00000000000E+00 -0.00000000000E+00 -0.91415581183E+03  0.91415581183E+03  0.25500000000E-02 0. -1.
         23    2    1    2    0    0  0.00000000000E+00  0.00000000000E+00 -0.91191171718E+03  0.91639990793E+03  0.90585933293E+02 0.  0.
    9000005    2    3    3    0    0 -0.11549827895E+02  0.26856430388E+02 -0.80141281239E+03  0.80209910155E+03  0.15678216330E+02 0.  0.
         22    1    3    3    0    0  0.11549827895E+02 -0.26856430388E+02 -0.11049890479E+03  0.11430080637E+03  0.00000000000E+00 0.  1.
         22    1    4    4    0    0 -0.12016498624E+01 -0.26016083051E+00 -0.18433379410E+03  0.18433789435E+03  0.00000000000E+00 0.  1.
         22    1    4    4    0    0 -0.10348178032E+02  0.27116591219E+02 -0.61707901830E+03  0.61776120721E+03  0.00000000000E+00 0.  1.
<mgrwt>
<rscale>  0 0.90585933E+02</rscale>
<asrwt>0</asrwt>
<pdfrwt beam="2">  1        2 0.14063906E+00 0.90585933E+02</pdfrwt>
<pdfrwt beam="1">  1       -2 0.34524617E-03 0.90585933E+02</pdfrwt>
<totfact> 0.25264666E+05</totfact>
</mgrwt>
</event>
<event>
 7    1  0.3337990E-009  0.9159785E+02  0.7818608E-02  0.1299028E+00
          2   -1    0    0  501    0  0.00000000000E+00  0.00000000000E+00  0.13417508064E+03  0.13417508067E+03  0.25500000000E-02 0. -1.
         -2   -1    0    0    0  501 -0.00000000000E+00 -0.00000000000E+00 -0.15632868743E+02  0.15632868951E+02  0.25500000000E-02 0.  1.
         23    2    1    2    0    0  0.00000000000E+00 -0.44408920985E-15  0.11854221190E+03  0.14980794962E+03  0.91597848046E+02 0.  0.
    9000005    2    3    3    0    0 -0.36380805040E+02  0.28424286965E+01  0.10375140748E+03  0.11043270014E+03  0.99691689601E+01 0.  0.
         22    1    3    3    0    0  0.36380805040E+02 -0.28424286965E+01  0.14790804424E+02  0.39375249482E+02  0.00000000000E+00 0.  1.
         22    1    4    4    0    0 -0.10031818701E+02  0.13683714169E+01  0.43370248141E+02  0.44536369975E+02  0.00000000000E+00 0.  1.
         22    1    4    4    0    0 -0.26348986339E+02  0.14740572796E+01  0.60381159338E+02  0.65896330163E+02  0.00000000000E+00 0.  1.
<mgrwt>
<rscale>  0 0.91597848E+02</rscale>
<asrwt>0</asrwt>
<pdfrwt beam="1">  1        2 0.20642320E-01 0.91597848E+02</pdfrwt>
<pdfrwt beam="2">  1       -2 0.24050568E-02 0.91597848E+02</pdfrwt>
<totfact> 0.13299469E+05</totfact>
</mgrwt>
</event>
<event>
 7    1  0.3337990E-009  0.9176947E+02  0.7818608E-02  0.1298622E+00
         -2   -1    0    0    0  501 -0.00000000000E+00  0.00000000000E+00  0.12476472064E+03  0.12476472067E+03  0.25500000000E-02 0. -1.
          2   -1    0    0  501    0  0.00000000000E+00 -0.00000000000E+00 -0.16875035029E+02  0.16875035222E+02  0.25500000000E-02 0.  1.
         23    2    1    2    0    0  0.00000000000E+00  0.00000000000E+00  0.10788968561E+03  0.14163975589E+03  0.91769473068E+02 0.  0.
    9000005    2    3    3    0    0  0.21083546548E+02  0.27456182605E+02  0.87094308301E+01  0.36591762873E+02  0.80464294209E+01 0.  0.
         22    1    3    3    0    0 -0.21083546548E+02 -0.27456182605E+02  0.99180254784E+02  0.10504799302E+03  0.00000000000E+00 0. -1.
         22    1    4    4    0    0  0.77360853039E+01  0.59083660594E+01  0.50995438226E+01  0.10989137933E+02  0.00000000000E+00 0.  1.
         22    1    4    4    0    0  0.13347461244E+02  0.21547816546E+02  0.36098870076E+01  0.25602624939E+02  0.00000000000E+00 0.  1.
<mgrwt>
<rscale>  0 0.91769473E+02</rscale>
<asrwt>0</asrwt>
<pdfrwt beam="2">  1        2 0.25961591E-02 0.91769473E+02</pdfrwt>
<pdfrwt beam="1">  1       -2 0.19194573E-01 0.91769473E+02</pdfrwt>
<totfact> 0.73258636E+04</totfact>
</mgrwt>
</event>
<event>
 7    1  0.3337990E-009  0.9524547E+02  0.7818608E-02  0.1290624E+00
         -2   -1    0    0    0  501 -0.00000000000E+00  0.00000000000E+00  0.60827305334E+02  0.60827305387E+02  0.25500000000E-02 0. -1.
          2   -1    0    0  501    0  0.00000000000E+00 -0.00000000000E+00 -0.37284649240E+02  0.37284649327E+02  0.25500000000E-02 0.  1.
         23    2    1    2    0    0  0.35527136788E-14 -0.88817841970E-15  0.23542656094E+02  0.98111954714E+02  0.95245467094E+02 0.  0.
    9000005    2    3    3    0    0 -0.27536281347E+02  0.54077329605E+01 -0.26331565377E+02  0.40884965159E+02  0.13810817306E+02 0.  0.
         22    1    3    3    0    0  0.27536281347E+02 -0.54077329605E+01  0.49874221471E+02  0.57226989555E+02  0.00000000000E+00 0. -1.
         22    1    4    4    0    0 -0.23403374714E+02  0.86329649505E+01 -0.25324247211E+02  0.35546638781E+02  0.00000000000E+00 0.  1.
         22    1    4    4    0    0 -0.41329066332E+01 -0.32252319900E+01 -0.10073181659E+01  0.53383263778E+01  0.00000000000E+00 0.  1.
<mgrwt>
<rscale>  0 0.95245467E+02</rscale>
<asrwt>0</asrwt>
<pdfrwt beam="2">  1        2 0.57361000E-02 0.95245467E+02</pdfrwt>
<pdfrwt beam="1">  1       -2 0.93580468E-02 0.95245467E+02</pdfrwt>
<totfact> 0.82420633E+04</totfact>
</mgrwt>
</event>
<event>
 7    1  0.3337990E-009  0.9079510E+02  0.7818608E-02  0.1300938E+00
         -2   -1    0    0    0  501 -0.00000000000E+00  0.00000000000E+00  0.20007524749E+03  0.20007524751E+03  0.25500000000E-02 0.  1.
          2   -1    0    0  501    0  0.00000000000E+00 -0.00000000000E+00 -0.10300812157E+02  0.10300812472E+02  0.25500000000E-02 0. -1.
         23    2    1    2    0    0  0.00000000000E+00  0.00000000000E+00  0.18977443533E+03  0.21037605998E+03  0.90795100672E+02 0.  0.
    9000005    2    3    3    0    0 -0.34190319750E+02 -0.27572250611E+02  0.82498777486E+02  0.94456804740E+02  0.13668676115E+02 0.  0.
         22    1    3    3    0    0  0.34190319750E+02  0.27572250611E+02  0.10727565785E+03  0.11591925524E+03  0.00000000000E+00 0. -1.
         22    1    4    4    0    0 -0.27380945230E+02 -0.13878479739E+02  0.54145610035E+02  0.62242071364E+02  0.00000000000E+00 0.  1.
         22    1    4    4    0    0 -0.68093745199E+01 -0.13693770872E+02  0.28353167450E+02  0.32214733376E+02  0.00000000000E+00 0.  1.
<mgrwt>
<rscale>  0 0.90795101E+02</rscale>
<asrwt>0</asrwt>
<pdfrwt beam="2">  1        2 0.15847404E-02 0.90795101E+02</pdfrwt>
<pdfrwt beam="1">  1       -2 0.30780806E-01 0.90795101E+02</pdfrwt>
<totfact> 0.62980052E+04</totfact>
</mgrwt>
</event>
<event>
 7    1  0.3337990E-009  0.9175679E+02  0.7818608E-02  0.1298652E+00
          2   -1    0    0  501    0  0.00000000000E+00  0.00000000000E+00  0.14000387515E+03  0.14000387518E+03  0.25500000000E-02 0. -1.
         -2   -1    0    0    0  501 -0.00000000000E+00 -0.00000000000E+00 -0.15034064672E+02  0.15034064888E+02  0.25500000000E-02 0.  1.
         23    2    1    2    0    0 -0.35527136788E-14  0.00000000000E+00  0.12496981048E+03  0.15503794006E+03  0.91756794450E+02 0.  0.
    9000005    2    3    3    0    0 -0.18851994207E+02 -0.10912115135E+02 -0.23904758353E+01  0.25828364286E+02  0.13671798881E+02 0.  0.
         22    1    3    3    0    0  0.18851994207E+02  0.10912115135E+02  0.12736028632E+03  0.12920957578E+03  0.00000000000E+00 0. -1.
         22    1    4    4    0    0 -0.14435879025E+01 -0.13296824157E+01  0.44087388550E+01  0.48258656892E+01  0.00000000000E+00 0.  1.
         22    1    4    4    0    0 -0.17408406305E+02 -0.95824327193E+01 -0.67992146903E+01  0.21002498597E+02  0.00000000000E+00 0.  1.
<mgrwt>
<rscale>  0 0.91756794E+02</rscale>
<asrwt>0</asrwt>
<pdfrwt beam="1">  1        2 0.21539058E-01 0.91756794E+02</pdfrwt>
<pdfrwt beam="2">  1       -2 0.23129331E-02 0.91756794E+02</pdfrwt>
<totfact> 0.13425613E+05</totfact>
</mgrwt>
</event>
<event>
 7    1  0.3337990E-009  0.9187502E+02  0.7818608E-02  0.1298374E+00
         -2   -1    0    0    0  501 -0.00000000000E+00  0.00000000000E+00  0.31819443676E+02  0.31819443778E+02  0.25500000000E-02 0. -1.
          2   -1    0    0  501    0  0.00000000000E+00 -0.00000000000E+00 -0.66319667919E+02  0.66319667968E+02  0.25500000000E-02 0.  1.
         23    2    1    2    0    0  0.00000000000E+00  0.00000000000E+00 -0.34500224243E+02  0.98139111746E+02  0.91875022621E+02 0.  0.
    9000005    2    3    3    0    0  0.10369266692E+02 -0.37520089392E+02 -0.42622087029E+02  0.58374259744E+02  0.86967291666E+01 0.  0.
         22    1    3    3    0    0 -0.10369266692E+02  0.37520089392E+02  0.81218627868E+01  0.39764852003E+02  0.00000000000E+00 0. -1.
         22    1    4    4    0    0  0.81859833620E+00 -0.13063303769E+01  0.11873663043E+00  0.15461890819E+01  0.00000000000E+00 0. -1.
         22    1    4    4    0    0  0.95506683556E+01 -0.36213759015E+02 -0.42740823660E+02  0.56828070662E+02  0.00000000000E+00 0. -1.
<mgrwt>
<rscale>  0 0.91875023E+02</rscale>
<asrwt>0</asrwt>
<pdfrwt beam="2">  1        2 0.10203026E-01 0.91875023E+02</pdfrwt>
<pdfrwt beam="1">  1       -2 0.48952990E-02 0.91875023E+02</pdfrwt>
<totfact> 0.10667526E+05</totfact>
</mgrwt>
</event>
<event>
 7    1  0.3337990E-009  0.9129528E+02  0.7818608E-02  0.1299745E+00
          2   -1    0    0  501    0  0.00000000000E+00  0.00000000000E+00  0.15433849694E+03  0.15433849696E+03  0.25500000000E-02 0. -1.
         -2   -1    0    0    0  501 -0.00000000000E+00 -0.00000000000E+00 -0.13500890326E+02  0.13500890567E+02  0.25500000000E-02 0.  1.
         23    2    1    2    0    0  0.00000000000E+00  0.00000000000E+00  0.14083760662E+03  0.16783938753E+03  0.91295282294E+02 0.  0.
    9000005    2    3    3    0    0  0.11190207004E+02 -0.43192579386E+02  0.87870874814E+02  0.98584103799E+02  0.25913769485E+01 0.  0.
         22    1    3    3    0    0 -0.11190207004E+02  0.43192579386E+02  0.52966731803E+02  0.69255283732E+02  0.00000000000E+00 0. -1.
         22    1    4    4    0    0  0.19177786515E+01 -0.94572676693E+01  0.16999538153E+02  0.19547431651E+02  0.00000000000E+00 0.  1.
         22    1    4    4    0    0  0.92724283527E+01 -0.33735311717E+02  0.70871336661E+02  0.79036672148E+02  0.00000000000E+00 0.  1.
<mgrwt>
<rscale>  0 0.91295282E+02</rscale>
<asrwt>0</asrwt>
<pdfrwt beam="1">  1        2 0.23744385E-01 0.91295282E+02</pdfrwt>
<pdfrwt beam="2">  1       -2 0.20770600E-02 0.91295282E+02</pdfrwt>
<totfact> 0.14068023E+05</totfact>
</mgrwt>
</event>
<event>
 7    1  0.3337990E-009  0.9087304E+02  0.7818608E-02  0.1300751E+00
         -2   -1    0    0    0  501 -0.00000000000E+00  0.00000000000E+00  0.13211863896E+03  0.13211863898E+03  0.25500000000E-02 0.  1.
          2   -1    0    0  501    0  0.00000000000E+00 -0.00000000000E+00 -0.15625936752E+02  0.15625936961E+02  0.25500000000E-02 0. -1.
         23    2    1    2    0    0  0.35527136788E-14  0.00000000000E+00  0.11649270220E+03  0.14774457594E+03  0.90873043601E+02 0.  0.
    9000005    2    3    3    0    0 -0.30451748357E+02 -0.13199773775E+02  0.11416156775E+02  0.37551003511E+02  0.13349390379E+02 0.  0.
         22    1    3    3    0    0  0.30451748357E+02  0.13199773775E+02  0.10507654543E+03  0.11019357243E+03  0.00000000000E+00 0.  1.
         22    1    4    4    0    0 -0.16916827940E+02 -0.13955521803E+02  0.47246379673E+01  0.22433409466E+02  0.00000000000E+00 0. -1.
         22    1    4    4    0    0 -0.13534920416E+02  0.75574802788E+00  0.66915188074E+01  0.15117594045E+02  0.00000000000E+00 0. -1.
<mgrwt>
<rscale>  0 0.90873044E+02</rscale>
<asrwt>0</asrwt>
<pdfrwt beam="2">  1        2 0.24039904E-02 0.90873044E+02</pdfrwt>
<pdfrwt beam="1">  1       -2 0.20325944E-01 0.90873044E+02</pdfrwt>
<totfact> 0.73663646E+04</totfact>
</mgrwt>
</event>
<event>
 7    1  0.3337990E-009  0.9765083E+02  0.7818608E-02  0.1285315E+00
          2   -1    0    0  501    0  0.00000000000E+00  0.00000000000E+00  0.87296023131E+03  0.87296023131E+03  0.25500000000E-02 0. -1.
         -2   -1    0    0    0  501 -0.00000000000E+00 -0.00000000000E+00 -0.27308466068E+01  0.27308477974E+01  0.25500000000E-02 0.  1.
         23    2    1    2    0    0  0.11796119637E-15  0.00000000000E+00  0.87022938470E+03  0.87569107911E+03  0.97650827103E+02 0.  0.
    9000005    2    3    3    0    0 -0.48469859286E-01  0.33301861173E+02  0.75499481115E+03  0.75574099262E+03  0.42739627458E+01 0.  0.
         22    1    3    3    0    0  0.48469859286E-01 -0.33301861173E+02  0.11523457355E+03  0.11995008648E+03  0.00000000000E+00 0.  1.
         22    1    4    4    0    0  0.20315548905E+01  0.17004748583E+02  0.37226859605E+03  0.37266230866E+03  0.00000000000E+00 0. -1.
         22    1    4    4    0    0 -0.20800247498E+01  0.16297112591E+02  0.38272621510E+03  0.38307868396E+03  0.00000000000E+00 0. -1.
<mgrwt>
<rscale>  0 0.97650827E+02</rscale>
<asrwt>0</asrwt>
<pdfrwt beam="1">  1        2 0.13430190E+00 0.97650827E+02</pdfrwt>
<pdfrwt beam="2">  1       -2 0.42012932E-03 0.97650827E+02</pdfrwt>
<totfact> 0.20605912E+05</totfact>
</mgrwt>
</event>
<event>
 7    1  0.3337990E-009  0.9196308E+02  0.7818608E-02  0.1298166E+00
          2   -1    0    0  501    0  0.00000000000E+00  0.00000000000E+00  0.40892378538E+02  0.40892378618E+02  0.25500000000E-02 0. -1.
         -2   -1    0    0    0  501 -0.00000000000E+00 -0.00000000000E+00 -0.51704063696E+02  0.51704063758E+02  0.25500000000E-02 0.  1.
         23    2    1    2    0    0  0.00000000000E+00  0.00000000000E+00 -0.10811685157E+02  0.92596442376E+02  0.91963082837E+02 0.  0.
    9000005    2    3    3    0    0 -0.19808388851E+02  0.25135286232E+02  0.26970604807E+02  0.43082239185E+02  0.10223058580E+02 0.  0.
         22    1    3    3    0    0  0.19808388851E+02 -0.25135286232E+02 -0.37782289964E+02  0.49514203192E+02  0.00000000000E+00 0.  1.
         22    1    4    4    0    0 -0.84972589771E+01  0.38813661072E+01  0.56146508540E+01  0.10899207182E+02  0.00000000000E+00 0. -1.
         22    1    4    4    0    0 -0.11311129873E+02  0.21253920124E+02  0.21355953953E+02  0.32183032003E+02  0.00000000000E+00 0. -1.
<mgrwt>
<rscale>  0 0.91963083E+02</rscale>
<asrwt>0</asrwt>
<pdfrwt beam="1">  1        2 0.62911351E-02 0.91963083E+02</pdfrwt>
<pdfrwt beam="2">  1       -2 0.79544714E-02 0.91963083E+02</pdfrwt>
<totfact> 0.93577492E+04</totfact>
</mgrwt>
</event>
<event>
 7    1  0.3337990E-009  0.8584493E+02  0.7818608E-02  0.1313238E+00
          2   -1    0    0  501    0  0.00000000000E+00  0.00000000000E+00  0.85276270203E+02  0.85276270241E+02  0.25500000000E-02 0. -1.
         -2   -1    0    0    0  501 -0.00000000000E+00 -0.00000000000E+00 -0.21604345615E+02  0.21604345766E+02  0.25500000000E-02 0.  1.
         23    2    1    2    0    0  0.00000000000E+00  0.00000000000E+00  0.63671924587E+02  0.10688061601E+03  0.85844930528E+02 0.  0.
    9000005    2    3    3    0    0  0.12570312773E+02 -0.12587966571E+02  0.80333049747E+02  0.82507213347E+02  0.61295764240E+01 0.  0.
         22    1    3    3    0    0 -0.12570312773E+02  0.12587966571E+02 -0.16661125159E+02  0.24373402659E+02  0.00000000000E+00 0.  1.
         22    1    4    4    0    0  0.69811533944E+01 -0.47371490110E+01  0.49153981958E+02  0.49872748328E+02  0.00000000000E+00 0.  1.
         22    1    4    4    0    0  0.55891593787E+01 -0.78508175605E+01  0.31179067789E+02  0.32634465020E+02  0.00000000000E+00 0.  1.
<mgrwt>
<rscale>  0 0.85844931E+02</rscale>
<asrwt>0</asrwt>
<pdfrwt beam="1">  1        2 0.13119426E-01 0.85844931E+02</pdfrwt>
<pdfrwt beam="2">  1       -2 0.33237455E-02 0.85844931E+02</pdfrwt>
<totfact> 0.13813070E+05</totfact>
</mgrwt>
</event>
<event>
 7    1  0.3337990E-009  0.9182096E+02  0.7818608E-02  0.1298501E+00
         -2   -1    0    0    0  501 -0.00000000000E+00  0.00000000000E+00  0.31075787615E+02  0.31075787719E+02  0.25500000000E-02 0.  1.
          2   -1    0    0  501    0  0.00000000000E+00 -0.00000000000E+00 -0.67826826234E+02  0.67826826282E+02  0.25500000000E-02 0. -1.
         23    2    1    2    0    0  0.17763568394E-14 -0.17763568394E-14 -0.36751038619E+02  0.98902614001E+02  0.91820957394E+02 0.  0.
    9000005    2    3    3    0    0 -0.12838484856E+02  0.13698524564E+02  0.26219839748E+02  0.33192585915E+02  0.78607566238E+01 0.  0.
         22    1    3    3    0    0  0.12838484856E+02 -0.13698524564E+02 -0.62970878368E+02  0.65710028086E+02  0.00000000000E+00 0. -1.
         22    1    4    4    0    0 -0.47123763460E+01  0.10569819803E+02  0.13555943470E+02  0.17823893650E+02  0.00000000000E+00 0.  1.
         22    1    4    4    0    0 -0.81261085099E+01  0.31287047615E+01  0.12663896278E+02  0.15368692265E+02  0.00000000000E+00 0.  1.
<mgrwt>
<rscale>  0 0.91820957E+02</rscale>
<asrwt>0</asrwt>
<pdfrwt beam="2">  1        2 0.10434896E-01 0.91820957E+02</pdfrwt>
<pdfrwt beam="1">  1       -2 0.47808904E-02 0.91820957E+02</pdfrwt>
<totfact> 0.10751533E+05</totfact>
</mgrwt>
</event>
<event>
 7    1  0.3337990E-009  0.9161922E+02  0.7818608E-02  0.1298977E+00
         -2   -1    0    0    0  501 -0.00000000000E+00  0.00000000000E+00  0.12203825810E+01  0.12203852451E+01  0.25500000000E-02 0.  1.
          2   -1    0    0  501    0  0.00000000000E+00 -0.00000000000E+00 -0.17195577078E+04  0.17195577078E+04  0.25500000000E-02 0. -1.
         23    2    1    2    0    0  0.00000000000E+00  0.00000000000E+00 -0.17183373252E+04  0.17207780930E+04  0.91619224344E+02 0.  0.
    9000005    2    3    3    0    0 -0.12359738916E+02 -0.47411451093E+01 -0.16818724713E+04  0.16819847022E+04  0.14222765758E+02 0.  0.
         22    1    3    3    0    0  0.12359738916E+02  0.47411451093E+01 -0.36464853879E+02  0.38793390821E+02  0.00000000000E+00 0.  1.
         22    1    4    4    0    0 -0.14023542475E+02 -0.29375035256E+01 -0.94929101344E+03  0.94939913465E+03  0.00000000000E+00 0. -1.
         22    1    4    4    0    0  0.16638035591E+01 -0.18036415837E+01 -0.73258145787E+03  0.73258556755E+03  0.00000000000E+00 0. -1.
<mgrwt>
<rscale>  0 0.91619224E+02</rscale>
<asrwt>0</asrwt>
<pdfrwt beam="2">  1        2 0.26454540E+00 0.91619224E+02</pdfrwt>
<pdfrwt beam="1">  1       -2 0.18775275E-03 0.91619224E+02</pdfrwt>
<totfact> 0.21798352E+05</totfact>
</mgrwt>
</event>
<event>
 7    1  0.3337990E-009  0.9442835E+02  0.7818608E-02  0.1292469E+00
         -2   -1    0    0    0  501 -0.00000000000E+00  0.00000000000E+00  0.39797320283E+01  0.39797328453E+01  0.25500000000E-02 0.  1.
          2   -1    0    0  501    0  0.00000000000E+00 -0.00000000000E+00 -0.56013266056E+03  0.56013266056E+03  0.25500000000E-02 0. -1.
         23    2    1    2    0    0  0.00000000000E+00  0.00000000000E+00 -0.55615292853E+03  0.56411239341E+03  0.94428345774E+02 0.  0.
    9000005    2    3    3    0    0  0.24308050275E+02  0.28805728966E+02 -0.44505803339E+03  0.44679774361E+03  0.11441996689E+02 0.  0.
         22    1    3    3    0    0 -0.24308050275E+02 -0.28805728966E+02 -0.11109489514E+03  0.11731464979E+03  0.00000000000E+00 0.  1.
         22    1    4    4    0    0  0.10124237927E+02  0.19211069864E+02 -0.21114921327E+03  0.21226293992E+03  0.00000000000E+00 0. -1.
         22    1    4    4    0    0  0.14183812348E+02  0.95946591014E+01 -0.23390882011E+03  0.23453480369E+03  0.00000000000E+00 0. -1.
<mgrwt>
<rscale>  0 0.94428346E+02</rscale>
<asrwt>0</asrwt>
<pdfrwt beam="2">  1        2 0.86174193E-01 0.94428346E+02</pdfrwt>
<pdfrwt beam="1">  1       -2 0.61226697E-03 0.94428346E+02</pdfrwt>
<totfact> 0.20351665E+05</totfact>
</mgrwt>
</event>
<event>
 7    1  0.3337990E-009  0.9109008E+02  0.7818608E-02  0.1300233E+00
         -2   -1    0    0    0  501 -0.00000000000E+00  0.00000000000E+00  0.10642849475E+03  0.10642849478E+03  0.25500000000E-02 0. -1.
          2   -1    0    0  501    0  0.00000000000E+00 -0.00000000000E+00 -0.19490557558E+02  0.19490557725E+02  0.25500000000E-02 0.  1.
         23    2    1    2    0    0  0.00000000000E+00  0.00000000000E+00  0.86937937194E+02  0.12591905251E+03  0.91090081024E+02 0.  0.
    9000005    2    3    3    0    0  0.45238563946E+02  0.16162169380E+01  0.47734092900E+02  0.66035154567E+02  0.57409222801E+01 0.  0.
         22    1    3    3    0    0 -0.45238563946E+02 -0.16162169380E+01  0.39203844293E+02  0.59883897940E+02  0.00000000000E+00 0.  1.
         22    1    4    4    0    0  0.35440021758E+02  0.22750222397E+01  0.34113333175E+02  0.49243175859E+02  0.00000000000E+00 0. -1.
         22    1    4    4    0    0  0.97985421880E+01 -0.65880530173E+00  0.13620759725E+02  0.16791978708E+02  0.00000000000E+00 0. -1.
<mgrwt>
<rscale>  0 0.91090081E+02</rscale>
<asrwt>0</asrwt>
<pdfrwt beam="2">  1        2 0.29985474E-02 0.91090081E+02</pdfrwt>
<pdfrwt beam="1">  1       -2 0.16373614E-01 0.91090081E+02</pdfrwt>
<totfact> 0.78504418E+04</totfact>
</mgrwt>
</event>
<event>
 7    1  0.3337990E-009  0.8162166E+02  0.7818608E-02  0.1324511E+00
          2   -1    0    0  501    0  0.00000000000E+00  0.00000000000E+00  0.42600763790E+03  0.42600763790E+03  0.25500000000E-02 0. -1.
         -2   -1    0    0    0  501 -0.00000000000E+00 -0.00000000000E+00 -0.39096095659E+01  0.39096103975E+01  0.25500000000E-02 0.  1.
         23    2    1    2    0    0  0.00000000000E+00  0.00000000000E+00  0.42209802833E+03  0.42991724830E+03  0.81621656848E+02 0.  0.
    9000005    2    3    3    0    0 -0.22576080951E+02 -0.12495447452E+02  0.37660412145E+03  0.37761513361E+03  0.98340835254E+01 0.  0.
         22    1    3    3    0    0  0.22576080951E+02  0.12495447452E+02  0.45493906880E+02  0.52302114693E+02  0.00000000000E+00 0.  1.
         22    1    4    4    0    0 -0.16559569678E+02 -0.51737033563E+01  0.28338383436E+03  0.28391439578E+03  0.00000000000E+00 0. -1.
         22    1    4    4    0    0 -0.60165112730E+01 -0.73217440961E+01  0.93220287095E+02  0.93700737834E+02  0.00000000000E+00 0. -1.
<mgrwt>
<rscale>  0 0.81621657E+02</rscale>
<asrwt>0</asrwt>
<pdfrwt beam="1">  1        2 0.65539668E-01 0.81621657E+02</pdfrwt>
<pdfrwt beam="2">  1       -2 0.60147818E-03 0.81621657E+02</pdfrwt>
<totfact> 0.27330217E+05</totfact>
</mgrwt>
</event>
<event>
 7    1  0.3337990E-009  0.9404704E+02  0.7818608E-02  0.1293337E+00
         -2   -1    0    0    0  501 -0.00000000000E+00  0.00000000000E+00  0.34267492909E+02  0.34267493004E+02  0.25500000000E-02 0.  1.
          2   -1    0    0  501    0  0.00000000000E+00 -0.00000000000E+00 -0.64527957302E+02  0.64527957353E+02  0.25500000000E-02 0. -1.
         23    2    1    2    0    0 -0.17763568394E-14 -0.22204460493E-15 -0.30260464394E+02  0.98795450356E+02  0.94047037730E+02 0.  0.
    9000005    2    3    3    0    0 -0.11725186727E+02 -0.14978304011E+01  0.32654615207E+02  0.34779587159E+02  0.18900499731E+01 0.  0.
         22    1    3    3    0    0  0.11725186727E+02  0.14978304011E+01 -0.62915079601E+02  0.64015863197E+02  0.00000000000E+00 0. -1.
         22    1    4    4    0    0 -0.39814136008E+01 -0.77212238550E+00  0.88124686521E+01  0.97008984626E+01  0.00000000000E+00 0.  1.
         22    1    4    4    0    0 -0.77437731263E+01 -0.72570801560E+00  0.23842146555E+02  0.25078688696E+02  0.00000000000E+00 0.  1.
<mgrwt>
<rscale>  0 0.94047038E+02</rscale>
<asrwt>0</asrwt>
<pdfrwt beam="2">  1        2 0.99273780E-02 0.94047038E+02</pdfrwt>
<pdfrwt beam="1">  1       -2 0.52719220E-02 0.94047038E+02</pdfrwt>
<totfact> 0.99122586E+04</totfact>
</mgrwt>
</event>
<event>
 7    1  0.3337990E-009  0.9773334E+02  0.7818608E-02  0.1285136E+00
          2   -1    0    0  501    0  0.00000000000E+00  0.00000000000E+00  0.13581869450E+04  0.13581869450E+04  0.25500000000E-02 0. -1.
         -2   -1    0    0    0  501 -0.00000000000E+00 -0.00000000000E+00 -0.17581895221E+01  0.17581913713E+01  0.25500000000E-02 0.  1.
         23    2    1    2    0    0  0.00000000000E+00  0.00000000000E+00  0.13564287555E+04  0.13599451364E+04  0.97733337501E+02 0.  0.
    9000005    2    3    3    0    0  0.16917536969E+02 -0.28926993536E+02  0.11674344411E+04  0.11680028927E+04  0.14304168752E+02 0.  0.
         22    1    3    3    0    0 -0.16917536969E+02  0.28926993536E+02  0.18899431441E+03  0.19194224363E+03  0.00000000000E+00 0.  1.
         22    1    4    4    0    0  0.48857094257E+01 -0.70746347365E+01  0.13881070544E+03  0.13907671465E+03  0.00000000000E+00 0. -1.
         22    1    4    4    0    0  0.12031827543E+02 -0.21852358799E+02  0.10286237356E+04  0.10289261781E+04  0.00000000000E+00 0. -1.
<mgrwt>
<rscale>  0 0.97733338E+02</rscale>
<asrwt>0</asrwt>
<pdfrwt beam="1">  1        2 0.20895223E+00 0.97733338E+02</pdfrwt>
<pdfrwt beam="2">  1       -2 0.27049033E-03 0.97733338E+02</pdfrwt>
<totfact> 0.20255005E+05</totfact>
</mgrwt>
</event>
<event>
 7    1  0.3337990E-009  0.9214473E+02  0.7818608E-02  0.1297739E+00
          2   -1    0    0  501    0  0.00000000000E+00  0.00000000000E+00  0.12557017898E+03  0.12557017901E+03  0.25500000000E-02 0. -1.
         -2   -1    0    0    0  501 -0.00000000000E+00 -0.00000000000E+00 -0.16904195597E+02  0.16904195789E+02  0.25500000000E-02 0.  1.
         23    2    1    2    0    0 -0.35527136788E-14  0.00000000000E+00  0.10866598339E+03  0.14247437480E+03  0.92144731422E+02 0.  0.
    9000005    2    3    3    0    0 -0.26091926690E+02  0.14925991807E+02  0.10792173430E+03  0.11240565723E+03  0.91846161018E+01 0.  0.
         22    1    3    3    0    0  0.26091926690E+02 -0.14925991807E+02  0.74424909026E+00  0.30068717573E+02  0.00000000000E+00 0.  1.
         22    1    4    4    0    0 -0.25898836085E+02  0.12112052329E+02  0.97036425972E+02  0.10116085946E+03  0.00000000000E+00 0. -1.
         22    1    4    4    0    0 -0.19309060473E+00  0.28139394779E+01  0.10885308325E+02  0.11244797761E+02  0.00000000000E+00 0. -1.
<mgrwt>
<rscale>  0 0.92144731E+02</rscale>
<asrwt>0</asrwt>
<pdfrwt beam="1">  1        2 0.19318489E-01 0.92144731E+02</pdfrwt>
<pdfrwt beam="2">  1       -2 0.26006455E-02 0.92144731E+02</pdfrwt>
<totfact> 0.12802989E+05</totfact>
</mgrwt>
</event>
<event>
 7    1  0.3337990E-009  0.9319869E+02  0.7818608E-02  0.1295285E+00
         -2   -1    0    0    0  501 -0.00000000000E+00  0.00000000000E+00  0.23018593943E+02  0.23018594084E+02  0.25500000000E-02 0.  1.
          2   -1    0    0  501    0  0.00000000000E+00 -0.00000000000E+00 -0.94336728144E+02  0.94336728178E+02  0.25500000000E-02 0. -1.
         23    2    1    2    0    0 -0.17763568394E-14  0.00000000000E+00 -0.71318134201E+02  0.11735532226E+03  0.93198687745E+02 0.  0.
    9000005    2    3    3    0    0 -0.13391846160E+02  0.30093016222E+01 -0.91196125287E+02  0.93198915877E+02  0.13450175224E+02 0.  0.
         22    1    3    3    0    0  0.13391846160E+02 -0.30093016222E+01  0.19877991086E+02  0.24156406385E+02  0.00000000000E+00 0.  1.
         22    1    4    4    0    0 -0.14180566979E+01 -0.36869508647E+01 -0.40065913807E+02  0.40260178101E+02  0.00000000000E+00 0. -1.
         22    1    4    4    0    0 -0.11973789462E+02  0.66962524869E+01 -0.51130211480E+02  0.52938737777E+02  0.00000000000E+00 0. -1.
<mgrwt>
<rscale>  0 0.93198688E+02</rscale>
<asrwt>0</asrwt>
<pdfrwt beam="2">  1        2 0.14513343E-01 0.93198688E+02</pdfrwt>
<pdfrwt beam="1">  1       -2 0.35413222E-02 0.93198688E+02</pdfrwt>
<totfact> 0.11343878E+05</totfact>
</mgrwt>
</event>
<event>
 7    1  0.3337990E-009  0.8547288E+02  0.7818608E-02  0.1314201E+00
         -2   -1    0    0    0  501 -0.00000000000E+00  0.00000000000E+00  0.13097536457E+02  0.13097536705E+02  0.25500000000E-02 0.  1.
          2   -1    0    0  501    0  0.00000000000E+00 -0.00000000000E+00 -0.13944631989E+03  0.13944631991E+03  0.25500000000E-02 0. -1.
         23    2    1    2    0    0  0.35527136788E-14  0.00000000000E+00 -0.12634878343E+03  0.15254385662E+03  0.85472879422E+02 0.  0.
    9000005    2    3    3    0    0 -0.27161800102E+02  0.19533870234E+02 -0.10979760404E+03  0.11521723059E+03  0.10008041812E+02 0.  0.
         22    1    3    3    0    0  0.27161800102E+02 -0.19533870234E+02 -0.16551179390E+02  0.37326626024E+02  0.00000000000E+00 0.  1.
         22    1    4    4    0    0 -0.53873525602E+01  0.32249357263E+01 -0.36452028014E+02  0.36988837835E+02  0.00000000000E+00 0.  1.
         22    1    4    4    0    0 -0.21774447542E+02  0.16308934508E+02 -0.73345576028E+02  0.78228392757E+02  0.00000000000E+00 0.  1.
<mgrwt>
<rscale>  0 0.85472879E+02</rscale>
<asrwt>0</asrwt>
<pdfrwt beam="2">  1        2 0.21453279E-01 0.85472879E+02</pdfrwt>
<pdfrwt beam="1">  1       -2 0.20150057E-02 0.85472879E+02</pdfrwt>
<totfact> 0.16248085E+05</totfact>
</mgrwt>
</event>
<event>
 7    1  0.3337990E-009  0.9076398E+02  0.7818608E-02  0.1301012E+00
         -2   -1    0    0    0  501 -0.00000000000E+00  0.00000000000E+00  0.10444631011E+03  0.10444631014E+03  0.25500000000E-02 0. -1.
          2   -1    0    0  501    0  0.00000000000E+00 -0.00000000000E+00 -0.19718504942E+02  0.19718505107E+02  0.25500000000E-02 0.  1.
         23    2    1    2    0    0  0.00000000000E+00  0.00000000000E+00  0.84727805168E+02  0.12416481525E+03  0.90763981717E+02 0.  0.
    9000005    2    3    3    0    0  0.16793305464E+02  0.11971103912E+02  0.97070798429E+02  0.10013000882E+03  0.13340027060E+02 0.  0.
         22    1    3    3    0    0 -0.16793305464E+02 -0.11971103912E+02 -0.12342993261E+02  0.24034806426E+02  0.00000000000E+00 0.  1.
         22    1    4    4    0    0 -0.18544503967E+01  0.36877824179E+00  0.31360995583E+01  0.36619808990E+01  0.00000000000E+00 0. -1.
         22    1    4    4    0    0  0.18647755861E+02  0.11602325671E+02  0.93934698870E+02  0.96468027924E+02  0.00000000000E+00 0. -1.
<mgrwt>
<rscale>  0 0.90763982E+02</rscale>
<asrwt>0</asrwt>
<pdfrwt beam="2">  1        2 0.30336161E-02 0.90763982E+02</pdfrwt>
<pdfrwt beam="1">  1       -2 0.16068663E-01 0.90763982E+02</pdfrwt>
<totfact> 0.79664348E+04</totfact>
</mgrwt>
</event>
<event>
 7    1  0.3337990E-009  0.1088347E+03  0.7818608E-02  0.1262743E+00
         -2   -1    0    0    0  501 -0.00000000000E+00  0.00000000000E+00  0.91997150311E+02  0.91997150347E+02  0.25500000000E-02 0.  1.
          2   -1    0    0  501    0  0.00000000000E+00 -0.00000000000E+00 -0.32188465364E+02  0.32188465465E+02  0.25500000000E-02 0. -1.
         23    2    1    2    0    0  0.00000000000E+00  0.00000000000E+00  0.59808684947E+02  0.12418561581E+03  0.10883468371E+03 0.  0.
    9000005    2    3    3    0    0  0.25900169727E+02 -0.46813679031E+02  0.33084871958E+02  0.64381757098E+02  0.13713590279E+02 0.  0.
         22    1    3    3    0    0 -0.25900169727E+02  0.46813679031E+02  0.26723812990E+02  0.59803858713E+02  0.00000000000E+00 0. -1.
         22    1    4    4    0    0  0.10611911277E+02 -0.19569909877E+02  0.21820965332E+02  0.31172881830E+02  0.00000000000E+00 0.  1.
         22    1    4    4    0    0  0.15288258450E+02 -0.27243769153E+02  0.11263906625E+02  0.33208875268E+02  0.00000000000E+00 0.  1.
<mgrwt>
<rscale>  0 0.10883468E+03</rscale>
<asrwt>0</asrwt>
<pdfrwt beam="2">  1        2 0.49520716E-02 0.10883468E+03</pdfrwt>
<pdfrwt beam="1">  1       -2 0.14153408E-01 0.10883468E+03</pdfrwt>
<totfact> 0.52827366E+04</totfact>
</mgrwt>
</event>
<event>
 7    1  0.3337990E-009  0.9233874E+02  0.7818608E-02  0.1297285E+00
          2   -1    0    0  501    0  0.00000000000E+00  0.00000000000E+00  0.38249796744E+03  0.38249796744E+03  0.25500000000E-02 0. -1.
         -2   -1    0    0    0  501 -0.00000000000E+00 -0.00000000000E+00 -0.55728677708E+01  0.55728683542E+01  0.25500000000E-02 0.  1.
         23    2    1    2    0    0  0.71054273576E-14  0.00000000000E+00  0.37692509966E+03  0.38807083580E+03  0.92338739648E+02 0.  0.
    9000005    2    3    3    0    0 -0.40474747721E+02  0.66321805445E+01  0.27417666823E+03  0.27743887304E+03  0.10830136160E+02 0.  0.
         22    1    3    3    0    0  0.40474747721E+02 -0.66321805445E+01  0.10274843144E+03  0.11063196276E+03  0.00000000000E+00 0.  1.
         22    1    4    4    0    0 -0.57554913691E+01  0.49448186191E+01  0.55635368076E+02  0.56150432705E+02  0.00000000000E+00 0.  1.
         22    1    4    4    0    0 -0.34719256352E+02  0.16873619254E+01  0.21854130015E+03  0.22128844033E+03  0.00000000000E+00 0.  1.
<mgrwt>
<rscale>  0 0.92338740E+02</rscale>
<asrwt>0</asrwt>
<pdfrwt beam="1">  1        2 0.58845879E-01 0.92338740E+02</pdfrwt>
<pdfrwt beam="2">  1       -2 0.85736377E-03 0.92338740E+02</pdfrwt>
<totfact> 0.18993192E+05</totfact>
</mgrwt>
</event>
<event>
 7    1  0.3337990E-009  0.8941320E+02  0.7818608E-02  0.1304279E+00
          2   -1    0    0  501    0  0.00000000000E+00  0.00000000000E+00  0.17825798024E+03  0.17825798026E+03  0.25500000000E-02 0.  1.
         -2   -1    0    0    0  501 -0.00000000000E+00 -0.00000000000E+00 -0.11212289688E+02  0.11212289978E+02  0.25500000000E-02 0. -1.
         23    2    1    2    0    0  0.71054273576E-14 -0.17763568394E-14  0.16704569055E+03  0.18947027023E+03  0.89413201326E+02 0.  0.
    9000005    2    3    3    0    0 -0.42779668687E+02  0.99976994134E+01  0.94218565416E+02  0.10441826143E+03  0.97969997531E+01 0.  0.
         22    1    3    3    0    0  0.42779668687E+02 -0.99976994134E+01  0.72827125135E+02  0.85052008806E+02  0.00000000000E+00 0.  1.
         22    1    4    4    0    0 -0.46140675774E+01 -0.10915569038E+01  0.58996729718E+01  0.75688346037E+01  0.00000000000E+00 0.  1.
         22    1    4    4    0    0 -0.38165601110E+02  0.11089256317E+02  0.88318892444E+02  0.96849426825E+02  0.00000000000E+00 0.  1.
<mgrwt>
<rscale>  0 0.89413201E+02</rscale>
<asrwt>0</asrwt>
<pdfrwt beam="1">  1        2 0.27424302E-01 0.89413201E+02</pdfrwt>
<pdfrwt beam="2">  1       -2 0.17249678E-02 0.89413201E+02</pdfrwt>
<totfact> 0.15645760E+05</totfact>
</mgrwt>
</event>
<event>
 7    1  0.3337990E-009  0.9330395E+02  0.7818608E-02  0.1295042E+00
         -2   -1    0    0    0  501 -0.00000000000E+00  0.00000000000E+00  0.10531641521E+02  0.10531641830E+02  0.25500000000E-02 0.  1.
          2   -1    0    0  501    0  0.00000000000E+00 -0.00000000000E+00 -0.20665407122E+03  0.20665407124E+03  0.25500000000E-02 0. -1.
         23    2    1    2    0    0 -0.88817841970E-15  0.00000000000E+00 -0.19612242970E+03  0.21718571307E+03  0.93303947016E+02 0.  0.
    9000005    2    3    3    0    0  0.52622576836E+01 -0.41987871057E+02 -0.14061657058E+03  0.14738905793E+03  0.12642855822E+02 0.  0.
         22    1    3    3    0    0 -0.52622576836E+01  0.41987871057E+02 -0.55505859119E+02  0.69796655138E+02  0.00000000000E+00 0.  1.
         22    1    4    4    0    0  0.48722685531E+01 -0.21565859550E+02 -0.53070740881E+02  0.57491989326E+02  0.00000000000E+00 0. -1.
         22    1    4    4    0    0  0.38998913047E+00 -0.20422011507E+02 -0.87545829703E+02  0.89897068606E+02  0.00000000000E+00 0. -1.
<mgrwt>
<rscale>  0 0.93303947E+02</rscale>
<asrwt>0</asrwt>
<pdfrwt beam="2">  1        2 0.31792931E-01 0.93303947E+02</pdfrwt>
<pdfrwt beam="1">  1       -2 0.16202527E-02 0.93303947E+02</pdfrwt>
<totfact> 0.14709072E+05</totfact>
</mgrwt>
</event>
<event>
 7    1  0.3337990E-009  0.9286440E+02  0.7818608E-02  0.1296060E+00
         -2   -1    0    0    0  501 -0.00000000000E+00  0.00000000000E+00  0.16683133154E+01  0.16683152643E+01  0.25500000000E-02 0.  1.
          2   -1    0    0  501    0  0.00000000000E+00 -0.00000000000E+00 -0.12922920683E+04  0.12922920683E+04  0.25500000000E-02 0. -1.
         23    2    1    2    0    0  0.00000000000E+00  0.00000000000E+00 -0.12906237550E+04  0.12939603836E+04  0.92864402814E+02 0.  0.
    9000005    2    3    3    0    0  0.11360514749E+02  0.29933348987E+02 -0.11133638913E+04  0.11138323015E+04  0.42631829550E+01 0.  0.
         22    1    3    3    0    0 -0.11360514749E+02 -0.29933348987E+02 -0.17725986369E+03  0.18012808207E+03  0.00000000000E+00 0.  1.
         22    1    4    4    0    0  0.47448418559E+01  0.12904208786E+02 -0.55207208452E+03  0.55224326038E+03  0.00000000000E+00 0. -1.
         22    1    4    4    0    0  0.66156728932E+01  0.17029140201E+02 -0.56129180682E+03  0.56158904115E+03  0.00000000000E+00 0. -1.
<mgrwt>
<rscale>  0 0.92864403E+02</rscale>
<asrwt>0</asrwt>
<pdfrwt beam="2">  1        2 0.19881336E+00 0.92864403E+02</pdfrwt>
<pdfrwt beam="1">  1       -2 0.25666477E-03 0.92864403E+02</pdfrwt>
<totfact> 0.23436900E+05</totfact>
</mgrwt>
</event>
<event>
 7    1  0.3337990E-009  0.9525172E+02  0.7818608E-02  0.1290610E+00
          2   -1    0    0  501    0  0.00000000000E+00  0.00000000000E+00  0.52477704773E+01  0.52477710969E+01  0.25500000000E-02 0. -1.
         -2   -1    0    0    0  501 -0.00000000000E+00 -0.00000000000E+00 -0.43222590520E+03  0.43222590521E+03  0.25500000000E-02 0.  1.
         23    2    1    2    0    0  0.00000000000E+00 -0.71054273576E-14 -0.42697813472E+03  0.43747367631E+03  0.95251718767E+02 0.  0.
    9000005    2    3    3    0    0 -0.34699375835E+01  0.40524505807E+02 -0.32152257989E+03  0.32444646682E+03  0.15312231003E+02 0.  0.
         22    1    3    3    0    0  0.34699375835E+01 -0.40524505807E+02 -0.10545555484E+03  0.11302720948E+03  0.00000000000E+00 0. -1.
         22    1    4    4    0    0  0.16260687168E+01 -0.22217559217E+00 -0.30129357824E+02  0.30174023006E+02  0.00000000000E+00 0.  1.
         22    1    4    4    0    0 -0.50960063003E+01  0.40746681399E+02 -0.29139322206E+03  0.29427244382E+03  0.00000000000E+00 0.  1.
<mgrwt>
<rscale>  0 0.95251719E+02</rscale>
<asrwt>0</asrwt>
<pdfrwt beam="1">  1        2 0.80734969E-03 0.95251719E+02</pdfrwt>
<pdfrwt beam="2">  1       -2 0.66496265E-01 0.95251719E+02</pdfrwt>
<totfact> 0.36124905E+04</totfact>
</mgrwt>
</event>
<event>
 7    1  0.3337990E-009  0.9007758E+02  0.7818608E-02  0.1302664E+00
         -2   -1    0    0    0  501 -0.00000000000E+00  0.00000000000E+00  0.24893302092E+03  0.24893302093E+03  0.25500000000E-02 0.  1.
          2   -1    0    0  501    0  0.00000000000E+00 -0.00000000000E+00 -0.81487486189E+01  0.81487490179E+01  0.25500000000E-02 0. -1.
         23    2    1    2    0    0  0.00000000000E+00  0.00000000000E+00  0.24078427230E+03  0.25708176995E+03  0.90077581304E+02 0.  0.
    9000005    2    3    3    0    0 -0.33510967988E+02  0.44079526696E+01  0.20387412646E+03  0.20703405383E+03  0.12490996219E+02 0.  0.
         22    1    3    3    0    0  0.33510967988E+02 -0.44079526696E+01  0.36910145846E+02  0.50047716117E+02  0.00000000000E+00 0. -1.
         22    1    4    4    0    0 -0.23596148167E+02  0.88077353974E+01  0.14287564670E+03  0.14507861604E+03  0.00000000000E+00 0. -1.
         22    1    4    4    0    0 -0.99148198210E+01 -0.43997827278E+01  0.60998479755E+02  0.61955437797E+02  0.00000000000E+00 0. -1.
<mgrwt>
<rscale>  0 0.90077581E+02</rscale>
<asrwt>0</asrwt>
<pdfrwt beam="2">  1        2 0.12536536E-02 0.90077581E+02</pdfrwt>
<pdfrwt beam="1">  1       -2 0.38297391E-01 0.90077581E+02</pdfrwt>
<totfact> 0.58075328E+04</totfact>
</mgrwt>
</event>
<event>
 7    1  0.3337990E-009  0.8978241E+02  0.7818608E-02  0.1303379E+00
         -2   -1    0    0    0  501 -0.00000000000E+00  0.00000000000E+00  0.10252878262E+03  0.10252878265E+03  0.25500000000E-02 0.  1.
          2   -1    0    0  501    0  0.00000000000E+00 -0.00000000000E+00 -0.19655165647E+02  0.19655165813E+02  0.25500000000E-02 0. -1.
         23    2    1    2    0    0  0.00000000000E+00  0.00000000000E+00  0.82873616974E+02  0.12218394847E+03  0.89782408479E+02 0.  0.
    9000005    2    3    3    0    0 -0.31704360601E+02 -0.24691496263E+02  0.68439757630E+02  0.79485321270E+02  0.43679977315E+01 0.  0.
         22    1    3    3    0    0  0.31704360601E+02  0.24691496263E+02  0.14433859345E+02  0.42698627196E+02  0.00000000000E+00 0. -1.
         22    1    4    4    0    0 -0.29166302921E+02 -0.23968612166E+02  0.63146829022E+02  0.73570983484E+02  0.00000000000E+00 0.  1.
         22    1    4    4    0    0 -0.25380576797E+01 -0.72288409693E+00  0.52929286071E+01  0.59143377857E+01  0.00000000000E+00 0.  1.
<mgrwt>
<rscale>  0 0.89782408E+02</rscale>
<asrwt>0</asrwt>
<pdfrwt beam="2">  1        2 0.30238716E-02 0.89782408E+02</pdfrwt>
<pdfrwt beam="1">  1       -2 0.15773659E-01 0.89782408E+02</pdfrwt>
<totfact> 0.82309331E+04</totfact>
</mgrwt>
</event>
<event>
 7    1  0.3337990E-009  0.9177584E+02  0.7818608E-02  0.1298607E+00
         -2   -1    0    0    0  501 -0.00000000000E+00  0.00000000000E+00  0.25596079111E+02  0.25596079238E+02  0.25500000000E-02 0.  1.
          2   -1    0    0  501    0  0.00000000000E+00 -0.00000000000E+00 -0.82266547309E+02  0.82266547349E+02  0.25500000000E-02 0. -1.
         23    2    1    2    0    0  0.00000000000E+00  0.00000000000E+00 -0.56670468198E+02  0.10786262659E+03  0.91775836953E+02 0.  0.
    9000005    2    3    3    0    0 -0.12280733675E+02 -0.36304290486E+02 -0.57240374068E+02  0.69533228992E+02  0.94652830568E+01 0.  0.
         22    1    3    3    0    0  0.12280733675E+02  0.36304290486E+02  0.56990586988E+00  0.38329397595E+02  0.00000000000E+00 0.  1.
         22    1    4    4    0    0 -0.83820576956E+00  0.42259843535E+00 -0.21012791313E+01  0.23014239804E+01  0.00000000000E+00 0. -1.
         22    1    4    4    0    0 -0.11442527905E+02 -0.36726888921E+02 -0.55139094937E+02  0.67231805012E+02  0.00000000000E+00 0. -1.
<mgrwt>
<rscale>  0 0.91775837E+02</rscale>
<asrwt>0</asrwt>
<pdfrwt beam="2">  1        2 0.12656392E-01 0.91775837E+02</pdfrwt>
<pdfrwt beam="1">  1       -2 0.39378584E-02 0.91775837E+02</pdfrwt>
<totfact> 0.11369221E+05</totfact>
</mgrwt>
</event>
<event>
 7    1  0.3337990E-009  0.9206922E+02  0.7818608E-02  0.1297917E+00
          2   -1    0    0  501    0  0.00000000000E+00  0.00000000000E+00  0.20106219109E+02  0.20106219270E+02  0.25500000000E-02 0. -1.
         -2   -1    0    0    0  501 -0.00000000000E+00 -0.00000000000E+00 -0.10539949350E+03  0.10539949353E+03  0.25500000000E-02 0.  1.
         23    2    1    2    0    0  0.00000000000E+00  0.35527136788E-14 -0.85293274395E+02  0.12550571280E+03  0.92069220099E+02 0.  0.
    9000005    2    3    3    0    0  0.19255801952E+02 -0.25597184290E+02  0.87867474599E+00  0.33573093071E+02  0.10018919934E+02 0.  0.
         22    1    3    3    0    0 -0.19255801952E+02  0.25597184290E+02 -0.86171949141E+02  0.91932619734E+02  0.00000000000E+00 0. -1.
         22    1    4    4    0    0  0.69466506217E+01 -0.16853375308E+02 -0.14903818668E+01  0.18289708916E+02  0.00000000000E+00 0.  1.
         22    1    4    4    0    0  0.12309151330E+02 -0.87438089826E+01  0.23690566128E+01  0.15283384155E+02  0.00000000000E+00 0.  1.
<mgrwt>
<rscale>  0 0.92069220E+02</rscale>
<asrwt>0</asrwt>
<pdfrwt beam="1">  1        2 0.30932646E-02 0.92069220E+02</pdfrwt>
<pdfrwt beam="2">  1       -2 0.16215306E-01 0.92069220E+02</pdfrwt>
<totfact> 0.76663097E+04</totfact>
</mgrwt>
</event>
<event>
 7    1  0.3337990E-009  0.8613700E+02  0.7818608E-02  0.1312486E+00
          2   -1    0    0  501    0  0.00000000000E+00  0.00000000000E+00  0.24902363553E+03  0.24902363554E+03  0.25500000000E-02 0. -1.
         -2   -1    0    0    0  501 -0.00000000000E+00 -0.00000000000E+00 -0.74486731555E+01  0.74486735920E+01  0.25500000000E-02 0.  1.
         23    2    1    2    0    0  0.00000000000E+00 -0.35527136788E-14  0.24157496237E+03  0.25647230913E+03  0.86137000799E+02 0.  0.
    9000005    2    3    3    0    0  0.35793865992E+02  0.20229801418E+02  0.93727974898E+02  0.10301489676E+03  0.11691448465E+02 0.  0.
         22    1    3    3    0    0 -0.35793865992E+02 -0.20229801418E+02  0.14784698747E+03  0.15345741238E+03  0.00000000000E+00 0. -1.
         22    1    4    4    0    0  0.31536747929E+02  0.21372984090E+02  0.80235441082E+02  0.88820588404E+02  0.00000000000E+00 0. -1.
         22    1    4    4    0    0  0.42571180629E+01 -0.11431826720E+01  0.13492533816E+02  0.14194308353E+02  0.00000000000E+00 0. -1.
<mgrwt>
<rscale>  0 0.86137001E+02</rscale>
<asrwt>0</asrwt>
<pdfrwt beam="1">  1        2 0.38311323E-01 0.86137001E+02</pdfrwt>
<pdfrwt beam="2">  1       -2 0.11459499E-02 0.86137001E+02</pdfrwt>
<totfact> 0.19507764E+05</totfact>
</mgrwt>
</event>
<event>
 7    1  0.3337990E-009  0.9180170E+02  0.7818608E-02  0.1298546E+00
          2   -1    0    0  501    0  0.00000000000E+00  0.00000000000E+00  0.80753383613E+03  0.80753383614E+03  0.25500000000E-02 0. -1.
         -2   -1    0    0    0  501 -0.00000000000E+00 -0.00000000000E+00 -0.26090393588E+01  0.26090406050E+01  0.25500000000E-02 0.  1.
         23    2    1    2    0    0  0.00000000000E+00  0.00000000000E+00  0.80492479677E+03  0.81014287674E+03  0.91801700823E+02 0.  0.
    9000005    2    3    3    0    0  0.28632287269E+02  0.25115026763E+01  0.71772018239E+03  0.71832370505E+03  0.63694199321E+01 0.  0.
         22    1    3    3    0    0 -0.28632287269E+02 -0.25115026763E+01  0.87204614390E+02  0.91819171695E+02  0.00000000000E+00 0.  1.
         22    1    4    4    0    0  0.37712066326E+01 -0.17811704475E+01  0.89453806996E+02  0.89550980753E+02  0.00000000000E+00 0.  1.
         22    1    4    4    0    0  0.24861080636E+02  0.42926731237E+01  0.62826637539E+03  0.62877272429E+03  0.00000000000E+00 0.  1.
<mgrwt>
<rscale>  0 0.91801701E+02</rscale>
<asrwt>0</asrwt>
<pdfrwt beam="1">  1        2 0.12423603E+00 0.91801701E+02</pdfrwt>
<pdfrwt beam="2">  1       -2 0.40139059E-03 0.91801701E+02</pdfrwt>
<totfact> 0.23977913E+05</totfact>
</mgrwt>
</event>
<event>
 7    1  0.3337990E-009  0.1053428E+03  0.7818608E-02  0.1269446E+00
          2   -1    0    0  501    0  0.00000000000E+00  0.00000000000E+00  0.10911942963E+02  0.10911943261E+02  0.25500000000E-02 0. -1.
         -2   -1    0    0    0  501 -0.00000000000E+00 -0.00000000000E+00 -0.25424215884E+03  0.25424215885E+03  0.25500000000E-02 0.  1.
         23    2    1    2    0    0  0.00000000000E+00 -0.35527136788E-14 -0.24333021587E+03  0.26515410211E+03  0.10534279239E+03 0.  0.
    9000005    2    3    3    0    0 -0.40099474926E+02 -0.20931058431E+02 -0.59146317473E+02  0.75497081343E+02  0.12467771429E+02 0.  0.
         22    1    3    3    0    0  0.40099474926E+02  0.20931058431E+02 -0.18418389840E+03  0.18965702077E+03  0.00000000000E+00 0.  1.
         22    1    4    4    0    0 -0.21190920132E+02 -0.11715081171E+02 -0.21541247753E+02  0.32408696018E+02  0.00000000000E+00 0.  1.
         22    1    4    4    0    0 -0.18908554794E+02 -0.92159772597E+01 -0.37605069720E+02  0.43088385325E+02  0.00000000000E+00 0.  1.
<mgrwt>
<rscale>  0 0.10534279E+03</rscale>
<asrwt>0</asrwt>
<pdfrwt beam="1">  1        2 0.16787607E-02 0.10534279E+03</pdfrwt>
<pdfrwt beam="2">  1       -2 0.39114174E-01 0.10534279E+03</pdfrwt>
<totfact> 0.38405711E+04</totfact>
</mgrwt>
</event>
<event>
 7    1  0.3337990E-009  0.8991044E+02  0.7818608E-02  0.1303069E+00
          2   -1    0    0  501    0  0.00000000000E+00  0.00000000000E+00  0.25421161780E+03  0.25421161782E+03  0.25500000000E-02 0. -1.
         -2   -1    0    0    0  501 -0.00000000000E+00 -0.00000000000E+00 -0.79499587293E+01  0.79499591382E+01  0.25500000000E-02 0.  1.
         23    2    1    2    0    0  0.00000000000E+00 -0.35527136788E-14  0.24626165908E+03  0.26216157696E+03  0.89910442671E+02 0.  0.
    9000005    2    3    3    0    0  0.13422284882E+02 -0.28008405719E+02  0.21657742301E+03  0.21919900728E+03  0.13334020867E+02 0.  0.
         22    1    3    3    0    0 -0.13422284882E+02  0.28008405719E+02  0.29684236066E+02  0.42962569676E+02  0.00000000000E+00 0.  1.
         22    1    4    4    0    0  0.44884920618E+01 -0.20086862985E+02  0.16378594771E+03  0.16507412061E+03  0.00000000000E+00 0. -1.
         22    1    4    4    0    0  0.89337928201E+01 -0.79215427344E+01  0.52791475295E+02  0.54124886672E+02  0.00000000000E+00 0. -1.
<mgrwt>
<rscale>  0 0.89910443E+02</rscale>
<asrwt>0</asrwt>
<pdfrwt beam="1">  1        2 0.39109486E-01 0.89910443E+02</pdfrwt>
<pdfrwt beam="2">  1       -2 0.12230704E-02 0.89910443E+02</pdfrwt>
<totfact> 0.17533732E+05</totfact>
</mgrwt>
</event>
<event>
 7    1  0.3337990E-009  0.9704363E+02  0.7818608E-02  0.1286639E+00
         -2   -1    0    0    0  501 -0.00000000000E+00  0.00000000000E+00  0.20850201006E+02  0.20850201162E+02  0.25500000000E-02 0.  1.
          2   -1    0    0  501    0  0.00000000000E+00 -0.00000000000E+00 -0.11291816615E+03  0.11291816618E+03  0.25500000000E-02 0. -1.
         23    2    1    2    0    0  0.00000000000E+00  0.35527136788E-14 -0.92067965143E+02  0.13376836734E+03  0.97043628824E+02 0.  0.
    9000005    2    3    3    0    0  0.42416700104E+02 -0.18826498990E+02 -0.61547336920E+02  0.78224490459E+02  0.13318510187E+02 0.  0.
         22    1    3    3    0    0 -0.42416700104E+02  0.18826498990E+02 -0.30520628222E+02  0.55543876882E+02  0.00000000000E+00 0.  1.
         22    1    4    4    0    0  0.44880204393E-01 -0.14503431676E+01 -0.62953086542E+01  0.64603730997E+01  0.00000000000E+00 0.  1.
         22    1    4    4    0    0  0.42371819900E+02 -0.17376155822E+02 -0.55252028266E+02  0.71764117359E+02  0.00000000000E+00 0.  1.
<mgrwt>
<rscale>  0 0.97043629E+02</rscale>
<asrwt>0</asrwt>
<pdfrwt beam="2">  1        2 0.17372025E-01 0.97043629E+02</pdfrwt>
<pdfrwt beam="1">  1       -2 0.32077233E-02 0.97043629E+02</pdfrwt>
<totfact> 0.10727617E+05</totfact>
</mgrwt>
</event>
<event>
 7    1  0.3337990E-009  0.9055164E+02  0.7818608E-02  0.1301521E+00
         -2   -1    0    0    0  501 -0.00000000000E+00  0.00000000000E+00  0.15500606791E+02  0.15500607000E+02  0.25500000000E-02 0.  1.
          2   -1    0    0  501    0  0.00000000000E+00 -0.00000000000E+00 -0.13224643987E+03  0.13224643990E+03  0.25500000000E-02 0. -1.
         23    2    1    2    0    0 -0.35527136788E-14 -0.17763568394E-14 -0.11674583308E+03  0.14774704690E+03  0.90551644517E+02 0.  0.
    9000005    2    3    3    0    0 -0.20351688835E+02 -0.10575911462E+02  0.20329601250E+01  0.26774145562E+02  0.13663118312E+02 0.  0.
         22    1    3    3    0    0  0.20351688835E+02  0.10575911462E+02 -0.11877879321E+03  0.12097290133E+03  0.00000000000E+00 0. -1.
         22    1    4    4    0    0 -0.16994190045E+02 -0.32428336941E+01  0.52669131156E+01  0.18084768161E+02  0.00000000000E+00 0.  1.
         22    1    4    4    0    0 -0.33574987902E+01 -0.73330777682E+01 -0.32339529906E+01  0.86893774016E+01  0.00000000000E+00 0.  1.
<mgrwt>
<rscale>  0 0.90551645E+02</rscale>
<asrwt>0</asrwt>
<pdfrwt beam="2">  1        2 0.20345605E-01 0.90551645E+02</pdfrwt>
<pdfrwt beam="1">  1       -2 0.23847088E-02 0.90551645E+02</pdfrwt>
<totfact> 0.13656798E+05</totfact>
</mgrwt>
</event>
<event>
 7    1  0.3337990E-009  0.9091118E+02  0.7818608E-02  0.1300660E+00
          2   -1    0    0  501    0  0.00000000000E+00  0.00000000000E+00  0.31036022635E+02  0.31036022740E+02  0.25500000000E-02 0. -1.
         -2   -1    0    0    0  501 -0.00000000000E+00 -0.00000000000E+00 -0.66574592270E+02  0.66574592318E+02  0.25500000000E-02 0.  1.
         23    2    1    2    0    0  0.00000000000E+00  0.00000000000E+00 -0.35538569635E+02  0.97610615058E+02  0.90911177752E+02 0.  0.
    9000005    2    3    3    0    0  0.40087207388E+02  0.18496671674E+01 -0.40031949710E+02  0.57229977008E+02  0.78935293724E+01 0.  0.
         22    1    3    3    0    0 -0.40087207388E+02 -0.18496671674E+01  0.44933800752E+01  0.40380638050E+02  0.00000000000E+00 0. -1.
         22    1    4    4    0    0  0.17665460887E+02  0.20440256500E+01 -0.12572853847E+02  0.21778962397E+02  0.00000000000E+00 0.  1.
         22    1    4    4    0    0  0.22421746501E+02 -0.19435848260E+00 -0.27459095863E+02  0.35451014611E+02  0.00000000000E+00 0.  1.
<mgrwt>
<rscale>  0 0.90911178E+02</rscale>
<asrwt>0</asrwt>
<pdfrwt beam="1">  1        2 0.47747728E-02 0.90911178E+02</pdfrwt>
<pdfrwt beam="2">  1       -2 0.10242245E-01 0.90911178E+02</pdfrwt>
<totfact> 0.90042977E+04</totfact>
</mgrwt>
</event>
<event>
 7    1  0.3337990E-009  0.8527553E+02  0.7818608E-02  0.1314714E+00
          2   -1    0    0  501    0  0.00000000000E+00  0.00000000000E+00  0.19674747762E+02  0.19674747927E+02  0.25500000000E-02 0. -1.
         -2   -1    0    0    0  501 -0.00000000000E+00 -0.00000000000E+00 -0.92401649593E+02  0.92401649629E+02  0.25500000000E-02 0.  1.
         23    2    1    2    0    0  0.35527136788E-14  0.00000000000E+00 -0.72726901832E+02  0.11207639756E+03  0.85275533648E+02 0.  0.
    9000005    2    3    3    0    0 -0.31074556449E+02  0.26625868737E+02 -0.50889725342E+02  0.65692917505E+02  0.71575359238E+01 0.  0.
         22    1    3    3    0    0  0.31074556449E+02 -0.26625868737E+02 -0.21837176490E+02  0.46383480050E+02  0.00000000000E+00 0. -1.
         22    1    4    4    0    0 -0.10207971283E+02  0.63776840350E+01 -0.19417188612E+02  0.22845234623E+02  0.00000000000E+00 0.  1.
         22    1    4    4    0    0 -0.20866585167E+02  0.20248184702E+02 -0.31472536730E+02  0.42847682883E+02  0.00000000000E+00 0.  1.
<mgrwt>
<rscale>  0 0.85275534E+02</rscale>
<asrwt>0</asrwt>
<pdfrwt beam="1">  1        2 0.30268843E-02 0.85275534E+02</pdfrwt>
<pdfrwt beam="2">  1       -2 0.14215638E-01 0.85275534E+02</pdfrwt>
<totfact> 0.96411756E+04</totfact>
</mgrwt>
</event>
<event>
 7    1  0.3337990E-009  0.9048144E+02  0.7818608E-02  0.1301690E+00
         -2   -1    0    0    0  501 -0.00000000000E+00  0.00000000000E+00  0.24450060129E+03  0.24450060130E+03  0.25500000000E-02 0. -1.
          2   -1    0    0  501    0  0.00000000000E+00 -0.00000000000E+00 -0.83710336214E+01  0.83710340098E+01  0.25500000000E-02 0.  1.
         23    2    1    2    0    0  0.00000000000E+00  0.00000000000E+00  0.23612956767E+03  0.25287163531E+03  0.90481441293E+02 0.  0.
    9000005    2    3    3    0    0 -0.19641004415E+02  0.27697088009E+02  0.20060651953E+03  0.20373117655E+03  0.10512796075E+02 0.  0.
         22    1    3    3    0    0  0.19641004415E+02 -0.27697088009E+02  0.35523048141E+02  0.49140458766E+02  0.00000000000E+00 0.  1.
         22    1    4    4    0    0 -0.15607507340E+02  0.27062808753E+02  0.18377575941E+03  0.18641223042E+03  0.00000000000E+00 0. -1.
         22    1    4    4    0    0 -0.40334970748E+01  0.63427925569E+00  0.16830760118E+02  0.17318946127E+02  0.00000000000E+00 0. -1.
<mgrwt>
<rscale>  0 0.90481441E+02</rscale>
<asrwt>0</asrwt>
<pdfrwt beam="2">  1        2 0.12878514E-02 0.90481441E+02</pdfrwt>
<pdfrwt beam="1">  1       -2 0.37615475E-01 0.90481441E+02</pdfrwt>
<totfact> 0.57925450E+04</totfact>
</mgrwt>
</event>
<event>
 7    1  0.3337990E-009  0.8386931E+02  0.7818608E-02  0.1318416E+00
          2   -1    0    0  501    0  0.00000000000E+00  0.00000000000E+00  0.40324904325E+02  0.40324904406E+02  0.25500000000E-02 0. -1.
         -2   -1    0    0    0  501 -0.00000000000E+00 -0.00000000000E+00 -0.43608670286E+02  0.43608670361E+02  0.25500000000E-02 0.  1.
         23    2    1    2    0    0  0.00000000000E+00  0.00000000000E+00 -0.32837659609E+01  0.83933574767E+02  0.83869314140E+02 0.  0.
    9000005    2    3    3    0    0  0.23933043248E+02  0.32214248716E+02 -0.92072188566E+01  0.43367139458E+02  0.13615708802E+02 0.  0.
         22    1    3    3    0    0 -0.23933043248E+02 -0.32214248716E+02  0.59234528957E+01  0.40566435309E+02  0.00000000000E+00 0. -1.
         22    1    4    4    0    0  0.24870456520E+02  0.31685179502E+02 -0.69622005118E+01  0.40877407495E+02  0.00000000000E+00 0.  1.
         22    1    4    4    0    0 -0.93741327148E+00  0.52906921431E+00 -0.22450183448E+01  0.24897319622E+01  0.00000000000E+00 0.  1.
<mgrwt>
<rscale>  0 0.83869314E+02</rscale>
<asrwt>0</asrwt>
<pdfrwt beam="1">  1        2 0.62038315E-02 0.83869314E+02</pdfrwt>
<pdfrwt beam="2">  1       -2 0.67090262E-02 0.83869314E+02</pdfrwt>
<totfact> 0.12146148E+05</totfact>
</mgrwt>
</event>
<event>
 7    1  0.3337990E-009  0.9504958E+02  0.7818608E-02  0.1291064E+00
          2   -1    0    0  501    0  0.00000000000E+00  0.00000000000E+00  0.52409623773E+03  0.52409623774E+03  0.25500000000E-02 0. -1.
         -2   -1    0    0    0  501 -0.00000000000E+00 -0.00000000000E+00 -0.43095238882E+01  0.43095246426E+01  0.25500000000E-02 0.  1.
         23    2    1    2    0    0  0.00000000000E+00  0.00000000000E+00  0.51978671384E+03  0.52840576238E+03  0.95049575636E+02 0.  0.
    9000005    2    3    3    0    0  0.11082664503E+02 -0.17232769347E+02  0.49809986553E+03  0.49857099773E+03  0.70547818516E+01 0.  0.
         22    1    3    3    0    0 -0.11082664503E+02  0.17232769347E+02  0.21686848315E+02  0.29834764649E+02  0.00000000000E+00 0.  1.
         22    1    4    4    0    0 -0.12599831644E+00 -0.50597231246E+01  0.10159639582E+03  0.10172238848E+03  0.00000000000E+00 0. -1.
         22    1    4    4    0    0  0.11208662820E+02 -0.12173046222E+02  0.39650346970E+03  0.39684860925E+03  0.00000000000E+00 0. -1.
<mgrwt>
<rscale>  0 0.95049576E+02</rscale>
<asrwt>0</asrwt>
<pdfrwt beam="1">  1        2 0.80630168E-01 0.95049576E+02</pdfrwt>
<pdfrwt beam="2">  1       -2 0.66300392E-03 0.95049576E+02</pdfrwt>
<totfact> 0.19592232E+05</totfact>
</mgrwt>
</event>
<event>
 7    1  0.3337990E-009  0.9074442E+02  0.7818608E-02  0.1301059E+00
          2   -1    0    0  501    0  0.00000000000E+00  0.00000000000E+00  0.16688596236E+02  0.16688596431E+02  0.25500000000E-02 0. -1.
         -2   -1    0    0    0  501 -0.00000000000E+00 -0.00000000000E+00 -0.12335593194E+03  0.12335593196E+03  0.25500000000E-02 0.  1.
         23    2    1    2    0    0  0.00000000000E+00  0.00000000000E+00 -0.10666733570E+03  0.14004452839E+03  0.90744418162E+02 0.  0.
    9000005    2    3    3    0    0 -0.28869946714E+02  0.11119183619E+02 -0.10372655771E+03  0.10896787731E+03  0.12557445731E+02 0.  0.
         22    1    3    3    0    0  0.28869946714E+02 -0.11119183619E+02 -0.29407779939E+01  0.31076651088E+02  0.00000000000E+00 0. -1.
         22    1    4    4    0    0 -0.81496593435E+01  0.17926312384E+01 -0.13066650779E+02  0.15503800720E+02  0.00000000000E+00 0. -1.
         22    1    4    4    0    0 -0.20720287371E+02  0.93265523803E+01 -0.90659906928E+02  0.93464076586E+02  0.00000000000E+00 0. -1.
<mgrwt>
<rscale>  0 0.90744418E+02</rscale>
<asrwt>0</asrwt>
<pdfrwt beam="1">  1        2 0.25674764E-02 0.90744418E+02</pdfrwt>
<pdfrwt beam="2">  1       -2 0.18977835E-01 0.90744418E+02</pdfrwt>
<totfact> 0.75639634E+04</totfact>
</mgrwt>
</event>
<event>
 7    1  0.3337990E-009  0.9134182E+02  0.7818608E-02  0.1299634E+00
         -2   -1    0    0    0  501 -0.00000000000E+00  0.00000000000E+00  0.62201252082E+02  0.62201252134E+02  0.25500000000E-02 0.  1.
          2   -1    0    0  501    0  0.00000000000E+00 -0.00000000000E+00 -0.33533600198E+02  0.33533600295E+02  0.25500000000E-02 0. -1.
         23    2    1    2    0    0  0.17763568394E-14  0.00000000000E+00  0.28667651884E+02  0.95734852429E+02  0.91341817943E+02 0.  0.
    9000005    2    3    3    0    0  0.85547565487E+01 -0.10461425106E+02  0.59858203967E+02  0.61742561919E+02  0.68201242859E+01 0.  0.
         22    1    3    3    0    0 -0.85547565487E+01  0.10461425106E+02 -0.31190552084E+02  0.33992290510E+02  0.00000000000E+00 0. -1.
         22    1    4    4    0    0  0.93975414584E+01 -0.79478107261E+01  0.45157415663E+02  0.46804632999E+02  0.00000000000E+00 0. -1.
         22    1    4    4    0    0 -0.84278490965E+00 -0.25136143803E+01  0.14700788304E+02  0.14937928920E+02  0.00000000000E+00 0. -1.
<mgrwt>
<rscale>  0 0.91341818E+02</rscale>
<asrwt>0</asrwt>
<pdfrwt beam="2">  1        2 0.51590155E-02 0.91341818E+02</pdfrwt>
<pdfrwt beam="1">  1       -2 0.95694232E-02 0.91341818E+02</pdfrwt>
<totfact> 0.90627647E+04</totfact>
</mgrwt>
</event>
<event>
 7    1  0.3337990E-009  0.9049994E+02  0.7818608E-02  0.1301646E+00
          2   -1    0    0  501    0  0.00000000000E+00  0.00000000000E+00  0.93825484491E+03  0.93825484491E+03  0.25500000000E-02 0. -1.
         -2   -1    0    0    0  501 -0.00000000000E+00 -0.00000000000E+00 -0.21823057009E+01  0.21823071907E+01  0.25500000000E-02 0.  1.
         23    2    1    2    0    0  0.00000000000E+00  0.00000000000E+00  0.93607253921E+03  0.94043715210E+03  0.90499935891E+02 0.  0.
    9000005    2    3    3    0    0  0.30529478873E+02 -0.12430329475E+02  0.78806155760E+03  0.78880004303E+03  0.88276354775E+01 0.  0.
         22    1    3    3    0    0 -0.30529478873E+02  0.12430329475E+02  0.14801098161E+03  0.15163710908E+03  0.00000000000E+00 0.  1.
         22    1    4    4    0    0  0.23344964391E+02 -0.13320186902E+02  0.61401261411E+03  0.61460060611E+03  0.00000000000E+00 0. -1.
         22    1    4    4    0    0  0.71845144816E+01  0.88985742665E+00  0.17404894349E+03  0.17419943692E+03  0.00000000000E+00 0. -1.
<mgrwt>
<rscale>  0 0.90499936E+02</rscale>
<asrwt>0</asrwt>
<pdfrwt beam="1">  1        2 0.14434718E+00 0.90499936E+02</pdfrwt>
<pdfrwt beam="2">  1       -2 0.33573880E-03 0.90499936E+02</pdfrwt>
<totfact> 0.25390482E+05</totfact>
</mgrwt>
</event>
<event>
 7    1  0.3337990E-009  0.9014396E+02  0.7818608E-02  0.1302503E+00
          2   -1    0    0  501    0  0.00000000000E+00  0.00000000000E+00  0.29835858130E+02  0.29835858239E+02  0.25500000000E-02 0. -1.
         -2   -1    0    0    0  501 -0.00000000000E+00 -0.00000000000E+00 -0.68088645499E+02  0.68088645546E+02  0.25500000000E-02 0.  1.
         23    2    1    2    0    0 -0.17763568394E-14  0.00000000000E+00 -0.38252787368E+02  0.97924503786E+02  0.90143955428E+02 0.  0.
    9000005    2    3    3    0    0 -0.95558839865E+01  0.39901550566E+02 -0.33604530746E+00  0.42057447439E+02  0.92340295817E+01 0.  0.
         22    1    3    3    0    0  0.95558839865E+01 -0.39901550566E+02 -0.37916742061E+02  0.55867056347E+02  0.00000000000E+00 0.  1.
         22    1    4    4    0    0 -0.60479847556E+00  0.12246177181E+02  0.34669799140E+01  0.12741843919E+02  0.00000000000E+00 0.  1.
         22    1    4    4    0    0 -0.89510855109E+01  0.27655373385E+02 -0.38030252215E+01  0.29315603520E+02  0.00000000000E+00 0.  1.
<mgrwt>
<rscale>  0 0.90143955E+02</rscale>
<asrwt>0</asrwt>
<pdfrwt beam="1">  1        2 0.45901321E-02 0.90143955E+02</pdfrwt>
<pdfrwt beam="2">  1       -2 0.10475176E-01 0.90143955E+02</pdfrwt>
<totfact> 0.91369371E+04</totfact>
</mgrwt>
</event>
<event>
 7    1  0.3337990E-009  0.9216093E+02  0.7818608E-02  0.1297701E+00
         -2   -1    0    0    0  501 -0.00000000000E+00  0.00000000000E+00  0.17196258474E+02  0.17196258663E+02  0.25500000000E-02 0.  1.
          2   -1    0    0  501    0  0.00000000000E+00 -0.00000000000E+00 -0.12348088047E+03  0.12348088050E+03  0.25500000000E-02 0. -1.
         23    2    1    2    0    0  0.17763568394E-14  0.00000000000E+00 -0.10628462200E+03  0.14067713916E+03  0.92160927781E+02 0.  0.
    9000005    2    3    3    0    0 -0.93000643938E+01 -0.41558334936E+02 -0.28260452546E+02  0.51787559238E+02  0.83493540637E+01 0.  0.
         22    1    3    3    0    0  0.93000643938E+01  0.41558334936E+02 -0.78024169451E+02  0.88889579923E+02  0.00000000000E+00 0.  1.
         22    1    4    4    0    0 -0.84349109954E+01 -0.18685993584E+02 -0.13808134025E+02  0.24717982219E+02  0.00000000000E+00 0. -1.
         22    1    4    4    0    0 -0.86515339839E+00 -0.22872341353E+02 -0.14452318521E+02  0.27069577019E+02  0.00000000000E+00 0. -1.
<mgrwt>
<rscale>  0 0.92160928E+02</rscale>
<asrwt>0</asrwt>
<pdfrwt beam="2">  1        2 0.18997058E-01 0.92160928E+02</pdfrwt>
<pdfrwt beam="1">  1       -2 0.26455783E-02 0.92160928E+02</pdfrwt>
<totfact> 0.12727173E+05</totfact>
</mgrwt>
</event>
<event>
 7    1  0.3337990E-009  0.9850202E+02  0.7818608E-02  0.1283478E+00
         -2   -1    0    0    0  501 -0.00000000000E+00  0.00000000000E+00  0.23551649140E+02  0.23551649278E+02  0.25500000000E-02 0. -1.
          2   -1    0    0  501    0  0.00000000000E+00 -0.00000000000E+00 -0.10299330004E+03  0.10299330008E+03  0.25500000000E-02 0.  1.
         23    2    1    2    0    0  0.00000000000E+00  0.00000000000E+00 -0.79441650904E+02  0.12654494935E+03  0.98502021851E+02 0.  0.
    9000005    2    3    3    0    0  0.34083589689E+02 -0.27735120753E+02 -0.67724140062E+02  0.81067173797E+02  0.73756024187E+01 0.  0.
         22    1    3    3    0    0 -0.34083589689E+02  0.27735120753E+02 -0.11717510842E+02  0.45477775557E+02  0.00000000000E+00 0. -1.
         22    1    4    4    0    0  0.66300726926E+01 -0.55357433802E+01 -0.19245201493E+02  0.21094551410E+02  0.00000000000E+00 0.  1.
         22    1    4    4    0    0  0.27453516996E+02 -0.22199377373E+02 -0.48478938569E+02  0.59972622387E+02  0.00000000000E+00 0.  1.
<mgrwt>
<rscale>  0 0.98502022E+02</rscale>
<asrwt>0</asrwt>
<pdfrwt beam="2">  1        2 0.15845123E-01 0.98502022E+02</pdfrwt>
<pdfrwt beam="1">  1       -2 0.36233307E-02 0.98502022E+02</pdfrwt>
<totfact> 0.99953520E+04</totfact>
</mgrwt>
</event>
<event>
 7    1  0.3337990E-009  0.8980382E+02  0.7818608E-02  0.1303327E+00
          2   -1    0    0  501    0  0.00000000000E+00  0.00000000000E+00  0.40504942379E+03  0.40504942379E+03  0.25500000000E-02 0. -1.
         -2   -1    0    0    0  501 -0.00000000000E+00 -0.00000000000E+00 -0.49776180351E+01  0.49776186883E+01  0.25500000000E-02 0.  1.
         23    2    1    2    0    0 -0.35527136788E-14  0.00000000000E+00  0.40007180575E+03  0.41002704248E+03  0.89803818460E+02 0.  0.
    9000005    2    3    3    0    0  0.23282325580E+02 -0.35462779763E+02  0.14702114178E+03  0.15344505955E+03  0.11423429210E+02 0.  0.
         22    1    3    3    0    0 -0.23282325580E+02  0.35462779763E+02  0.25305066397E+03  0.25658198294E+03  0.00000000000E+00 0.  1.
         22    1    4    4    0    0  0.71152192724E+01 -0.35381245236E+01  0.21453960315E+02  0.22878310332E+02  0.00000000000E+00 0. -1.
         22    1    4    4    0    0  0.16167106308E+02 -0.31924655240E+02  0.12556718147E+03  0.13056674922E+03  0.00000000000E+00 0. -1.
<mgrwt>
<rscale>  0 0.89803818E+02</rscale>
<asrwt>0</asrwt>
<pdfrwt beam="1">  1        2 0.62315287E-01 0.89803818E+02</pdfrwt>
<pdfrwt beam="2">  1       -2 0.76578755E-03 0.89803818E+02</pdfrwt>
<totfact> 0.20875113E+05</totfact>
</mgrwt>
</event>
<event>
 7    1  0.3337990E-009  0.9274273E+02  0.7818608E-02  0.1296342E+00
          2   -1    0    0  501    0  0.00000000000E+00  0.00000000000E+00  0.22168759855E+03  0.22168759856E+03  0.25500000000E-02 0. -1.
         -2   -1    0    0    0  501 -0.00000000000E+00 -0.00000000000E+00 -0.96997017029E+01  0.96997020381E+01  0.25500000000E-02 0.  1.
         23    2    1    2    0    0  0.00000000000E+00 -0.35527136788E-14  0.21198789684E+03  0.23138730060E+03  0.92742732709E+02 0.  0.
    9000005    2    3    3    0    0 -0.17588025289E+01 -0.27681967870E+02  0.19865962841E+03  0.20061348915E+03  0.32770930493E+01 0.  0.
         22    1    3    3    0    0  0.17588025289E+01  0.27681967870E+02  0.13328268435E+02  0.30773811447E+02  0.00000000000E+00 0.  1.
         22    1    4    4    0    0 -0.57158031613E+00 -0.17802051665E+02  0.13767078450E+03  0.13881817119E+03  0.00000000000E+00 0. -1.
         22    1    4    4    0    0 -0.11872222128E+01 -0.98799162047E+01  0.60988843909E+02  0.61795317963E+02  0.00000000000E+00 0. -1.
<mgrwt>
<rscale>  0 0.92742733E+02</rscale>
<asrwt>0</asrwt>
<pdfrwt beam="1">  1        2 0.34105782E-01 0.92742733E+02</pdfrwt>
<pdfrwt beam="2">  1       -2 0.14922619E-02 0.92742733E+02</pdfrwt>
<totfact> 0.15339836E+05</totfact>
</mgrwt>
</event>
<event>
 7    1  0.3337990E-009  0.9015767E+02  0.7818608E-02  0.1302470E+00
          2   -1    0    0  501    0  0.00000000000E+00  0.00000000000E+00  0.96227383005E+03  0.96227383005E+03  0.25500000000E-02 0. -1.
         -2   -1    0    0    0  501 -0.00000000000E+00 -0.00000000000E+00 -0.21117696455E+01  0.21117711851E+01  0.25500000000E-02 0.  1.
         23    2    1    2    0    0  0.00000000000E+00  0.00000000000E+00  0.96016206041E+03  0.96438560124E+03  0.90157670976E+02 0.  0.
    9000005    2    3    3    0    0  0.19630630608E+02  0.32755307635E+02  0.73298505629E+03  0.73402140473E+03  0.78776909898E+01 0.  0.
         22    1    3    3    0    0 -0.19630630608E+02 -0.32755307635E+02  0.22717700412E+03  0.23036419651E+03  0.00000000000E+00 0. -1.
         22    1    4    4    0    0 -0.47134597194E+00  0.17690310270E+01  0.55572593180E+02  0.55602740495E+02  0.00000000000E+00 0.  1.
         22    1    4    4    0    0  0.20101976580E+02  0.30986276608E+02  0.67741246311E+03  0.67841866423E+03  0.00000000000E+00 0.  1.
<mgrwt>
<rscale>  0 0.90157671E+02</rscale>
<asrwt>0</asrwt>
<pdfrwt beam="1">  1        2 0.14804217E+00 0.90157671E+02</pdfrwt>
<pdfrwt beam="2">  1       -2 0.32488766E-03 0.90157671E+02</pdfrwt>
<totfact> 0.25695720E+05</totfact>
</mgrwt>
</event>
<event>
 7    1  0.3337990E-009  0.9040095E+02  0.7818608E-02  0.1301884E+00
         -2   -1    0    0    0  501 -0.00000000000E+00  0.00000000000E+00  0.71052443194E+01  0.71052447770E+01  0.25500000000E-02 0.  1.
          2   -1    0    0  501    0  0.00000000000E+00 -0.00000000000E+00 -0.28754576386E+03  0.28754576388E+03  0.25500000000E-02 0. -1.
         23    2    1    2    0    0  0.00000000000E+00  0.00000000000E+00 -0.28044051954E+03  0.29465100865E+03  0.90400950755E+02 0.  0.
    9000005    2    3    3    0    0  0.35937962681E+02  0.18935740953E+02 -0.82809623083E+02  0.92888597180E+02  0.10989011046E+02 0.  0.
         22    1    3    3    0    0 -0.35937962681E+02 -0.18935740953E+02 -0.19763089646E+03  0.20176241147E+03  0.00000000000E+00 0. -1.
         22    1    4    4    0    0  0.61846276574E+01  0.83853805896E+01 -0.23319166047E+02  0.25541098881E+02  0.00000000000E+00 0.  1.
         22    1    4    4    0    0  0.29753335023E+02  0.10550360364E+02 -0.59490457036E+02  0.67347498299E+02  0.00000000000E+00 0.  1.
<mgrwt>
<rscale>  0 0.90400951E+02</rscale>
<asrwt>0</asrwt>
<pdfrwt beam="2">  1        2 0.44237801E-01 0.90400951E+02</pdfrwt>
<pdfrwt beam="1">  1       -2 0.10931148E-02 0.90400951E+02</pdfrwt>
<totfact> 0.18092151E+05</totfact>
</mgrwt>
</event>
<event>
 7    1  0.3337990E-009  0.9015365E+02  0.7818608E-02  0.1302480E+00
         -2   -1    0    0    0  501 -0.00000000000E+00  0.00000000000E+00  0.24711097639E+03  0.24711097640E+03  0.25500000000E-02 0.  1.
          2   -1    0    0  501    0  0.00000000000E+00 -0.00000000000E+00 -0.82227020560E+01  0.82227024514E+01  0.25500000000E-02 0. -1.
         23    2    1    2    0    0  0.00000000000E+00  0.00000000000E+00  0.23888827433E+03  0.25533367885E+03  0.90153646310E+02 0.  0.
    9000005    2    3    3    0    0 -0.21749877802E+02  0.34697896318E+02  0.16879758433E+03  0.17415667460E+03  0.12685489402E+02 0.  0.
         22    1    3    3    0    0  0.21749877802E+02 -0.34697896318E+02  0.70090690003E+02  0.81177004246E+02  0.00000000000E+00 0. -1.
         22    1    4    4    0    0 -0.22582926552E+02  0.34413000672E+02  0.16799931559E+03  0.17296824340E+03  0.00000000000E+00 0. -1.
         22    1    4    4    0    0  0.83304875018E+00  0.28489564569E+00  0.79826874131E+00  0.11884312065E+01  0.00000000000E+00 0. -1.
<mgrwt>
<rscale>  0 0.90153646E+02</rscale>
<asrwt>0</asrwt>
<pdfrwt beam="2">  1        2 0.12650309E-02 0.90153646E+02</pdfrwt>
<pdfrwt beam="1">  1       -2 0.38017080E-01 0.90153646E+02</pdfrwt>
<totfact> 0.58161315E+04</totfact>
</mgrwt>
</event>
<event>
 7    1  0.3337990E-009  0.8991565E+02  0.7818608E-02  0.1303056E+00
          2   -1    0    0  501    0  0.00000000000E+00  0.00000000000E+00  0.13396805278E+03  0.13396805280E+03  0.25500000000E-02 0. -1.
         -2   -1    0    0    0  501 -0.00000000000E+00 -0.00000000000E+00 -0.15087224624E+02  0.15087224839E+02  0.25500000000E-02 0.  1.
         23    2    1    2    0    0 -0.71054273576E-14  0.17763568394E-14  0.11888082816E+03  0.14905527764E+03  0.89915652087E+02 0.  0.
    9000005    2    3    3    0    0  0.39564675439E+02 -0.10643513399E+02  0.88064666907E+02  0.97788488060E+02  0.11338206190E+02 0.  0.
         22    1    3    3    0    0 -0.39564675439E+02  0.10643513399E+02  0.30816161249E+02  0.51266789583E+02  0.00000000000E+00 0.  1.
         22    1    4    4    0    0  0.75216032389E+01  0.16334022568E+01  0.10957506221E+02  0.13390648259E+02  0.00000000000E+00 0. -1.
         22    1    4    4    0    0  0.32043072200E+02 -0.12276915655E+02  0.77107160686E+02  0.84397839801E+02  0.00000000000E+00 0. -1.
<mgrwt>
<rscale>  0 0.89915652E+02</rscale>
<asrwt>0</asrwt>
<pdfrwt beam="1">  1        2 0.20610469E-01 0.89915652E+02</pdfrwt>
<pdfrwt beam="2">  1       -2 0.23211116E-02 0.89915652E+02</pdfrwt>
<totfact> 0.13980380E+05</totfact>
</mgrwt>
</event>
<event>
 7    1  0.3337990E-009  0.9029604E+02  0.7818608E-02  0.1302136E+00
         -2   -1    0    0    0  501 -0.00000000000E+00  0.00000000000E+00  0.78224307821E+02  0.78224307862E+02  0.25500000000E-02 0.  1.
          2   -1    0    0  501    0  0.00000000000E+00 -0.00000000000E+00 -0.26057677627E+02  0.26057677752E+02  0.25500000000E-02 0. -1.
         23    2    1    2    0    0 -0.88817841970E-15  0.00000000000E+00  0.52166630194E+02  0.10428198561E+03  0.90296042094E+02 0.  0.
    9000005    2    3    3    0    0  0.62877325539E+01 -0.17884562588E+02  0.72512137380E+02  0.76473123317E+02  0.15189975733E+02 0.  0.
         22    1    3    3    0    0 -0.62877325539E+01  0.17884562588E+02 -0.20345507186E+02  0.27808862297E+02  0.00000000000E+00 0. -1.
         22    1    4    4    0    0  0.67313442908E+00 -0.13853757664E+02  0.26169808502E+02  0.29618213795E+02  0.00000000000E+00 0. -1.
         22    1    4    4    0    0  0.56145981248E+01 -0.40308049236E+01  0.46342328878E+02  0.46854909522E+02  0.00000000000E+00 0. -1.
<mgrwt>
<rscale>  0 0.90296042E+02</rscale>
<asrwt>0</asrwt>
<pdfrwt beam="2">  1        2 0.40088736E-02 0.90296042E+02</pdfrwt>
<pdfrwt beam="1">  1       -2 0.12034509E-01 0.90296042E+02</pdfrwt>
<totfact> 0.87668262E+04</totfact>
</mgrwt>
</event>
<event>
 7    1  0.3337990E-009  0.9288795E+02  0.7818608E-02  0.1296005E+00
          2   -1    0    0  501    0  0.00000000000E+00  0.00000000000E+00  0.17708342102E+02  0.17708342286E+02  0.25500000000E-02 0.  1.
         -2   -1    0    0    0  501 -0.00000000000E+00 -0.00000000000E+00 -0.12180940848E+03  0.12180940851E+03  0.25500000000E-02 0. -1.
         23    2    1    2    0    0 -0.17763568394E-14  0.00000000000E+00 -0.10410106638E+03  0.13951775080E+03  0.92887947364E+02 0.  0.
    9000005    2    3    3    0    0 -0.11271269529E+02  0.22491637810E+02  0.34595801442E+01  0.29054146070E+02  0.14115927914E+02 0.  0.
         22    1    3    3    0    0  0.11271269529E+02 -0.22491637810E+02 -0.10756064652E+03  0.11046360473E+03  0.00000000000E+00 0. -1.
         22    1    4    4    0    0  0.10997102236E+01  0.45453557144E+01  0.54324018918E+01  0.71680270270E+01  0.00000000000E+00 0. -1.
         22    1    4    4    0    0 -0.12370979753E+02  0.17946282096E+02 -0.19728217476E+01  0.21886119043E+02  0.00000000000E+00 0. -1.
<mgrwt>
<rscale>  0 0.92887947E+02</rscale>
<asrwt>0</asrwt>
<pdfrwt beam="1">  1        2 0.27243604E-02 0.92887947E+02</pdfrwt>
<pdfrwt beam="2">  1       -2 0.18739908E-01 0.92887947E+02</pdfrwt>
<totfact> 0.71624669E+04</totfact>
</mgrwt>
</event>
<event>
 7    1  0.3691107E-009  0.9127878E+02  0.7818608E-02  0.1299784E+00
          2   -1    0    0  501    0  0.00000000000E+00  0.00000000000E+00  0.48530327500E+03  0.48530327500E+03  0.25500000000E-02 0. -1.
         -2   -1    0    0    0  501 -0.00000000000E+00 -0.00000000000E+00 -0.42920658128E+01  0.42920665703E+01  0.25500000000E-02 0.  1.
         23    2    1    2    0    0  0.00000000000E+00  0.35527136788E-14  0.48101120918E+03  0.48959534157E+03  0.91278776997E+02 0.  0.
    9000005    2    3    3    0    0 -0.37350828984E+02 -0.24208049924E+02  0.21616448714E+03  0.22103454718E+03  0.12168460892E+02 0.  0.
         22    1    3    3    0    0  0.37350828984E+02  0.24208049924E+02  0.26484672204E+03  0.26856079439E+03  0.00000000000E+00 0. -1.
         22    1    4    4    0    0 -0.11044170948E+02 -0.12711754547E+02  0.97730780205E+02  0.99170902058E+02  0.00000000000E+00 0. -1.
         22    1    4    4    0    0 -0.26306658037E+02 -0.11496295377E+02  0.11843370693E+03  0.12186364512E+03  0.00000000000E+00 0. -1.
<mgrwt>
<rscale>  0 0.91278777E+02</rscale>
<asrwt>0</asrwt>
<pdfrwt beam="1">  1        2 0.74662020E-01 0.91278777E+02</pdfrwt>
<pdfrwt beam="2">  1       -2 0.66031808E-03 0.91278777E+02</pdfrwt>
<totfact> 0.21276944E+05</totfact>
</mgrwt>
</event>
<event>
 7    1  0.3337990E-009  0.8893476E+02  0.7818608E-02  0.1305452E+00
         -2   -1    0    0    0  501 -0.00000000000E+00  0.00000000000E+00  0.89609141325E+01  0.89609144953E+01  0.25500000000E-02 0.  1.
          2   -1    0    0  501    0  0.00000000000E+00 -0.00000000000E+00 -0.22066362431E+03  0.22066362432E+03  0.25500000000E-02 0. -1.
         23    2    1    2    0    0  0.00000000000E+00  0.00000000000E+00 -0.21170271018E+03  0.22962453882E+03  0.88934758851E+02 0.  0.
    9000005    2    3    3    0    0  0.15992721219E+02  0.33390287057E+02 -0.42296923927E+02  0.56220390032E+02  0.10119683385E+01 0.  0.
         22    1    3    3    0    0 -0.15992721219E+02 -0.33390287057E+02 -0.16940578625E+03  0.17340414879E+03  0.00000000000E+00 0. -1.
         22    1    4    4    0    0  0.82011765975E+01  0.16933521180E+02 -0.20737024232E+02  0.28000493052E+02  0.00000000000E+00 0. -1.
         22    1    4    4    0    0  0.77915446220E+01  0.16456765877E+02 -0.21559899695E+02  0.28219896980E+02  0.00000000000E+00 0. -1.
<mgrwt>
<rscale>  0 0.88934759E+02</rscale>
<asrwt>0</asrwt>
<pdfrwt beam="2">  1        2 0.33948246E-01 0.88934759E+02</pdfrwt>
<pdfrwt beam="1">  1       -2 0.13786024E-02 0.88934759E+02</pdfrwt>
<totfact> 0.17138047E+05</totfact>
</mgrwt>
</event>
<event>
 7    1  0.3337990E-009  0.9321384E+02  0.7818608E-02  0.1295250E+00
         -2   -1    0    0    0  501 -0.00000000000E+00  0.00000000000E+00  0.22484443490E+01  0.22484457950E+01  0.25500000000E-02 0. -1.
          2   -1    0    0  501    0  0.00000000000E+00 -0.00000000000E+00 -0.96609211926E+03  0.96609211926E+03  0.25500000000E-02 0.  1.
         23    2    1    2    0    0  0.00000000000E+00  0.00000000000E+00 -0.96384367491E+03  0.96834056506E+03  0.93213841632E+02 0.  0.
    9000005    2    3    3    0    0  0.60725194538E+01 -0.36326361181E+02 -0.77493597752E+03  0.77587602770E+03  0.10067824335E+02 0.  0.
         22    1    3    3    0    0 -0.60725194538E+01  0.36326361181E+02 -0.18890769739E+03  0.19246453736E+03  0.00000000000E+00 0.  1.
         22    1    4    4    0    0  0.18333824510E+00 -0.19152161750E+01 -0.13097632707E+02  0.13238189016E+02  0.00000000000E+00 0. -1.
         22    1    4    4    0    0  0.58891812087E+01 -0.34411145006E+02 -0.76183834482E+03  0.76263783868E+03  0.00000000000E+00 0. -1.
<mgrwt>
<rscale>  0 0.93213842E+02</rscale>
<asrwt>0</asrwt>
<pdfrwt beam="2">  1        2 0.14862923E+00 0.93213842E+02</pdfrwt>
<pdfrwt beam="1">  1       -2 0.34591540E-03 0.93213842E+02</pdfrwt>
<totfact> 0.23541504E+05</totfact>
</mgrwt>
</event>
<event>
 7    1  0.3337990E-009  0.9007958E+02  0.7818608E-02  0.1302659E+00
         -2   -1    0    0    0  501 -0.00000000000E+00  0.00000000000E+00  0.41361247001E+01  0.41361254861E+01  0.25500000000E-02 0.  1.
          2   -1    0    0  501    0  0.00000000000E+00 -0.00000000000E+00 -0.49045482167E+03  0.49045482167E+03  0.25500000000E-02 0. -1.
         23    2    1    2    0    0 -0.71054273576E-14 -0.88817841970E-15 -0.48631869697E+03  0.49459094716E+03  0.90079575891E+02 0.  0.
    9000005    2    3    3    0    0  0.43697662075E+02  0.61445523935E+01 -0.27789182173E+03  0.28154399573E+03  0.97936586160E+01 0.  0.
         22    1    3    3    0    0 -0.43697662075E+02 -0.61445523935E+01 -0.20842687523E+03  0.21304695143E+03  0.00000000000E+00 0. -1.
         22    1    4    4    0    0  0.28679422624E+02  0.24429317672E+01 -0.15157663821E+03  0.15428530212E+03  0.00000000000E+00 0. -1.
         22    1    4    4    0    0  0.15018239450E+02  0.37016206263E+01 -0.12631518352E+03  0.12725869361E+03  0.00000000000E+00 0. -1.
<mgrwt>
<rscale>  0 0.90079576E+02</rscale>
<asrwt>0</asrwt>
<pdfrwt beam="2">  1        2 0.75454542E-01 0.90079576E+02</pdfrwt>
<pdfrwt beam="1">  1       -2 0.63632733E-03 0.90079576E+02</pdfrwt>
<totfact> 0.22111172E+05</totfact>
</mgrwt>
</event>
<event>
 7    1  0.3337990E-009  0.9130746E+02  0.7818608E-02  0.1299716E+00
          2   -1    0    0  501    0  0.00000000000E+00  0.00000000000E+00  0.32596409350E+03  0.32596409351E+03  0.25500000000E-02 0. -1.
         -2   -1    0    0    0  501 -0.00000000000E+00 -0.00000000000E+00 -0.63941494744E+01  0.63941499828E+01  0.25500000000E-02 0.  1.
         23    2    1    2    0    0 -0.35527136788E-14  0.00000000000E+00  0.31956994403E+03  0.33235824350E+03  0.91307463513E+02 0.  0.
    9000005    2    3    3    0    0 -0.30205002762E+02 -0.29045005626E+02  0.97866518682E+02  0.10672942585E+03  0.75736595391E+01 0.  0.
         22    1    3    3    0    0  0.30205002762E+02  0.29045005626E+02  0.22170342535E+03  0.22562881765E+03  0.00000000000E+00 0. -1.
         22    1    4    4    0    0 -0.20699877599E+02 -0.24198016677E+02  0.70579279390E+02  0.77430379199E+02  0.00000000000E+00 0. -1.
         22    1    4    4    0    0 -0.95051251632E+01 -0.48469889493E+01  0.27287239292E+02  0.29299046647E+02  0.00000000000E+00 0. -1.
<mgrwt>
<rscale>  0 0.91307464E+02</rscale>
<asrwt>0</asrwt>
<pdfrwt beam="1">  1        2 0.50148320E-01 0.91307464E+02</pdfrwt>
<pdfrwt beam="2">  1       -2 0.98371539E-03 0.91307464E+02</pdfrwt>
<totfact> 0.18457634E+05</totfact>
</mgrwt>
</event>
<event>
 7    1  0.3337990E-009  0.9076672E+02  0.7818608E-02  0.1301006E+00
         -2   -1    0    0    0  501 -0.00000000000E+00  0.00000000000E+00  0.13498704975E+04  0.13498704975E+04  0.25500000000E-02 0.  1.
          2   -1    0    0  501    0  0.00000000000E+00 -0.00000000000E+00 -0.15258116598E+01  0.15258137906E+01  0.25500000000E-02 0. -1.
         23    2    1    2    0    0  0.35527136788E-14  0.00000000000E+00  0.13483446858E+04  0.13513963113E+04  0.90766724865E+02 0.  0.
    9000005    2    3    3    0    0 -0.22532444487E+02  0.12892989493E+02  0.12263937056E+04  0.12267127847E+04  0.10430468577E+02 0.  0.
         22    1    3    3    0    0  0.22532444487E+02 -0.12892989493E+02  0.12195098024E+03  0.12468352663E+03  0.00000000000E+00 0. -1.
         22    1    4    4    0    0 -0.45243416773E+01  0.68295434071E+01  0.51588154262E+03  0.51594658478E+03  0.00000000000E+00 0.  1.
         22    1    4    4    0    0 -0.18008102810E+02  0.60634460860E+01  0.71051216298E+03  0.71076619988E+03  0.00000000000E+00 0.  1.
<mgrwt>
<rscale>  0 0.90766725E+02</rscale>
<asrwt>0</asrwt>
<pdfrwt beam="2">  1        2 0.23474035E-03 0.90766725E+02</pdfrwt>
<pdfrwt beam="1">  1       -2 0.20767245E+00 0.90766725E+02</pdfrwt>
<totfact> 0.12708844E+04</totfact>
</mgrwt>
</event>
<event>
 7    1  0.3337990E-009  0.9159935E+02  0.7818608E-02  0.1299024E+00
         -2   -1    0    0    0  501 -0.00000000000E+00  0.00000000000E+00  0.14013111262E+02  0.14013111494E+02  0.25500000000E-02 0. -1.
          2   -1    0    0  501    0  0.00000000000E+00 -0.00000000000E+00 -0.14968910427E+03  0.14968910429E+03  0.25500000000E-02 0.  1.
         23    2    1    2    0    0  0.00000000000E+00  0.00000000000E+00 -0.13567599301E+03  0.16370221579E+03  0.91599347019E+02 0.  0.
    9000005    2    3    3    0    0 -0.33787335972E+02 -0.29624012438E+02 -0.59121145636E+02  0.74933917158E+02  0.10030747448E+02 0.  0.
         22    1    3    3    0    0  0.33787335972E+02  0.29624012438E+02 -0.76554847373E+02  0.88768298628E+02  0.00000000000E+00 0.  1.
         22    1    4    4    0    0 -0.24137719746E+02 -0.26457338658E+02 -0.44275736402E+02  0.56947002707E+02  0.00000000000E+00 0. -1.
         22    1    4    4    0    0 -0.96496162259E+01 -0.31666737792E+01 -0.14845409234E+02  0.17986914451E+02  0.00000000000E+00 0. -1.
<mgrwt>
<rscale>  0 0.91599347E+02</rscale>
<asrwt>0</asrwt>
<pdfrwt beam="2">  1        2 0.23029092E-01 0.91599347E+02</pdfrwt>
<pdfrwt beam="1">  1       -2 0.21558634E-02 0.91599347E+02</pdfrwt>
<totfact> 0.13796674E+05</totfact>
</mgrwt>
</event>
<event>
 7    1  0.3337990E-009  0.9234964E+02  0.7818608E-02  0.1297259E+00
          2   -1    0    0  501    0  0.00000000000E+00  0.00000000000E+00  0.76653242342E+03  0.76653242343E+03  0.25500000000E-02 0. -1.
         -2   -1    0    0    0  501 -0.00000000000E+00 -0.00000000000E+00 -0.27815048657E+01  0.27815060346E+01  0.25500000000E-02 0.  1.
         23    2    1    2    0    0 -0.17763568394E-14  0.00000000000E+00  0.76375091856E+03  0.76931392946E+03  0.92349642484E+02 0.  0.
    9000005    2    3    3    0    0  0.15775555718E+02  0.14749906549E+02  0.72170299093E+03  0.72204389541E+03  0.50746311656E+01 0.  0.
         22    1    3    3    0    0 -0.15775555718E+02 -0.14749906549E+02  0.42047927629E+02  0.47270034052E+02  0.00000000000E+00 0.  1.
         22    1    4    4    0    0  0.10204000328E+02  0.69085316204E+01  0.45725394106E+03  0.45741995589E+03  0.00000000000E+00 0. -1.
         22    1    4    4    0    0  0.55715553906E+01  0.78413749290E+01  0.26444904987E+03  0.26462393952E+03  0.00000000000E+00 0. -1.
<mgrwt>
<rscale>  0 0.92349642E+02</rscale>
<asrwt>0</asrwt>
<pdfrwt beam="1">  1        2 0.11792811E+00 0.92349642E+02</pdfrwt>
<pdfrwt beam="2">  1       -2 0.42792376E-03 0.92349642E+02</pdfrwt>
<totfact> 0.23379541E+05</totfact>
</mgrwt>
</event>
<event>
 7    1  0.3337990E-009  0.9319946E+02  0.7818608E-02  0.1295284E+00
          2   -1    0    0  501    0  0.00000000000E+00  0.00000000000E+00  0.23247028720E+03  0.23247028721E+03  0.25500000000E-02 0. -1.
         -2   -1    0    0    0  501 -0.00000000000E+00 -0.00000000000E+00 -0.93411286368E+01  0.93411289849E+01  0.25500000000E-02 0.  1.
         23    2    1    2    0    0  0.00000000000E+00  0.00000000000E+00  0.22312915856E+03  0.24181141619E+03  0.93199461387E+02 0.  0.
    9000005    2    3    3    0    0 -0.21364804456E+02 -0.12116920307E+02  0.21347284477E+03  0.21541976935E+03  0.15223237054E+02 0.  0.
         22    1    3    3    0    0  0.21364804456E+02  0.12116920307E+02  0.96563137932E+01  0.26391646847E+02  0.00000000000E+00 0.  1.
         22    1    4    4    0    0 -0.57569898308E+00 -0.65468558102E+01  0.74615930063E+02  0.74904804716E+02  0.00000000000E+00 0. -1.
         22    1    4    4    0    0 -0.20789105473E+02 -0.55700644972E+01  0.13885691470E+03  0.14051496463E+03  0.00000000000E+00 0. -1.
<mgrwt>
<rscale>  0 0.93199461E+02</rscale>
<asrwt>0</asrwt>
<pdfrwt beam="1">  1        2 0.35764659E-01 0.93199461E+02</pdfrwt>
<pdfrwt beam="2">  1       -2 0.14370968E-02 0.93199461E+02</pdfrwt>
<totfact> 0.15405671E+05</totfact>
</mgrwt>
</event>
<event>
 7    1  0.3337990E-009  0.9106420E+02  0.7818608E-02  0.1300295E+00
          2   -1    0    0  501    0  0.00000000000E+00  0.00000000000E+00  0.12292419427E+02  0.12292419691E+02  0.25500000000E-02 0. -1.
         -2   -1    0    0    0  501 -0.00000000000E+00 -0.00000000000E+00 -0.16865450959E+03  0.16865450961E+03  0.25500000000E-02 0.  1.
         23    2    1    2    0    0  0.00000000000E+00 -0.44408920985E-15 -0.15636209016E+03  0.18094692930E+03  0.91064197042E+02 0.  0.
    9000005    2    3    3    0    0 -0.14756306567E+02  0.26701074358E+01 -0.16346245908E+03  0.16435496449E+03  0.82280476911E+01 0.  0.
         22    1    3    3    0    0  0.14756306567E+02 -0.26701074358E+01  0.71003689185E+01  0.16591964803E+02  0.00000000000E+00 0. -1.
         22    1    4    4    0    0 -0.42912071168E+01  0.44026834584E+01 -0.76810551844E+02  0.77056206465E+02  0.00000000000E+00 0.  1.
         22    1    4    4    0    0 -0.10465099451E+02 -0.17325760226E+01 -0.86651907233E+02  0.87298758028E+02  0.00000000000E+00 0.  1.
<mgrwt>
<rscale>  0 0.91064197E+02</rscale>
<asrwt>0</asrwt>
<pdfrwt beam="1">  1        2 0.18911416E-02 0.91064197E+02</pdfrwt>
<pdfrwt beam="2">  1       -2 0.25946846E-01 0.91064197E+02</pdfrwt>
<totfact> 0.67051163E+04</totfact>
</mgrwt>
</event>
<event>
 7    1  0.3337990E-009  0.9143607E+02  0.7818608E-02  0.1299411E+00
          2   -1    0    0  501    0  0.00000000000E+00  0.00000000000E+00  0.14924746791E+03  0.14924746793E+03  0.25500000000E-02 0. -1.
         -2   -1    0    0    0  501 -0.00000000000E+00 -0.00000000000E+00 -0.14004517067E+02  0.14004517299E+02  0.25500000000E-02 0.  1.
         23    2    1    2    0    0  0.17763568394E-14  0.35527136788E-14  0.13524295084E+03  0.16325198523E+03  0.91436070175E+02 0.  0.
    9000005    2    3    3    0    0  0.11636849769E+02  0.19804736320E+02 -0.24127716272E+01  0.23692887419E+02  0.52808705784E+01 0.  0.
         22    1    3    3    0    0 -0.11636849769E+02 -0.19804736320E+02  0.13765572247E+03  0.13955909781E+03  0.00000000000E+00 0. -1.
         22    1    4    4    0    0  0.18267037144E+01  0.57401385563E+01  0.12645358534E+01  0.61550863544E+01  0.00000000000E+00 0. -1.
         22    1    4    4    0    0  0.98101460550E+01  0.14064597764E+02 -0.36773074806E+01  0.17537801065E+02  0.00000000000E+00 0. -1.
<mgrwt>
<rscale>  0 0.91436070E+02</rscale>
<asrwt>0</asrwt>
<pdfrwt beam="1">  1        2 0.22961149E-01 0.91436070E+02</pdfrwt>
<pdfrwt beam="2">  1       -2 0.21545411E-02 0.91436070E+02</pdfrwt>
<totfact> 0.13849815E+05</totfact>
</mgrwt>
</event>
<event>
 7    1  0.3337990E-009  0.9231749E+02  0.7818608E-02  0.1297335E+00
         -2   -1    0    0    0  501 -0.00000000000E+00  0.00000000000E+00  0.52752373465E+01  0.52752379628E+01  0.25500000000E-02 0.  1.
          2   -1    0    0  501    0  0.00000000000E+00 -0.00000000000E+00 -0.40389264981E+03  0.40389264982E+03  0.25500000000E-02 0. -1.
         23    2    1    2    0    0  0.00000000000E+00  0.00000000000E+00 -0.39861741246E+03  0.40916788778E+03  0.92317489523E+02 0.  0.
    9000005    2    3    3    0    0 -0.19723298172E+02 -0.85388145651E+01 -0.38002441115E+03  0.38074923998E+03  0.94610163360E+01 0.  0.
         22    1    3    3    0    0  0.19723298172E+02  0.85388145651E+01 -0.18593001311E+02  0.28418647798E+02  0.00000000000E+00 0.  1.
         22    1    4    4    0    0 -0.55412336985E+01 -0.37818995974E+01 -0.19713229789E+03  0.19724642178E+03  0.00000000000E+00 0. -1.
         22    1    4    4    0    0 -0.14182064473E+02 -0.47569149677E+01 -0.18289211326E+03  0.18350281820E+03  0.00000000000E+00 0. -1.
<mgrwt>
<rscale>  0 0.92317490E+02</rscale>
<asrwt>0</asrwt>
<pdfrwt beam="2">  1        2 0.62137307E-01 0.92317490E+02</pdfrwt>
<pdfrwt beam="1">  1       -2 0.81157534E-03 0.92317490E+02</pdfrwt>
<totfact> 0.19380570E+05</totfact>
</mgrwt>
</event>
<event>
 7    1  0.3337990E-009  0.9010547E+02  0.7818608E-02  0.1302596E+00
          2   -1    0    0  501    0  0.00000000000E+00  0.00000000000E+00  0.61497073524E+01  0.61497078810E+01  0.25500000000E-02 0. -1.
         -2   -1    0    0    0  501 -0.00000000000E+00 -0.00000000000E+00 -0.33005618421E+03  0.33005618422E+03  0.25500000000E-02 0.  1.
         23    2    1    2    0    0  0.00000000000E+00  0.00000000000E+00 -0.32390647685E+03  0.33620589210E+03  0.90105472270E+02 0.  0.
    9000005    2    3    3    0    0  0.25240758504E+02 -0.36499113725E+02 -0.15504365173E+03  0.16160940044E+03  0.10477746613E+02 0.  0.
         22    1    3    3    0    0 -0.25240758504E+02  0.36499113725E+02 -0.16886282512E+03  0.17459649166E+03  0.00000000000E+00 0.  1.
         22    1    4    4    0    0  0.13952284028E+02 -0.11197584344E+02 -0.60258017559E+02  0.62857623284E+02  0.00000000000E+00 0. -1.
         22    1    4    4    0    0  0.11288474476E+02 -0.25301529380E+02 -0.94785634173E+02  0.98751777151E+02  0.00000000000E+00 0. -1.
<mgrwt>
<rscale>  0 0.90105472E+02</rscale>
<asrwt>0</asrwt>
<pdfrwt beam="1">  1        2 0.94610912E-03 0.90105472E+02</pdfrwt>
<pdfrwt beam="2">  1       -2 0.50777861E-01 0.90105472E+02</pdfrwt>
<totfact> 0.49744930E+04</totfact>
</mgrwt>
</event>
<event>
 7    1  0.3337990E-009  0.8060456E+02  0.7818608E-02  0.1327344E+00
          2   -1    0    0  501    0  0.00000000000E+00  0.00000000000E+00  0.53095495738E+03  0.53095495738E+03  0.25500000000E-02 0. -1.
         -2   -1    0    0    0  501 -0.00000000000E+00 -0.00000000000E+00 -0.30591552638E+01  0.30591563266E+01  0.25500000000E-02 0.  1.
         23    2    1    2    0    0  0.00000000000E+00  0.35527136788E-14  0.52789580211E+03  0.53401411371E+03  0.80604564091E+02 0.  0.
    9000005    2    3    3    0    0 -0.51897519418E+01  0.25546324242E+02  0.46489128513E+03  0.46582967731E+03  0.13922394235E+02 0.  0.
         22    1    3    3    0    0  0.51897519418E+01 -0.25546324242E+02  0.63004516984E+02  0.68184436405E+02  0.00000000000E+00 0.  1.
         22    1    4    4    0    0 -0.18162129481E+01  0.25960364930E+02  0.39555604856E+03  0.39641118391E+03  0.00000000000E+00 0.  1.
         22    1    4    4    0    0 -0.33735389937E+01 -0.41404068889E+00  0.69335236567E+02  0.69418493392E+02  0.00000000000E+00 0.  1.
<mgrwt>
<rscale>  0 0.80604564E+02</rscale>
<asrwt>0</asrwt>
<pdfrwt beam="1">  1        2 0.81685303E-01 0.80604564E+02</pdfrwt>
<pdfrwt beam="2">  1       -2 0.47063979E-03 0.80604564E+02</pdfrwt>
<totfact> 0.30366449E+05</totfact>
</mgrwt>
</event>
<event>
 7    1  0.3337990E-009  0.9159791E+02  0.7818608E-02  0.1299028E+00
         -2   -1    0    0    0  501 -0.00000000000E+00  0.00000000000E+00  0.38333477504E+02  0.38333477588E+02  0.25500000000E-02 0.  1.
          2   -1    0    0  501    0  0.00000000000E+00 -0.00000000000E+00 -0.54718345880E+02  0.54718345939E+02  0.25500000000E-02 0. -1.
         23    2    1    2    0    0  0.00000000000E+00  0.00000000000E+00 -0.16384868376E+02  0.93051823527E+02  0.91597914551E+02 0.  0.
    9000005    2    3    3    0    0  0.31353984045E+02  0.31106143273E+02  0.34275262310E+01  0.44645259459E+02  0.55485846227E+01 0.  0.
         22    1    3    3    0    0 -0.31353984045E+02 -0.31106143273E+02 -0.19812394607E+02  0.48406564068E+02  0.00000000000E+00 0. -1.
         22    1    4    4    0    0  0.20144038460E+02  0.23269714184E+02  0.34269008932E+01  0.30967814477E+02  0.00000000000E+00 0. -1.
         22    1    4    4    0    0  0.11209945584E+02  0.78364290887E+01  0.62533783244E-03  0.13677444983E+02  0.00000000000E+00 0. -1.
<mgrwt>
<rscale>  0 0.91597915E+02</rscale>
<asrwt>0</asrwt>
<pdfrwt beam="2">  1        2 0.84182071E-02 0.91597915E+02</pdfrwt>
<pdfrwt beam="1">  1       -2 0.58974581E-02 0.91597915E+02</pdfrwt>
<totfact> 0.10215468E+05</totfact>
</mgrwt>
</event>
<event>
 7    1  0.3337990E-009  0.9247129E+02  0.7818608E-02  0.1296975E+00
         -2   -1    0    0    0  501 -0.00000000000E+00  0.00000000000E+00  0.17523112522E+02  0.17523112707E+02  0.25500000000E-02 0.  1.
          2   -1    0    0  501    0  0.00000000000E+00 -0.00000000000E+00 -0.12199515188E+03  0.12199515191E+03  0.25500000000E-02 0. -1.
         23    2    1    2    0    0  0.35527136788E-14  0.00000000000E+00 -0.10447203936E+03  0.13951826461E+03  0.92471288264E+02 0.  0.
    9000005    2    3    3    0    0 -0.19906558641E+02 -0.48886821891E+01 -0.11460652973E+03  0.11665173481E+03  0.72663806013E+01 0.  0.
         22    1    3    3    0    0  0.19906558641E+02  0.48886821891E+01  0.10134490367E+02  0.22866529808E+02  0.00000000000E+00 0.  1.
         22    1    4    4    0    0 -0.10054858856E+02 -0.51471570229E+01 -0.47451668364E+02  0.48777599803E+02  0.00000000000E+00 0. -1.
         22    1    4    4    0    0 -0.98516997853E+01  0.25847483380E+00 -0.67154861362E+02  0.67874135003E+02  0.00000000000E+00 0. -1.
<mgrwt>
<rscale>  0 0.92471288E+02</rscale>
<asrwt>0</asrwt>
<pdfrwt beam="2">  1        2 0.18768484E-01 0.92471288E+02</pdfrwt>
<pdfrwt beam="1">  1       -2 0.26958636E-02 0.92471288E+02</pdfrwt>
<totfact> 0.12561129E+05</totfact>
</mgrwt>
</event>
<event>
 7    1  0.3337990E-009  0.9015520E+02  0.7818608E-02  0.1302476E+00
          2   -1    0    0  501    0  0.00000000000E+00  0.00000000000E+00  0.57754435115E+01  0.57754440744E+01  0.25500000000E-02 0. -1.
         -2   -1    0    0    0  501 -0.00000000000E+00 -0.00000000000E+00 -0.35183272433E+03  0.35183272434E+03  0.25500000000E-02 0.  1.
         23    2    1    2    0    0  0.00000000000E+00 -0.55511151231E-16 -0.34605728082E+03  0.35760816842E+03  0.90155202339E+02 0.  0.
    9000005    2    3    3    0    0  0.38524968261E+02 -0.28752469452E+00 -0.26531068959E+03  0.26814159452E+03  0.50888946736E+01 0.  0.
         22    1    3    3    0    0 -0.38524968261E+02  0.28752469452E+00 -0.80746591227E+02  0.89466573897E+02  0.00000000000E+00 0. -1.
         22    1    4    4    0    0  0.18741686325E+02 -0.13060841718E+01 -0.14478661614E+03  0.14600041395E+03  0.00000000000E+00 0. -1.
         22    1    4    4    0    0  0.19783281935E+02  0.10185594773E+01 -0.12052407346E+03  0.12214118057E+03  0.00000000000E+00 0. -1.
<mgrwt>
<rscale>  0 0.90155202E+02</rscale>
<asrwt>0</asrwt>
<pdfrwt beam="1">  1        2 0.88853009E-03 0.90155202E+02</pdfrwt>
<pdfrwt beam="2">  1       -2 0.54128095E-01 0.90155202E+02</pdfrwt>
<totfact> 0.47773066E+04</totfact>
</mgrwt>
</event>
<event>
 7    1  0.3337990E-009  0.9274196E+02  0.7818608E-02  0.1296344E+00
          2   -1    0    0  501    0  0.00000000000E+00  0.00000000000E+00  0.70305253805E+01  0.70305258429E+01  0.25500000000E-02 0. -1.
         -2   -1    0    0    0  501 -0.00000000000E+00 -0.00000000000E+00 -0.30584735292E+03  0.30584735293E+03  0.25500000000E-02 0.  1.
         23    2    1    2    0    0 -0.17763568394E-14  0.00000000000E+00 -0.29881682754E+03  0.31287787877E+03  0.92741957090E+02 0.  0.
    9000005    2    3    3    0    0  0.14679692365E+02 -0.35047481875E+02 -0.23677488761E+03  0.24012472307E+03  0.12398220666E+02 0.  0.
         22    1    3    3    0    0 -0.14679692365E+02  0.35047481875E+02 -0.62041939926E+02  0.72753155694E+02  0.00000000000E+00 0. -1.
         22    1    4    4    0    0  0.65063886971E+00 -0.20557750113E+01 -0.43472471866E+02  0.43525915866E+02  0.00000000000E+00 0.  1.
         22    1    4    4    0    0  0.14029053495E+02 -0.32991706864E+02 -0.19330241574E+03  0.19659880721E+03  0.00000000000E+00 0.  1.
<mgrwt>
<rscale>  0 0.92741957E+02</rscale>
<asrwt>0</asrwt>
<pdfrwt beam="1">  1        2 0.10816196E-02 0.92741957E+02</pdfrwt>
<pdfrwt beam="2">  1       -2 0.47053429E-01 0.92741957E+02</pdfrwt>
<totfact> 0.48280893E+04</totfact>
</mgrwt>
</event>
<event>
 7    1  0.3337990E-009  0.9422922E+02  0.7818608E-02  0.1292922E+00
          2   -1    0    0  501    0  0.00000000000E+00  0.00000000000E+00  0.29977480417E+02  0.29977480526E+02  0.25500000000E-02 0. -1.
         -2   -1    0    0    0  501 -0.00000000000E+00 -0.00000000000E+00 -0.74048473297E+02  0.74048473341E+02  0.25500000000E-02 0.  1.
         23    2    1    2    0    0  0.00000000000E+00  0.00000000000E+00 -0.44070992880E+02  0.10402595387E+03  0.94229224047E+02 0.  0.
    9000005    2    3    3    0    0 -0.73003694682E+01 -0.20202677541E+02  0.22797411116E+02  0.33791866508E+02  0.12677725125E+02 0.  0.
         22    1    3    3    0    0  0.73003694682E+01  0.20202677541E+02 -0.66868403996E+02  0.70234087359E+02  0.00000000000E+00 0.  1.
         22    1    4    4    0    0 -0.35156929641E+01 -0.43457671652E+01  0.14414759503E+02  0.15460630026E+02  0.00000000000E+00 0. -1.
         22    1    4    4    0    0 -0.37846765041E+01 -0.15856910375E+02  0.83826516127E+01  0.18331236482E+02  0.00000000000E+00 0. -1.
<mgrwt>
<rscale>  0 0.94229224E+02</rscale>
<asrwt>0</asrwt>
<pdfrwt beam="1">  1        2 0.46119201E-02 0.94229224E+02</pdfrwt>
<pdfrwt beam="2">  1       -2 0.11392073E-01 0.94229224E+02</pdfrwt>
<totfact> 0.80173673E+04</totfact>
</mgrwt>
</event>
<event>
 7    1  0.3337990E-009  0.8908746E+02  0.7818608E-02  0.1305077E+00
         -2   -1    0    0    0  501 -0.00000000000E+00  0.00000000000E+00  0.29038228435E+02  0.29038228547E+02  0.25500000000E-02 0.  1.
          2   -1    0    0  501    0  0.00000000000E+00 -0.00000000000E+00 -0.68328687183E+02  0.68328687230E+02  0.25500000000E-02 0. -1.
         23    2    1    2    0    0  0.00000000000E+00 -0.71054273576E-14 -0.39290458747E+02  0.97366915777E+02  0.89087463424E+02 0.  0.
    9000005    2    3    3    0    0 -0.29855966068E+02  0.32154065900E+02 -0.25937870118E+02  0.51502394774E+02  0.73797626933E+01 0.  0.
         22    1    3    3    0    0  0.29855966068E+02 -0.32154065900E+02 -0.13352588629E+02  0.45864521003E+02  0.00000000000E+00 0. -1.
         22    1    4    4    0    0  0.38342608418E+00  0.47656016342E+00 -0.15649160428E-01  0.61185786553E+00  0.00000000000E+00 0. -1.
         22    1    4    4    0    0 -0.30239392153E+02  0.31677505736E+02 -0.25922220958E+02  0.50890536908E+02  0.00000000000E+00 0. -1.
<mgrwt>
<rscale>  0 0.89087463E+02</rscale>
<asrwt>0</asrwt>
<pdfrwt beam="2">  1        2 0.10512106E-01 0.89087463E+02</pdfrwt>
<pdfrwt beam="1">  1       -2 0.44674198E-02 0.89087463E+02</pdfrwt>
<totfact> 0.11723443E+05</totfact>
</mgrwt>
</event>
<event>
 7    1  0.5776201E-009  0.9121551E+02  0.7818608E-02  0.1299935E+00
         -2   -1    0    0    0  501 -0.00000000000E+00  0.00000000000E+00  0.28741153939E+01  0.28741165251E+01  0.25500000000E-02 0. -1.
          2   -1    0    0  501    0  0.00000000000E+00 -0.00000000000E+00 -0.72372423510E+03  0.72372423511E+03  0.25500000000E-02 0.  1.
         23    2    1    2    0    0  0.00000000000E+00  0.00000000000E+00 -0.72085011971E+03  0.72659835163E+03  0.91215511348E+02 0.  0.
    9000005    2    3    3    0    0 -0.24760742590E+02  0.99505489657E+01 -0.65252132070E+03  0.65324351149E+03  0.15195510439E+02 0.  0.
         22    1    3    3    0    0  0.24760742590E+02 -0.99505489657E+01 -0.68328799014E+02  0.73354840147E+02  0.00000000000E+00 0. -1.
         22    1    4    4    0    0 -0.51472135691E+01  0.14224853679E+01 -0.40744696006E+02  0.41093156666E+02  0.00000000000E+00 0. -1.
         22    1    4    4    0    0 -0.19613529021E+02  0.85280635979E+01 -0.61177662469E+03  0.61215035482E+03  0.00000000000E+00 0. -1.
<mgrwt>
<rscale>  0 0.91215511E+02</rscale>
<asrwt>0</asrwt>
<pdfrwt beam="2">  1        2 0.11134204E+00 0.91215511E+02</pdfrwt>
<pdfrwt beam="1">  1       -2 0.44217226E-03 0.91215511E+02</pdfrwt>
<totfact> 0.23867287E+05</totfact>
</mgrwt>
</event>
<event>
 7    1  0.3337990E-009  0.9151261E+02  0.7818608E-02  0.1299229E+00
          2   -1    0    0  501    0  0.00000000000E+00  0.00000000000E+00  0.29955002840E+03  0.29955002841E+03  0.25500000000E-02 0. -1.
         -2   -1    0    0    0  501 -0.00000000000E+00 -0.00000000000E+00 -0.69892813096E+01  0.69892817747E+01  0.25500000000E-02 0.  1.
         23    2    1    2    0    0  0.00000000000E+00 -0.17763568394E-14  0.29256074709E+03  0.30653931019E+03  0.91512610885E+02 0.  0.
    9000005    2    3    3    0    0 -0.26283529016E+02 -0.12454690185E+02  0.26406283540E+03  0.26581985322E+03  0.92233464701E+01 0.  0.
         22    1    3    3    0    0  0.26283529016E+02  0.12454690185E+02  0.28497911696E+02  0.40719456973E+02  0.00000000000E+00 0.  1.
         22    1    4    4    0    0 -0.22863484192E+02 -0.12391902490E+02  0.24991338558E+03  0.25126280753E+03  0.00000000000E+00 0. -1.
         22    1    4    4    0    0 -0.34200448246E+01 -0.62787694631E-01  0.14149449821E+02  0.14557045687E+02  0.00000000000E+00 0. -1.
<mgrwt>
<rscale>  0 0.91512611E+02</rscale>
<asrwt>0</asrwt>
<pdfrwt beam="1">  1        2 0.46084609E-01 0.91512611E+02</pdfrwt>
<pdfrwt beam="2">  1       -2 0.10752743E-02 0.91512611E+02</pdfrwt>
<totfact> 0.17780570E+05</totfact>
</mgrwt>
</event>
<event>
 7    1  0.3337990E-009  0.9186064E+02  0.7818608E-02  0.1298407E+00
         -2   -1    0    0    0  501 -0.00000000000E+00  0.00000000000E+00  0.50009563713E+01  0.50009570214E+01  0.25500000000E-02 0. -1.
          2   -1    0    0  501    0  0.00000000000E+00 -0.00000000000E+00 -0.42183811201E+03  0.42183811202E+03  0.25500000000E-02 0.  1.
         23    2    1    2    0    0  0.71054273576E-14  0.00000000000E+00 -0.41683715564E+03  0.42683906904E+03  0.91860636494E+02 0.  0.
    9000005    2    3    3    0    0  0.34448814979E+02 -0.56335956325E+01 -0.34511416198E+03  0.34707287273E+03  0.11719041666E+02 0.  0.
         22    1    3    3    0    0 -0.34448814979E+02  0.56335956325E+01 -0.71722993662E+02  0.79766196305E+02  0.00000000000E+00 0. -1.
         22    1    4    4    0    0  0.27367635650E+02  0.44637808607E+00 -0.24479173702E+03  0.24631723701E+03  0.00000000000E+00 0.  1.
         22    1    4    4    0    0  0.70811793289E+01 -0.60799737186E+01 -0.10032242496E+03  0.10075563572E+03  0.00000000000E+00 0.  1.
<mgrwt>
<rscale>  0 0.91860636E+02</rscale>
<asrwt>0</asrwt>
<pdfrwt beam="2">  1        2 0.64898143E-01 0.91860636E+02</pdfrwt>
<pdfrwt beam="1">  1       -2 0.76937829E-03 0.91860636E+02</pdfrwt>
<totfact> 0.19942734E+05</totfact>
</mgrwt>
</event>
<event>
 7    1  0.3337990E-009  0.8952303E+02  0.7818608E-02  0.1304011E+00
         -2   -1    0    0    0  501 -0.00000000000E+00  0.00000000000E+00  0.17205237038E+02  0.17205237227E+02  0.25500000000E-02 0. -1.
          2   -1    0    0  501    0  0.00000000000E+00 -0.00000000000E+00 -0.11645251803E+03  0.11645251805E+03  0.25500000000E-02 0.  1.
         23    2    1    2    0    0  0.00000000000E+00  0.35527136788E-14 -0.99247280988E+02  0.13365775528E+03  0.89523029235E+02 0.  0.
    9000005    2    3    3    0    0 -0.34904315614E+02  0.23474801365E+02 -0.33439903913E+02  0.55555332623E+02  0.14099300036E+02 0.  0.
         22    1    3    3    0    0  0.34904315614E+02 -0.23474801365E+02 -0.65807377075E+02  0.78102422658E+02  0.00000000000E+00 0.  1.
         22    1    4    4    0    0 -0.34307200648E+02  0.22174844333E+02 -0.27018697680E+02  0.48976706319E+02  0.00000000000E+00 0. -1.
         22    1    4    4    0    0 -0.59711496637E+00  0.12999570322E+01 -0.64212062325E+01  0.65786263041E+01  0.00000000000E+00 0. -1.
<mgrwt>
<rscale>  0 0.89523029E+02</rscale>
<asrwt>0</asrwt>
<pdfrwt beam="2">  1        2 0.17915772E-01 0.89523029E+02</pdfrwt>
<pdfrwt beam="1">  1       -2 0.26469596E-02 0.89523029E+02</pdfrwt>
<totfact> 0.13522184E+05</totfact>
</mgrwt>
</event>
<event>
 7    1  0.3595929E-009  0.9110149E+02  0.7818608E-02  0.1300206E+00
          2   -1    0    0  501    0  0.00000000000E+00  0.00000000000E+00  0.31753304214E+03  0.31753304215E+03  0.25500000000E-02 0.  1.
         -2   -1    0    0    0  501 -0.00000000000E+00 -0.00000000000E+00 -0.65343447803E+01  0.65343452778E+01  0.25500000000E-02 0. -1.
         23    2    1    2    0    0  0.00000000000E+00  0.44408920985E-15  0.31099869736E+03  0.32406738743E+03  0.91101491947E+02 0.  0.
    9000005    2    3    3    0    0  0.44036435942E+02  0.74672502711E+00  0.14208903075E+03  0.14951011670E+03  0.14973878868E+02 0.  0.
         22    1    3    3    0    0 -0.44036435942E+02 -0.74672502711E+00  0.16890966662E+03  0.17455727073E+03  0.00000000000E+00 0.  1.
         22    1    4    4    0    0  0.10848433625E+02 -0.44553637355E+01  0.53386736271E+02  0.54659696192E+02  0.00000000000E+00 0. -1.
         22    1    4    4    0    0  0.33188002317E+02  0.52020887626E+01  0.88702294475E+02  0.94850420507E+02  0.00000000000E+00 0. -1.
<mgrwt>
<rscale>  0 0.91101492E+02</rscale>
<asrwt>0</asrwt>
<pdfrwt beam="1">  1        2 0.48851225E-01 0.91101492E+02</pdfrwt>
<pdfrwt beam="2">  1       -2 0.10052841E-02 0.91101492E+02</pdfrwt>
<totfact> 0.18389797E+05</totfact>
</mgrwt>
</event>
<event>
 7    1  0.3337990E-009  0.8566000E+02  0.7818608E-02  0.1313716E+00
          2   -1    0    0  501    0  0.00000000000E+00  0.00000000000E+00  0.58537254031E+02  0.58537254086E+02  0.25500000000E-02 0. -1.
         -2   -1    0    0    0  501 -0.00000000000E+00 -0.00000000000E+00 -0.31337462763E+02  0.31337462867E+02  0.25500000000E-02 0.  1.
         23    2    1    2    0    0  0.00000000000E+00  0.00000000000E+00  0.27199791268E+02  0.89874716953E+02  0.85660002932E+02 0.  0.
    9000005    2    3    3    0    0  0.14381317125E+02  0.31982757521E+02 -0.10385395650E+02  0.38470774142E+02  0.11934192869E+02 0.  0.
         22    1    3    3    0    0 -0.14381317125E+02 -0.31982757521E+02  0.37585186917E+02  0.51403942811E+02  0.00000000000E+00 0. -1.
         22    1    4    4    0    0  0.14053714136E+02  0.17918613798E+02 -0.83565150277E+01  0.24257265816E+02  0.00000000000E+00 0. -1.
         22    1    4    4    0    0  0.32760298941E+00  0.14064143723E+02 -0.20288806219E+01  0.14213508326E+02  0.00000000000E+00 0. -1.
<mgrwt>
<rscale>  0 0.85660003E+02</rscale>
<asrwt>0</asrwt>
<pdfrwt beam="1">  1        2 0.90057313E-02 0.85660003E+02</pdfrwt>
<pdfrwt beam="2">  1       -2 0.48211482E-02 0.85660003E+02</pdfrwt>
<totfact> 0.12554459E+05</totfact>
</mgrwt>
</event>
<event>
 7    1  0.3337990E-009  0.9102772E+02  0.7818608E-02  0.1300382E+00
         -2   -1    0    0    0  501 -0.00000000000E+00  0.00000000000E+00  0.21620064764E+03  0.21620064766E+03  0.25500000000E-02 0.  1.
          2   -1    0    0  501    0  0.00000000000E+00 -0.00000000000E+00 -0.95814300809E+01  0.95814304203E+01  0.25500000000E-02 0. -1.
         23    2    1    2    0    0  0.00000000000E+00  0.00000000000E+00  0.20661921756E+03  0.22578207808E+03  0.91027719489E+02 0.  0.
    9000005    2    3    3    0    0 -0.29139572912E+02 -0.25475156480E+02  0.52560607027E+02  0.66935756789E+02  0.14821599733E+02 0.  0.
         22    1    3    3    0    0  0.29139572912E+02  0.25475156480E+02  0.15405861054E+03  0.15884632129E+03  0.00000000000E+00 0.  1.
         22    1    4    4    0    0 -0.27360731628E+02 -0.27366983092E+02  0.47686500492E+02  0.61413058285E+02  0.00000000000E+00 0. -1.
         22    1    4    4    0    0 -0.17788412845E+01  0.18918266122E+01  0.48741065349E+01  0.55226985034E+01  0.00000000000E+00 0. -1.
<mgrwt>
<rscale>  0 0.91027719E+02</rscale>
<asrwt>0</asrwt>
<pdfrwt beam="2">  1        2 0.14740662E-02 0.91027719E+02</pdfrwt>
<pdfrwt beam="1">  1       -2 0.33261639E-01 0.91027719E+02</pdfrwt>
<totfact> 0.60455172E+04</totfact>
</mgrwt>
</event>
<event>
 7    1  0.3337990E-009  0.9078479E+02  0.7818608E-02  0.1300962E+00
         -2   -1    0    0    0  501 -0.00000000000E+00  0.00000000000E+00  0.67553662635E+01  0.67553667447E+01  0.25500000000E-02 0.  1.
          2   -1    0    0  501    0  0.00000000000E+00 -0.00000000000E+00 -0.30501226888E+03  0.30501226889E+03  0.25500000000E-02 0. -1.
         23    2    1    2    0    0  0.00000000000E+00  0.71054273576E-14 -0.29825690262E+03  0.31176763564E+03  0.90784793172E+02 0.  0.
    9000005    2    3    3    0    0 -0.48874477000E+01  0.39396216232E+02 -0.22404178199E+03  0.22760212531E+03  0.56620112178E+01 0.  0.
         22    1    3    3    0    0  0.48874477000E+01 -0.39396216232E+02 -0.74215120634E+02  0.84165510330E+02  0.00000000000E+00 0.  1.
         22    1    4    4    0    0  0.12012238335E+01  0.48198096229E+01 -0.25257509127E+02  0.25741314473E+02  0.00000000000E+00 0.  1.
         22    1    4    4    0    0 -0.60886715335E+01  0.34576406609E+02 -0.19878427286E+03  0.20186081084E+03  0.00000000000E+00 0.  1.
<mgrwt>
<rscale>  0 0.90784793E+02</rscale>
<asrwt>0</asrwt>
<pdfrwt beam="2">  1        2 0.46924954E-01 0.90784793E+02</pdfrwt>
<pdfrwt beam="1">  1       -2 0.10392874E-02 0.90784793E+02</pdfrwt>
<totfact> 0.18286042E+05</totfact>
</mgrwt>
</event>
<event>
 7    1  0.3337990E-009  0.9087600E+02  0.7818608E-02  0.1300744E+00
          2   -1    0    0  501    0  0.00000000000E+00  0.00000000000E+00  0.32245368360E+02  0.32245368461E+02  0.25500000000E-02 0.  1.
         -2   -1    0    0    0  501 -0.00000000000E+00 -0.00000000000E+00 -0.64028169081E+02  0.64028169131E+02  0.25500000000E-02 0. -1.
         23    2    1    2    0    0  0.00000000000E+00  0.00000000000E+00 -0.31782800720E+02  0.96273537592E+02  0.90876001337E+02 0.  0.
    9000005    2    3    3    0    0  0.41179674164E+02  0.16030483664E+02 -0.21993853569E+02  0.51012456550E+02  0.12876302177E+02 0.  0.
         22    1    3    3    0    0 -0.41179674164E+02 -0.16030483664E+02 -0.97889471516E+01  0.45261081042E+02  0.00000000000E+00 0.  1.
         22    1    4    4    0    0 -0.46517095475E+00  0.28073759155E+00  0.82046808051E+00  0.98405563033E+00  0.00000000000E+00 0. -1.
         22    1    4    4    0    0  0.41644845119E+02  0.15749746072E+02 -0.22814321649E+02  0.50028400920E+02  0.00000000000E+00 0. -1.
<mgrwt>
<rscale>  0 0.90876001E+02</rscale>
<asrwt>0</asrwt>
<pdfrwt beam="1">  1        2 0.49608259E-02 0.90876001E+02</pdfrwt>
<pdfrwt beam="2">  1       -2 0.98504876E-02 0.90876001E+02</pdfrwt>
<totfact> 0.91059368E+04</totfact>
</mgrwt>
</event>
<event>
 7    1  0.3337990E-009  0.9194665E+02  0.7818608E-02  0.1298205E+00
         -2   -1    0    0    0  501 -0.00000000000E+00  0.00000000000E+00  0.73136313599E+01  0.73136318044E+01  0.25500000000E-02 0.  1.
          2   -1    0    0  501    0  0.00000000000E+00 -0.00000000000E+00 -0.28898728138E+03  0.28898728139E+03  0.25500000000E-02 0. -1.
         23    2    1    2    0    0  0.00000000000E+00 -0.35527136788E-14 -0.28167365002E+03  0.29630091320E+03  0.91946647818E+02 0.  0.
    9000005    2    3    3    0    0  0.31001070150E+02  0.29819460822E+02 -0.18631576116E+03  0.19169023706E+03  0.13465419877E+02 0.  0.
         22    1    3    3    0    0 -0.31001070150E+02 -0.29819460822E+02 -0.95357888858E+02  0.10461067614E+03  0.00000000000E+00 0.  1.
         22    1    4    4    0    0  0.25135359816E+02  0.24472905400E+02 -0.12386383071E+03  0.12873600106E+03  0.00000000000E+00 0.  1.
         22    1    4    4    0    0  0.58657103336E+01  0.53465554215E+01 -0.62451930454E+02  0.62954235998E+02  0.00000000000E+00 0.  1.
<mgrwt>
<rscale>  0 0.91946648E+02</rscale>
<asrwt>0</asrwt>
<pdfrwt beam="2">  1        2 0.44459573E-01 0.91946648E+02</pdfrwt>
<pdfrwt beam="1">  1       -2 0.11251743E-02 0.91946648E+02</pdfrwt>
<totfact> 0.17323577E+05</totfact>
</mgrwt>
</event>
<event>
 7    1  0.3337990E-009  0.9423117E+02  0.7818608E-02  0.1292917E+00
         -2   -1    0    0    0  501 -0.00000000000E+00  0.00000000000E+00  0.45276252249E+01  0.45276259430E+01  0.25500000000E-02 0. -1.
          2   -1    0    0  501    0  0.00000000000E+00 -0.00000000000E+00 -0.49029641200E+03  0.49029641200E+03  0.25500000000E-02 0.  1.
         23    2    1    2    0    0 -0.17763568394E-14  0.00000000000E+00 -0.48576878677E+03  0.49482403795E+03  0.94231174925E+02 0.  0.
    9000005    2    3    3    0    0 -0.13365358608E+02  0.98752290818E+01 -0.47426447812E+03  0.47461260362E+03  0.73603901562E+01 0.  0.
         22    1    3    3    0    0  0.13365358608E+02 -0.98752290818E+01 -0.11504308649E+02  0.20211434329E+02  0.00000000000E+00 0. -1.
         22    1    4    4    0    0 -0.62793420544E+01  0.10902737685E+01 -0.12083858558E+03  0.12100653948E+03  0.00000000000E+00 0.  1.
         22    1    4    4    0    0 -0.70860165535E+01  0.87849553133E+01 -0.35342589255E+03  0.35360606413E+03  0.00000000000E+00 0.  1.
<mgrwt>
<rscale>  0 0.94231175E+02</rscale>
<asrwt>0</asrwt>
<pdfrwt beam="2">  1        2 0.75430175E-01 0.94231175E+02</pdfrwt>
<pdfrwt beam="1">  1       -2 0.69655817E-03 0.94231175E+02</pdfrwt>
<totfact> 0.19619839E+05</totfact>
</mgrwt>
</event>
<event>
 7    1  0.3337990E-009  0.1011513E+03  0.7818608E-02  0.1277893E+00
         -2   -1    0    0    0  501 -0.00000000000E+00  0.00000000000E+00  0.72112478957E+01  0.72112483466E+01  0.25500000000E-02 0.  1.
          2   -1    0    0  501    0  0.00000000000E+00 -0.00000000000E+00 -0.35470946712E+03  0.35470946713E+03  0.25500000000E-02 0. -1.
         23    2    1    2    0    0  0.17763568394E-14  0.35527136788E-14 -0.34749821923E+03  0.36192071548E+03  0.10115133181E+03 0.  0.
    9000005    2    3    3    0    0  0.15941604525E+02  0.25462541720E+02 -0.31888954653E+03  0.32043659877E+03  0.93056519682E+01 0.  0.
         22    1    3    3    0    0 -0.15941604525E+02 -0.25462541720E+02 -0.28608672695E+02  0.41484116707E+02  0.00000000000E+00 0.  1.
         22    1    4    4    0    0  0.15778433787E+02  0.18154173589E+02 -0.23403555035E+03  0.23526829752E+03  0.00000000000E+00 0. -1.
         22    1    4    4    0    0  0.16317073778E+00  0.73083681313E+01 -0.84853996186E+02  0.85168301252E+02  0.00000000000E+00 0. -1.
<mgrwt>
<rscale>  0 0.10115133E+03</rscale>
<asrwt>0</asrwt>
<pdfrwt beam="2">  1        2 0.54570674E-01 0.10115133E+03</pdfrwt>
<pdfrwt beam="1">  1       -2 0.11094231E-02 0.10115133E+03</pdfrwt>
<totfact> 0.14476684E+05</totfact>
</mgrwt>
</event>
<event>
 7    1  0.3337990E-009  0.9339833E+02  0.7818608E-02  0.1294825E+00
         -2   -1    0    0    0  501 -0.00000000000E+00  0.00000000000E+00  0.42160642889E+01  0.42160650601E+01  0.25500000000E-02 0. -1.
          2   -1    0    0  501    0  0.00000000000E+00 -0.00000000000E+00 -0.51726244399E+03  0.51726244400E+03  0.25500000000E-02 0.  1.
         23    2    1    2    0    0  0.00000000000E+00  0.35527136788E-14 -0.51304637970E+03  0.52147850906E+03  0.93398328054E+02 0.  0.
    9000005    2    3    3    0    0 -0.27803519387E+02  0.27212975001E+02 -0.39689031124E+03  0.39898028891E+03  0.12238058826E+02 0.  0.
         22    1    3    3    0    0  0.27803519387E+02 -0.27212975001E+02 -0.11615606846E+03  0.12249822015E+03  0.00000000000E+00 0. -1.
         22    1    4    4    0    0 -0.13049117912E+02  0.19140410753E+02 -0.26757135710E+03  0.26857227322E+03  0.00000000000E+00 0. -1.
         22    1    4    4    0    0 -0.14754401475E+02  0.80725642483E+01 -0.12931895414E+03  0.13040801569E+03  0.00000000000E+00 0. -1.
<mgrwt>
<rscale>  0 0.93398328E+02</rscale>
<asrwt>0</asrwt>
<pdfrwt beam="2">  1        2 0.79578787E-01 0.93398328E+02</pdfrwt>
<pdfrwt beam="1">  1       -2 0.64862575E-03 0.93398328E+02</pdfrwt>
<totfact> 0.20439940E+05</totfact>
</mgrwt>
</event>
<event>
 7    1  0.3337990E-009  0.9176030E+02  0.7818608E-02  0.1298644E+00
         -2   -1    0    0    0  501 -0.00000000000E+00  0.00000000000E+00  0.94991338590E+01  0.94991342012E+01  0.25500000000E-02 0.  1.
          2   -1    0    0  501    0  0.00000000000E+00 -0.00000000000E+00 -0.22159791461E+03  0.22159791462E+03  0.25500000000E-02 0. -1.
         23    2    1    2    0    0 -0.35527136788E-14  0.00000000000E+00 -0.21209878075E+03  0.23109704882E+03  0.91760302854E+02 0.  0.
    9000005    2    3    3    0    0 -0.16365898396E+02 -0.31505282704E+02 -0.34314843214E+02  0.49802939946E+02  0.65114433034E+01 0.  0.
         22    1    3    3    0    0  0.16365898396E+02  0.31505282704E+02 -0.17778393753E+03  0.18129410888E+03  0.00000000000E+00 0. -1.
         22    1    4    4    0    0 -0.10853867538E+02 -0.14970392656E+02 -0.20101906995E+02  0.27313106041E+02  0.00000000000E+00 0. -1.
         22    1    4    4    0    0 -0.55120308576E+01 -0.16534890048E+02 -0.14212936220E+02  0.22489833905E+02  0.00000000000E+00 0. -1.
<mgrwt>
<rscale>  0 0.91760303E+02</rscale>
<asrwt>0</asrwt>
<pdfrwt beam="2">  1        2 0.34091983E-01 0.91760303E+02</pdfrwt>
<pdfrwt beam="1">  1       -2 0.14614054E-02 0.91760303E+02</pdfrwt>
<totfact> 0.15783501E+05</totfact>
</mgrwt>
</event>
<event>
 7    1  0.3337990E-009  0.9232823E+02  0.7818608E-02  0.1297310E+00
          2   -1    0    0  501    0  0.00000000000E+00  0.00000000000E+00  0.14688591501E+03  0.14688591504E+03  0.25500000000E-02 0. -1.
         -2   -1    0    0    0  501 -0.00000000000E+00 -0.00000000000E+00 -0.14508713629E+02  0.14508713853E+02  0.25500000000E-02 0.  1.
         23    2    1    2    0    0  0.00000000000E+00  0.00000000000E+00  0.13237720139E+03  0.16139462889E+03  0.92328233970E+02 0.  0.
    9000005    2    3    3    0    0  0.14686752592E+01  0.39812703964E+02  0.10665840630E+03  0.11397454006E+03  0.51934327472E+01 0.  0.
         22    1    3    3    0    0 -0.14686752592E+01 -0.39812703964E+02  0.25718795085E+02  0.47420088829E+02  0.00000000000E+00 0.  1.
         22    1    4    4    0    0  0.32516063828E+01  0.30747093355E+02  0.83568723342E+02  0.89104928118E+02  0.00000000000E+00 0. -1.
         22    1    4    4    0    0 -0.17829311236E+01  0.90656106086E+01  0.23089682958E+02  0.24869611943E+02  0.00000000000E+00 0. -1.
<mgrwt>
<rscale>  0 0.92328234E+02</rscale>
<asrwt>0</asrwt>
<pdfrwt beam="1">  1        2 0.22597832E-01 0.92328234E+02</pdfrwt>
<pdfrwt beam="2">  1       -2 0.22321100E-02 0.92328234E+02</pdfrwt>
<totfact> 0.13415887E+05</totfact>
</mgrwt>
</event>
<event>
 7    1  0.3337990E-009  0.8570345E+02  0.7818608E-02  0.1313603E+00
         -2   -1    0    0    0  501 -0.00000000000E+00  0.00000000000E+00  0.27216310063E+03  0.27216310064E+03  0.25500000000E-02 0.  1.
          2   -1    0    0  501    0  0.00000000000E+00 -0.00000000000E+00 -0.67469486911E+01  0.67469491730E+01  0.25500000000E-02 0. -1.
         23    2    1    2    0    0  0.00000000000E+00  0.00000000000E+00  0.26541615194E+03  0.27891004981E+03  0.85703454876E+02 0.  0.
    9000005    2    3    3    0    0 -0.40498800082E+02  0.94578178477E+01  0.11602458143E+03  0.12383766521E+03  0.12019180638E+02 0.  0.
         22    1    3    3    0    0  0.40498800082E+02 -0.94578178477E+01  0.14939157051E+03  0.15507238460E+03  0.00000000000E+00 0. -1.
         22    1    4    4    0    0 -0.21633900812E+02  0.31439454364E+01  0.44225800062E+02  0.49333877289E+02  0.00000000000E+00 0.  1.
         22    1    4    4    0    0 -0.18864899270E+02  0.63138724112E+01  0.71798781363E+02  0.74503787921E+02  0.00000000000E+00 0.  1.
<mgrwt>
<rscale>  0 0.85703455E+02</rscale>
<asrwt>0</asrwt>
<pdfrwt beam="2">  1        2 0.10379920E-02 0.85703455E+02</pdfrwt>
<pdfrwt beam="1">  1       -2 0.41871251E-01 0.85703455E+02</pdfrwt>
<totfact> 0.63038295E+04</totfact>
</mgrwt>
</event>
<event>
 7    1  0.3337990E-009  0.9322885E+02  0.7818608E-02  0.1295216E+00
         -2   -1    0    0    0  501 -0.00000000000E+00  0.00000000000E+00  0.25860682555E+02  0.25860682681E+02  0.25500000000E-02 0.  1.
          2   -1    0    0  501    0  0.00000000000E+00 -0.00000000000E+00 -0.84023485883E+02  0.84023485921E+02  0.25500000000E-02 0. -1.
         23    2    1    2    0    0  0.00000000000E+00  0.00000000000E+00 -0.58162803328E+02  0.10988416860E+03  0.93228851856E+02 0.  0.
    9000005    2    3    3    0    0 -0.39625662474E+01  0.35403394092E+02 -0.63449610291E+02  0.73869552508E+02  0.12718313456E+02 0.  0.
         22    1    3    3    0    0  0.39625662474E+01 -0.35403394092E+02  0.52868069632E+01  0.36014616094E+02  0.00000000000E+00 0.  1.
         22    1    4    4    0    0 -0.39844227940E+01  0.21544814826E+01 -0.88813165706E+01  0.99697141126E+01  0.00000000000E+00 0. -1.
         22    1    4    4    0    0  0.21856546580E-01  0.33248912610E+02 -0.54568293720E+02  0.63899838396E+02  0.00000000000E+00 0. -1.
<mgrwt>
<rscale>  0 0.93228852E+02</rscale>
<asrwt>0</asrwt>
<pdfrwt beam="2">  1        2 0.12926690E-01 0.93228852E+02</pdfrwt>
<pdfrwt beam="1">  1       -2 0.39785666E-02 0.93228852E+02</pdfrwt>
<totfact> 0.10949966E+05</totfact>
</mgrwt>
</event>
<event>
 7    1  0.3337990E-009  0.9601922E+02  0.7818608E-02  0.1288897E+00
         -2   -1    0    0    0  501 -0.00000000000E+00  0.00000000000E+00  0.47467175075E+02  0.47467175144E+02  0.25500000000E-02 0.  1.
          2   -1    0    0  501    0  0.00000000000E+00 -0.00000000000E+00 -0.48558242100E+02  0.48558242167E+02  0.25500000000E-02 0. -1.
         23    2    1    2    0    0  0.71054273576E-14 -0.35527136788E-14 -0.10910670245E+01  0.96025417311E+02  0.96019218610E+02 0.  0.
    9000005    2    3    3    0    0  0.35255240381E+02 -0.31337079931E+02 -0.49162764139E+01  0.48701250337E+02  0.11076888450E+02 0.  0.
         22    1    3    3    0    0 -0.35255240381E+02  0.31337079931E+02  0.38252093894E+01  0.47324166974E+02  0.00000000000E+00 0. -1.
         22    1    4    4    0    0  0.52196844312E+01 -0.84224739327E+01 -0.45927563891E+01  0.10921381962E+02  0.00000000000E+00 0.  1.
         22    1    4    4    0    0  0.30035555950E+02 -0.22914605998E+02 -0.32352002478E+00  0.37779868375E+02  0.00000000000E+00 0.  1.
<mgrwt>
<rscale>  0 0.96019219E+02</rscale>
<asrwt>0</asrwt>
<pdfrwt beam="2">  1        2 0.74704988E-02 0.96019219E+02</pdfrwt>
<pdfrwt beam="1">  1       -2 0.73026423E-02 0.96019219E+02</pdfrwt>
<totfact> 0.86441916E+04</totfact>
</mgrwt>
</event>
<event>
 7    1  0.3337990E-009  0.9118056E+02  0.7818608E-02  0.1300018E+00
         -2   -1    0    0    0  501 -0.00000000000E+00  0.00000000000E+00  0.10678352155E+02  0.10678352459E+02  0.25500000000E-02 0.  1.
          2   -1    0    0  501    0  0.00000000000E+00 -0.00000000000E+00 -0.19464366465E+03  0.19464366466E+03  0.25500000000E-02 0. -1.
         23    2    1    2    0    0  0.17763568394E-14 -0.71054273576E-14 -0.18396531249E+03  0.20532201712E+03  0.91180559962E+02 0.  0.
    9000005    2    3    3    0    0 -0.12008154289E+02  0.43171112209E+02 -0.10249690782E+03  0.11234330096E+03  0.10366313708E+02 0.  0.
         22    1    3    3    0    0  0.12008154289E+02 -0.43171112209E+02 -0.81468404673E+02  0.92978716160E+02  0.00000000000E+00 0. -1.
         22    1    4    4    0    0 -0.40691404041E+00  0.20357767822E+02 -0.47690420540E+02  0.51855380637E+02  0.00000000000E+00 0. -1.
         22    1    4    4    0    0 -0.11601240249E+02  0.22813344387E+02 -0.54806487278E+02  0.60487920325E+02  0.00000000000E+00 0. -1.
<mgrwt>
<rscale>  0 0.91180560E+02</rscale>
<asrwt>0</asrwt>
<pdfrwt beam="2">  1        2 0.29945177E-01 0.91180560E+02</pdfrwt>
<pdfrwt beam="1">  1       -2 0.16428236E-02 0.91180560E+02</pdfrwt>
<totfact> 0.15315494E+05</totfact>
</mgrwt>
</event>
<event>
 7    1  0.3337990E-009  0.9132019E+02  0.7818608E-02  0.1299686E+00
         -2   -1    0    0    0  501 -0.00000000000E+00  0.00000000000E+00  0.53318967060E+01  0.53318973158E+01  0.25500000000E-02 0.  1.
          2   -1    0    0  501    0  0.00000000000E+00 -0.00000000000E+00 -0.39101356437E+03  0.39101356438E+03  0.25500000000E-02 0. -1.
         23    2    1    2    0    0  0.00000000000E+00  0.71054273576E-14 -0.38568166767E+03  0.39634546170E+03  0.91320185247E+02 0.  0.
    9000005    2    3    3    0    0 -0.10071642729E+02 -0.38729857890E+02 -0.28759912382E+03  0.29041328865E+03  0.50181990528E+01 0.  0.
         22    1    3    3    0    0  0.10071642729E+02  0.38729857890E+02 -0.98082543846E+02  0.10593217305E+03  0.00000000000E+00 0.  1.
         22    1    4    4    0    0  0.19378056215E+00 -0.27913019980E+01 -0.14396651827E+02  0.14666032237E+02  0.00000000000E+00 0. -1.
         22    1    4    4    0    0 -0.10265423291E+02 -0.35938555892E+02 -0.27320247199E+03  0.27574725641E+03  0.00000000000E+00 0. -1.
<mgrwt>
<rscale>  0 0.91320185E+02</rscale>
<asrwt>0</asrwt>
<pdfrwt beam="2">  1        2 0.60155911E-01 0.91320185E+02</pdfrwt>
<pdfrwt beam="1">  1       -2 0.82029215E-03 0.91320185E+02</pdfrwt>
<totfact> 0.19717987E+05</totfact>
</mgrwt>
</event>
<event>
 7    1  0.3337990E-009  0.9115687E+02  0.7818608E-02  0.1300074E+00
         -2   -1    0    0    0  501 -0.00000000000E+00  0.00000000000E+00  0.37836973380E+02  0.37836973466E+02  0.25500000000E-02 0.  1.
          2   -1    0    0  501    0  0.00000000000E+00 -0.00000000000E+00 -0.54903803445E+02  0.54903803504E+02  0.25500000000E-02 0. -1.
         23    2    1    2    0    0  0.35527136788E-14  0.35527136788E-14 -0.17066830065E+02  0.92740776970E+02  0.91156870419E+02 0.  0.
    9000005    2    3    3    0    0 -0.25126736271E+02 -0.28590833612E+02 -0.31727185899E+02  0.51952118308E+02  0.15608319234E+02 0.  0.
         22    1    3    3    0    0  0.25126736271E+02  0.28590833612E+02  0.14660355835E+02  0.40788658662E+02  0.00000000000E+00 0.  1.
         22    1    4    4    0    0 -0.72300733266E+01 -0.15656860498E+02 -0.65093349539E+01  0.18433195124E+02  0.00000000000E+00 0.  1.
         22    1    4    4    0    0 -0.17896662945E+02 -0.12933973114E+02 -0.25217850945E+02  0.33518923183E+02  0.00000000000E+00 0.  1.
<mgrwt>
<rscale>  0 0.91156870E+02</rscale>
<asrwt>0</asrwt>
<pdfrwt beam="2">  1        2 0.84467390E-02 0.91156870E+02</pdfrwt>
<pdfrwt beam="1">  1       -2 0.58210728E-02 0.91156870E+02</pdfrwt>
<totfact> 0.10365707E+05</totfact>
</mgrwt>
</event>
<event>
 7    1  0.3337990E-009  0.9259870E+02  0.7818608E-02  0.1296678E+00
          2   -1    0    0  501    0  0.00000000000E+00  0.00000000000E+00  0.63038078094E+01  0.63038083251E+01  0.25500000000E-02 0. -1.
         -2   -1    0    0    0  501 -0.00000000000E+00 -0.00000000000E+00 -0.34005315156E+03  0.34005315157E+03  0.25500000000E-02 0.  1.
         23    2    1    2    0    0  0.00000000000E+00  0.00000000000E+00 -0.33374934375E+03  0.34635695989E+03  0.92598699847E+02 0.  0.
    9000005    2    3    3    0    0  0.18330624568E+02  0.41886919234E+02 -0.15552016820E+03  0.16235651202E+03  0.90878203568E+01 0.  0.
         22    1    3    3    0    0 -0.18330624568E+02 -0.41886919234E+02 -0.17822917555E+03  0.18400044787E+03  0.00000000000E+00 0.  1.
         22    1    4    4    0    0  0.16869809194E+02  0.33492391183E+02 -0.13561054492E+03  0.14070021544E+03  0.00000000000E+00 0.  1.
         22    1    4    4    0    0  0.14608153744E+01  0.83945280518E+01 -0.19909623272E+02  0.21656296581E+02  0.00000000000E+00 0.  1.
<mgrwt>
<rscale>  0 0.92598700E+02</rscale>
<asrwt>0</asrwt>
<pdfrwt beam="1">  1        2 0.96981689E-03 0.92598700E+02</pdfrwt>
<pdfrwt beam="2">  1       -2 0.52315855E-01 0.92598700E+02</pdfrwt>
<totfact> 0.45533749E+04</totfact>
</mgrwt>
</event>
<event>
 7    1  0.3337990E-009  0.9163446E+02  0.7818608E-02  0.1298941E+00
          2   -1    0    0  501    0  0.00000000000E+00  0.00000000000E+00  0.36095543690E+02  0.36095543780E+02  0.25500000000E-02 0. -1.
         -2   -1    0    0    0  501 -0.00000000000E+00 -0.00000000000E+00 -0.58157274928E+02  0.58157274984E+02  0.25500000000E-02 0.  1.
         23    2    1    2    0    0  0.00000000000E+00  0.00000000000E+00 -0.22061731238E+02  0.94252818764E+02  0.91634457819E+02 0.  0.
    9000005    2    3    3    0    0  0.35185537909E+02  0.15689075225E+02 -0.35442337568E+02  0.53470349673E+02  0.10897240127E+02 0.  0.
         22    1    3    3    0    0 -0.35185537909E+02 -0.15689075225E+02  0.13380606330E+02  0.40782469091E+02  0.00000000000E+00 0. -1.
         22    1    4    4    0    0  0.34328589544E+02  0.14061501288E+02 -0.35847324456E+02  0.51586902885E+02  0.00000000000E+00 0. -1.
         22    1    4    4    0    0  0.85694836500E+00  0.16275739377E+01  0.40498688796E+00  0.18834467877E+01  0.00000000000E+00 0. -1.
<mgrwt>
<rscale>  0 0.91634458E+02</rscale>
<asrwt>0</asrwt>
<pdfrwt beam="1">  1        2 0.55531606E-02 0.91634458E+02</pdfrwt>
<pdfrwt beam="2">  1       -2 0.89472731E-02 0.91634458E+02</pdfrwt>
<totfact> 0.91531114E+04</totfact>
</mgrwt>
</event>
<event>
 7    1  0.3337990E-009  0.9388837E+02  0.7818608E-02  0.1293700E+00
         -2   -1    0    0    0  501 -0.00000000000E+00  0.00000000000E+00  0.34512387310E+02  0.34512387404E+02  0.25500000000E-02 0.  1.
          2   -1    0    0  501    0  0.00000000000E+00 -0.00000000000E+00 -0.63854072504E+02  0.63854072555E+02  0.25500000000E-02 0. -1.
         23    2    1    2    0    0  0.00000000000E+00  0.55511151231E-16 -0.29341685194E+02  0.98366459959E+02  0.93888369646E+02 0.  0.
    9000005    2    3    3    0    0 -0.17367316009E+02  0.31397041677E+00  0.30179658392E+02  0.36362326346E+02  0.10473048927E+02 0.  0.
         22    1    3    3    0    0  0.17367316009E+02 -0.31397041677E+00 -0.59521343586E+02  0.62004133613E+02  0.00000000000E+00 0. -1.
         22    1    4    4    0    0  0.70817253161E+00 -0.18084574731E+01  0.17980581895E+01  0.26467036138E+01  0.00000000000E+00 0. -1.
         22    1    4    4    0    0 -0.18075488540E+02  0.21224278899E+01  0.28381600203E+02  0.33715622732E+02  0.00000000000E+00 0. -1.
<mgrwt>
<rscale>  0 0.93888370E+02</rscale>
<asrwt>0</asrwt>
<pdfrwt beam="2">  1        2 0.98237035E-02 0.93888370E+02</pdfrwt>
<pdfrwt beam="1">  1       -2 0.53095980E-02 0.93888370E+02</pdfrwt>
<totfact> 0.99308286E+04</totfact>
</mgrwt>
</event>
<event>
 7    1  0.3337990E-009  0.9289481E+02  0.7818608E-02  0.1295989E+00
         -2   -1    0    0    0  501 -0.00000000000E+00  0.00000000000E+00  0.40191987613E+03  0.40191987614E+03  0.25500000000E-02 0.  1.
          2   -1    0    0  501    0  0.00000000000E+00 -0.00000000000E+00 -0.53676403798E+01  0.53676409855E+01  0.25500000000E-02 0. -1.
         23    2    1    2    0    0  0.00000000000E+00  0.00000000000E+00  0.39655223575E+03  0.40728751712E+03  0.92894811084E+02 0.  0.
    9000005    2    3    3    0    0  0.27928227229E+02  0.24732200571E+02  0.31931052814E+03  0.32150902906E+03  0.41442441846E+01 0.  0.
         22    1    3    3    0    0 -0.27928227229E+02 -0.24732200571E+02  0.77241707607E+02  0.85778488068E+02  0.00000000000E+00 0. -1.
         22    1    4    4    0    0  0.25535895968E+02  0.23835298182E+02  0.30131409876E+03  0.30333214391E+03  0.00000000000E+00 0.  1.
         22    1    4    4    0    0  0.23923312610E+01  0.89690238847E+00  0.17996429388E+02  0.18176885143E+02  0.00000000000E+00 0.  1.
<mgrwt>
<rscale>  0 0.92894811E+02</rscale>
<asrwt>0</asrwt>
<pdfrwt beam="2">  1        2 0.82579057E-03 0.92894811E+02</pdfrwt>
<pdfrwt beam="1">  1       -2 0.61833850E-01 0.92894811E+02</pdfrwt>
<totfact> 0.40547205E+04</totfact>
</mgrwt>
</event>
<event>
 7    1  0.3337990E-009  0.9102731E+02  0.7818608E-02  0.1300383E+00
         -2   -1    0    0    0  501 -0.00000000000E+00  0.00000000000E+00  0.18078183269E+02  0.18078183449E+02  0.25500000000E-02 0. -1.
          2   -1    0    0  501    0  0.00000000000E+00 -0.00000000000E+00 -0.11458523455E+03  0.11458523458E+03  0.25500000000E-02 0.  1.
         23    2    1    2    0    0 -0.35527136788E-14  0.35527136788E-14 -0.96507051281E+02  0.13266341803E+03  0.91027312033E+02 0.  0.
    9000005    2    3    3    0    0  0.19061653915E+02 -0.16504373298E+02 -0.10250136988E+03  0.10674676617E+03  0.15893403471E+02 0.  0.
         22    1    3    3    0    0 -0.19061653915E+02  0.16504373298E+02  0.59943185952E+01  0.25916651855E+02  0.00000000000E+00 0. -1.
         22    1    4    4    0    0 -0.11590644537E+01 -0.49274338495E+01 -0.34382772894E+02  0.34753389858E+02  0.00000000000E+00 0. -1.
         22    1    4    4    0    0  0.20220718369E+02 -0.11576939449E+02 -0.68118596982E+02  0.71993376315E+02  0.00000000000E+00 0. -1.
<mgrwt>
<rscale>  0 0.91027312E+02</rscale>
<asrwt>0</asrwt>
<pdfrwt beam="2">  1        2 0.17628497E-01 0.91027312E+02</pdfrwt>
<pdfrwt beam="1">  1       -2 0.27812590E-02 0.91027312E+02</pdfrwt>
<totfact> 0.12854718E+05</totfact>
</mgrwt>
</event>
<event>
 7    1  0.3337990E-009  0.9271696E+02  0.7818608E-02  0.1296402E+00
         -2   -1    0    0    0  501 -0.00000000000E+00  0.00000000000E+00  0.26652506997E+02  0.26652507119E+02  0.25500000000E-02 0.  1.
          2   -1    0    0  501    0  0.00000000000E+00 -0.00000000000E+00 -0.80634386479E+02  0.80634386519E+02  0.25500000000E-02 0. -1.
         23    2    1    2    0    0 -0.35527136788E-14  0.00000000000E+00 -0.53981879482E+02  0.10728689364E+03  0.92716957641E+02 0.  0.
    9000005    2    3    3    0    0  0.31063156257E+02 -0.85672624042E+01  0.10959322731E+02  0.34790842666E+02  0.72095989462E+01 0.  0.
         22    1    3    3    0    0 -0.31063156257E+02  0.85672624042E+01 -0.64941202213E+02  0.72496050972E+02  0.00000000000E+00 0. -1.
         22    1    4    4    0    0  0.41095181960E+01 -0.19169942434E+01  0.42827008595E+01  0.62373498687E+01  0.00000000000E+00 0.  1.
         22    1    4    4    0    0  0.26953638061E+02 -0.66502681608E+01  0.66766218716E+01  0.28553492797E+02  0.00000000000E+00 0.  1.
<mgrwt>
<rscale>  0 0.92716958E+02</rscale>
<asrwt>0</asrwt>
<pdfrwt beam="2">  1        2 0.12405290E-01 0.92716958E+02</pdfrwt>
<pdfrwt beam="1">  1       -2 0.41003858E-02 0.92716958E+02</pdfrwt>
<totfact> 0.10986982E+05</totfact>
</mgrwt>
</event>
<event>
 7    1  0.4114004E-009  0.9644874E+02  0.7818608E-02  0.1287946E+00
         -2   -1    0    0    0  501 -0.00000000000E+00  0.00000000000E+00  0.66764497712E+01  0.66764502582E+01  0.25500000000E-02 0.  1.
          2   -1    0    0  501    0  0.00000000000E+00 -0.00000000000E+00 -0.34832728217E+03  0.34832728218E+03  0.25500000000E-02 0. -1.
         23    2    1    2    0    0 -0.17763568394E-14 -0.17763568394E-14 -0.34165083240E+03  0.35500373244E+03  0.96448736466E+02 0.  0.
    9000005    2    3    3    0    0 -0.66254945460E+01 -0.15048565077E+02 -0.33737222306E+03  0.33801364749E+03  0.12761367706E+02 0.  0.
         22    1    3    3    0    0  0.66254945460E+01  0.15048565077E+02 -0.42786093426E+01  0.16990084955E+02  0.00000000000E+00 0.  1.
         22    1    4    4    0    0 -0.84865277521E+01 -0.15390521068E+02 -0.32688199607E+03  0.32735413339E+03  0.00000000000E+00 0. -1.
         22    1    4    4    0    0  0.18610332061E+01  0.34195599050E+00 -0.10490226987E+02  0.10659514095E+02  0.00000000000E+00 0. -1.
<mgrwt>
<rscale>  0 0.96448736E+02</rscale>
<asrwt>0</asrwt>
<pdfrwt beam="2">  1        2 0.53588798E-01 0.96448736E+02</pdfrwt>
<pdfrwt beam="1">  1       -2 0.10271464E-02 0.96448736E+02</pdfrwt>
<totfact> 0.16340061E+05</totfact>
</mgrwt>
</event>
<event>
 7    1  0.3337990E-009  0.9146332E+02  0.7818608E-02  0.1299346E+00
          2   -1    0    0  501    0  0.00000000000E+00  0.00000000000E+00  0.37927335820E+02  0.37927335905E+02  0.25500000000E-02 0. -1.
         -2   -1    0    0    0  501 -0.00000000000E+00 -0.00000000000E+00 -0.55141885781E+02  0.55141885840E+02  0.25500000000E-02 0.  1.
         23    2    1    2    0    0  0.00000000000E+00  0.71054273576E-14 -0.17214549962E+02  0.93069221746E+02  0.91463322190E+02 0.  0.
    9000005    2    3    3    0    0  0.26433087228E+02  0.35801627383E+02 -0.22023723027E+00  0.45432352737E+02  0.91425131735E+01 0.  0.
         22    1    3    3    0    0 -0.26433087228E+02 -0.35801627383E+02 -0.16994312731E+02  0.47636869008E+02  0.00000000000E+00 0.  1.
         22    1    4    4    0    0  0.19633893275E+02  0.31060682027E+02 -0.25146693821E+01  0.36831770188E+02  0.00000000000E+00 0. -1.
         22    1    4    4    0    0  0.67991939533E+01  0.47409453564E+01  0.22944321518E+01  0.86005825493E+01  0.00000000000E+00 0. -1.
<mgrwt>
<rscale>  0 0.91463322E+02</rscale>
<asrwt>0</asrwt>
<pdfrwt beam="1">  1        2 0.58349747E-02 0.91463322E+02</pdfrwt>
<pdfrwt beam="2">  1       -2 0.84833671E-02 0.91463322E+02</pdfrwt>
<totfact> 0.93227141E+04</totfact>
</mgrwt>
</event>
<event>
 7    1  0.3337990E-009  0.9036323E+02  0.7818608E-02  0.1301974E+00
          2   -1    0    0  501    0  0.00000000000E+00  0.00000000000E+00  0.25604221842E+02  0.25604221969E+02  0.25500000000E-02 0.  1.
         -2   -1    0    0    0  501 -0.00000000000E+00 -0.00000000000E+00 -0.79728197730E+02  0.79728197771E+02  0.25500000000E-02 0. -1.
         23    2    1    2    0    0 -0.35527136788E-14  0.00000000000E+00 -0.54123975889E+02  0.10533241974E+03  0.90363233022E+02 0.  0.
    9000005    2    3    3    0    0 -0.22302865386E+02  0.14181710037E+02 -0.69667518754E+02  0.74670710251E+02  0.48593308317E+01 0.  0.
         22    1    3    3    0    0  0.22302865386E+02 -0.14181710037E+02  0.15543542865E+02  0.30661709489E+02  0.00000000000E+00 0.  1.
         22    1    4    4    0    0 -0.20846250422E+02  0.11551971870E+02 -0.62976642745E+02  0.67335516202E+02  0.00000000000E+00 0.  1.
         22    1    4    4    0    0 -0.14566149639E+01  0.26297381662E+01 -0.66908760088E+01  0.73351940493E+01  0.00000000000E+00 0.  1.
<mgrwt>
<rscale>  0 0.90363233E+02</rscale>
<asrwt>0</asrwt>
<pdfrwt beam="1">  1        2 0.39391111E-02 0.90363233E+02</pdfrwt>
<pdfrwt beam="2">  1       -2 0.12265876E-01 0.90363233E+02</pdfrwt>
<totfact> 0.87053376E+04</totfact>
</mgrwt>
</event>
<event>
 7    1  0.3337990E-009  0.8715877E+02  0.7818608E-02  0.1309882E+00
         -2   -1    0    0    0  501 -0.00000000000E+00  0.00000000000E+00  0.37348469096E+01  0.37348477802E+01  0.25500000000E-02 0.  1.
          2   -1    0    0  501    0  0.00000000000E+00 -0.00000000000E+00 -0.50849807990E+03  0.50849807990E+03  0.25500000000E-02 0. -1.
         23    2    1    2    0    0 -0.35527136788E-14 -0.35527136788E-14 -0.50476323299E+03  0.51223292768E+03  0.87158767932E+02 0.  0.
    9000005    2    3    3    0    0 -0.18242167996E+02 -0.27827502796E+02 -0.41765206773E+03  0.41898325360E+03  0.25633003852E+01 0.  0.
         22    1    3    3    0    0  0.18242167996E+02  0.27827502796E+02 -0.87111165254E+02  0.93249674085E+02  0.00000000000E+00 0.  1.
         22    1    4    4    0    0 -0.92560662961E+01 -0.15371792050E+02 -0.21143412582E+03  0.21219414770E+03  0.00000000000E+00 0.  1.
         22    1    4    4    0    0 -0.89861017001E+01 -0.12455710746E+02 -0.20621794191E+03  0.20678910590E+03  0.00000000000E+00 0.  1.
<mgrwt>
<rscale>  0 0.87158768E+02</rscale>
<asrwt>0</asrwt>
<pdfrwt beam="2">  1        2 0.78230419E-01 0.87158768E+02</pdfrwt>
<pdfrwt beam="1">  1       -2 0.57459230E-03 0.87158768E+02</pdfrwt>
<totfact> 0.24404000E+05</totfact>
</mgrwt>
</event>
<event>
 7    1  0.3337990E-009  0.1071344E+03  0.7818608E-02  0.1265970E+00
         -2   -1    0    0    0  501 -0.00000000000E+00  0.00000000000E+00  0.16245173211E+02  0.16245173411E+02  0.25500000000E-02 0.  1.
          2   -1    0    0  501    0  0.00000000000E+00 -0.00000000000E+00 -0.17663381934E+03  0.17663381936E+03  0.25500000000E-02 0. -1.
         23    2    1    2    0    0  0.00000000000E+00  0.22204460493E-15 -0.16038864613E+03  0.19287899277E+03  0.10713443912E+03 0.  0.
    9000005    2    3    3    0    0 -0.44992262592E+02 -0.57433191857E+00 -0.13235375776E+03  0.13986400888E+03  0.44486219936E+01 0.  0.
         22    1    3    3    0    0  0.44992262592E+02  0.57433191857E+00 -0.28034888365E+02  0.53014983882E+02  0.00000000000E+00 0.  1.
         22    1    4    4    0    0 -0.18680898818E+02  0.18895354121E+01 -0.56611078013E+02  0.59643612219E+02  0.00000000000E+00 0. -1.
         22    1    4    4    0    0 -0.26311363774E+02 -0.24638673307E+01 -0.75742679748E+02  0.80220396666E+02  0.00000000000E+00 0. -1.
<mgrwt>
<rscale>  0 0.10713444E+03</rscale>
<asrwt>0</asrwt>
<pdfrwt beam="2">  1        2 0.27174432E-01 0.10713444E+03</pdfrwt>
<pdfrwt beam="1">  1       -2 0.24992576E-02 0.10713444E+03</pdfrwt>
<totfact> 0.95258500E+04</totfact>
</mgrwt>
</event>
<event>
 7    1  0.3337990E-009  0.9014342E+02  0.7818608E-02  0.1302505E+00
         -2   -1    0    0    0  501 -0.00000000000E+00  0.00000000000E+00  0.19940558610E+01  0.19940574914E+01  0.25500000000E-02 0. -1.
          2   -1    0    0  501    0  0.00000000000E+00 -0.00000000000E+00 -0.10187569565E+04  0.10187569565E+04  0.25500000000E-02 0.  1.
         23    2    1    2    0    0 -0.88817841970E-15  0.00000000000E+00 -0.10167629006E+04  0.10207510140E+04  0.90143421585E+02 0.  0.
    9000005    2    3    3    0    0 -0.59276611150E+01 -0.17745850892E+02 -0.97269118150E+03  0.97287232543E+03  0.15409870949E+01 0.  0.
         22    1    3    3    0    0  0.59276611150E+01  0.17745850892E+02 -0.44071719132E+02  0.47878688552E+02  0.00000000000E+00 0. -1.
         22    1    4    4    0    0 -0.34224719650E+01 -0.11869291166E+02 -0.66748472481E+03  0.66759901980E+03  0.00000000000E+00 0.  1.
         22    1    4    4    0    0 -0.25051891501E+01 -0.58765597255E+01 -0.30520645669E+03  0.30527330563E+03  0.00000000000E+00 0.  1.
<mgrwt>
<rscale>  0 0.90143422E+02</rscale>
<asrwt>0</asrwt>
<pdfrwt beam="2">  1        2 0.15673142E+00 0.90143422E+02</pdfrwt>
<pdfrwt beam="1">  1       -2 0.30677876E-03 0.90143422E+02</pdfrwt>
<totfact> 0.25780273E+05</totfact>
</mgrwt>
</event>
<event>
 7    1  0.3337990E-009  0.9032146E+02  0.7818608E-02  0.1302075E+00
          2   -1    0    0  501    0  0.00000000000E+00  0.00000000000E+00  0.85748842157E+02  0.85748842195E+02  0.25500000000E-02 0.  1.
         -2   -1    0    0    0  501 -0.00000000000E+00 -0.00000000000E+00 -0.23784477929E+02  0.23784478065E+02  0.25500000000E-02 0. -1.
         23    2    1    2    0    0  0.71054273576E-14  0.88817841970E-15  0.61964364228E+02  0.10953332026E+03  0.90321458209E+02 0.  0.
    9000005    2    3    3    0    0  0.39244772042E+02 -0.69121285043E+01  0.73099463434E+01  0.41894314890E+02  0.10666238865E+02 0.  0.
         22    1    3    3    0    0 -0.39244772042E+02  0.69121285043E+01  0.54654417885E+02  0.67639005370E+02  0.00000000000E+00 0.  1.
         22    1    4    4    0    0  0.12965881918E+02 -0.58575654441E+01 -0.11320711113E+01  0.14272587426E+02  0.00000000000E+00 0. -1.
         22    1    4    4    0    0  0.26278890124E+02 -0.10545630602E+01  0.84420174547E+01  0.27621727464E+02  0.00000000000E+00 0. -1.
<mgrwt>
<rscale>  0 0.90321458E+02</rscale>
<asrwt>0</asrwt>
<pdfrwt beam="1">  1        2 0.13192129E-01 0.90321458E+02</pdfrwt>
<pdfrwt beam="2">  1       -2 0.36591505E-02 0.90321458E+02</pdfrwt>
<totfact> 0.12027716E+05</totfact>
</mgrwt>
</event>
<event>
 7    1  0.3337990E-009  0.9525628E+02  0.7818608E-02  0.1290600E+00
          2   -1    0    0  501    0  0.00000000000E+00  0.00000000000E+00  0.48972298805E+03  0.48972298806E+03  0.25500000000E-02 0. -1.
         -2   -1    0    0    0  501 -0.00000000000E+00 -0.00000000000E+00 -0.46320868790E+01  0.46320875809E+01  0.25500000000E-02 0.  1.
         23    2    1    2    0    0  0.17763568394E-14  0.00000000000E+00  0.48509090118E+03  0.49435507564E+03  0.95256277534E+02 0.  0.
    9000005    2    3    3    0    0  0.11523111628E+02 -0.33776737709E+02  0.40419065790E+03  0.40593279636E+03  0.11734441316E+02 0.  0.
         22    1    3    3    0    0 -0.11523111628E+02  0.33776737709E+02  0.80900243275E+02  0.88422279284E+02  0.00000000000E+00 0.  1.
         22    1    4    4    0    0  0.31904141398E+01 -0.25213172093E+02  0.25436546418E+03  0.25563190755E+03  0.00000000000E+00 0. -1.
         22    1    4    4    0    0  0.83326974885E+01 -0.85635656161E+01  0.14982519372E+03  0.15030088881E+03  0.00000000000E+00 0. -1.
<mgrwt>
<rscale>  0 0.95256278E+02</rscale>
<asrwt>0</asrwt>
<pdfrwt beam="1">  1        2 0.75341980E-01 0.95256278E+02</pdfrwt>
<pdfrwt beam="2">  1       -2 0.71262897E-03 0.95256278E+02</pdfrwt>
<totfact> 0.19056094E+05</totfact>
</mgrwt>
</event>
<event>
 7    1  0.3337990E-009  0.9222518E+02  0.7818608E-02  0.1297551E+00
          2   -1    0    0  501    0  0.00000000000E+00  0.00000000000E+00  0.84032847889E+02  0.84032847928E+02  0.25500000000E-02 0. -1.
         -2   -1    0    0    0  501 -0.00000000000E+00 -0.00000000000E+00 -0.25304043107E+02  0.25304043236E+02  0.25500000000E-02 0.  1.
         23    2    1    2    0    0  0.00000000000E+00  0.00000000000E+00  0.58728804782E+02  0.10933689116E+03  0.92225176921E+02 0.  0.
    9000005    2    3    3    0    0  0.11408755428E+02  0.41506796941E+02  0.99790307902E+01  0.44302174612E+02  0.31824090089E+01 0.  0.
         22    1    3    3    0    0 -0.11408755428E+02 -0.41506796941E+02  0.48749773992E+02  0.65034716552E+02  0.00000000000E+00 0. -1.
         22    1    4    4    0    0  0.47369126405E+01  0.12638073180E+02  0.39809171917E+01  0.14071493764E+02  0.00000000000E+00 0.  1.
         22    1    4    4    0    0  0.66718427879E+01  0.28868723761E+02  0.59981135985E+01  0.30230680848E+02  0.00000000000E+00 0.  1.
<mgrwt>
<rscale>  0 0.92225177E+02</rscale>
<asrwt>0</asrwt>
<pdfrwt beam="1">  1        2 0.12928130E-01 0.92225177E+02</pdfrwt>
<pdfrwt beam="2">  1       -2 0.38929298E-02 0.92225177E+02</pdfrwt>
<totfact> 0.11285184E+05</totfact>
</mgrwt>
</event>
<event>
 7    1  0.3337990E-009  0.9233827E+02  0.7818608E-02  0.1297286E+00
          2   -1    0    0  501    0  0.00000000000E+00  0.00000000000E+00  0.73217824354E+03  0.73217824355E+03  0.25500000000E-02 0. -1.
         -2   -1    0    0    0  501 -0.00000000000E+00 -0.00000000000E+00 -0.29112975729E+01  0.29112986897E+01  0.25500000000E-02 0.  1.
         23    2    1    2    0    0  0.00000000000E+00  0.00000000000E+00  0.72926694597E+03  0.73508954223E+03  0.92338272789E+02 0.  0.
    9000005    2    3    3    0    0  0.47178593193E+01 -0.37609707834E+02  0.57344927977E+03  0.57472778426E+03  0.55858049711E+01 0.  0.
         22    1    3    3    0    0 -0.47178593193E+01  0.37609707834E+02  0.15581766620E+03  0.16036175797E+03  0.00000000000E+00 0. -1.
         22    1    4    4    0    0  0.87851730619E+00 -0.21709036037E+02  0.35775382202E+03  0.35841296183E+03  0.00000000000E+00 0.  1.
         22    1    4    4    0    0  0.38393420131E+01 -0.15900671797E+02  0.21569545775E+03  0.21631482244E+03  0.00000000000E+00 0.  1.
<mgrwt>
<rscale>  0 0.92338273E+02</rscale>
<asrwt>0</asrwt>
<pdfrwt beam="1">  1        2 0.11264270E+00 0.92338273E+02</pdfrwt>
<pdfrwt beam="2">  1       -2 0.44789244E-03 0.92338273E+02</pdfrwt>
<totfact> 0.23167481E+05</totfact>
</mgrwt>
</event>
<event>
 7    1  0.3337990E-009  0.9145076E+02  0.7818608E-02  0.1299376E+00
         -2   -1    0    0    0  501 -0.00000000000E+00  0.00000000000E+00  0.80173089338E+01  0.80173093394E+01  0.25500000000E-02 0. -1.
          2   -1    0    0  501    0  0.00000000000E+00 -0.00000000000E+00 -0.26078707101E+03  0.26078707102E+03  0.25500000000E-02 0.  1.
         23    2    1    2    0    0  0.00000000000E+00  0.71054273576E-14 -0.25276976208E+03  0.26880438036E+03  0.91450764249E+02 0.  0.
    9000005    2    3    3    0    0 -0.16684071880E+02  0.42059384988E+02 -0.14206439502E+03  0.14920911116E+03  0.58065825770E+01 0.  0.
         22    1    3    3    0    0  0.16684071880E+02 -0.42059384988E+02 -0.11070536706E+03  0.11959526920E+03  0.00000000000E+00 0.  1.
         22    1    4    4    0    0 -0.12949723386E+02  0.32088327188E+02 -0.99978301774E+02  0.10579705527E+03  0.00000000000E+00 0.  1.
         22    1    4    4    0    0 -0.37343484936E+01  0.99710577995E+01 -0.42086093242E+02  0.43412055891E+02  0.00000000000E+00 0.  1.
<mgrwt>
<rscale>  0 0.91450764E+02</rscale>
<asrwt>0</asrwt>
<pdfrwt beam="2">  1        2 0.40121081E-01 0.91450764E+02</pdfrwt>
<pdfrwt beam="1">  1       -2 0.12334324E-02 0.91450764E+02</pdfrwt>
<totfact> 0.16914960E+05</totfact>
</mgrwt>
</event>
<event>
 7    1  0.3337990E-009  0.9148959E+02  0.7818608E-02  0.1299284E+00
          2   -1    0    0  501    0  0.00000000000E+00  0.00000000000E+00  0.27865844972E+03  0.27865844973E+03  0.25500000000E-02 0. -1.
         -2   -1    0    0    0  501 -0.00000000000E+00 -0.00000000000E+00 -0.75095020123E+01  0.75095024453E+01  0.25500000000E-02 0.  1.
         23    2    1    2    0    0  0.17763568394E-14  0.00000000000E+00  0.27114894771E+03  0.28616795218E+03  0.91489589627E+02 0.  0.
    9000005    2    3    3    0    0  0.13085005652E+02  0.25401353242E+02  0.24657126201E+03  0.24847831496E+03  0.11297771260E+02 0.  0.
         22    1    3    3    0    0 -0.13085005652E+02 -0.25401353242E+02  0.24577685696E+02  0.37689637218E+02  0.00000000000E+00 0.  1.
         22    1    4    4    0    0  0.19377739424E+01  0.12997239927E+02  0.13929838483E+03  0.13991684399E+03  0.00000000000E+00 0. -1.
         22    1    4    4    0    0  0.11147231710E+02  0.12404113315E+02  0.10727287718E+03  0.10856147097E+03  0.00000000000E+00 0. -1.
<mgrwt>
<rscale>  0 0.91489590E+02</rscale>
<asrwt>0</asrwt>
<pdfrwt beam="1">  1        2 0.42870526E-01 0.91489590E+02</pdfrwt>
<pdfrwt beam="2">  1       -2 0.11553082E-02 0.91489590E+02</pdfrwt>
<totfact> 0.17319014E+05</totfact>
</mgrwt>
</event>
<event>
 7    1  0.3337990E-009  0.9052045E+02  0.7818608E-02  0.1301596E+00
          2   -1    0    0  501    0  0.00000000000E+00  0.00000000000E+00  0.11611937036E+03  0.11611937039E+03  0.25500000000E-02 0.  1.
         -2   -1    0    0    0  501 -0.00000000000E+00 -0.00000000000E+00 -0.17641223988E+02  0.17641224172E+02  0.25500000000E-02 0. -1.
         23    2    1    2    0    0  0.00000000000E+00  0.00000000000E+00  0.98478146377E+02  0.13376059457E+03  0.90520447108E+02 0.  0.
    9000005    2    3    3    0    0  0.29339861606E+02  0.32731951477E+02  0.38612522770E+02  0.59490135994E+02  0.10767601375E+02 0.  0.
         22    1    3    3    0    0 -0.29339861606E+02 -0.32731951477E+02  0.59865623607E+02  0.74270458571E+02  0.00000000000E+00 0.  1.
         22    1    4    4    0    0  0.22485296372E+02  0.17471535994E+02  0.22934709299E+02  0.36562877534E+02  0.00000000000E+00 0.  1.
         22    1    4    4    0    0  0.68545652341E+01  0.15260415483E+02  0.15677813471E+02  0.22927258460E+02  0.00000000000E+00 0.  1.
<mgrwt>
<rscale>  0 0.90520447E+02</rscale>
<asrwt>0</asrwt>
<pdfrwt beam="1">  1        2 0.17864519E-01 0.90520447E+02</pdfrwt>
<pdfrwt beam="2">  1       -2 0.27140344E-02 0.90520447E+02</pdfrwt>
<totfact> 0.13107452E+05</totfact>
</mgrwt>
</event>
<event>
 7    1  0.3337990E-009  0.9158117E+02  0.7818608E-02  0.1299067E+00
         -2   -1    0    0    0  501 -0.00000000000E+00  0.00000000000E+00  0.41668277437E+01  0.41668285240E+01  0.25500000000E-02 0.  1.
          2   -1    0    0  501    0  0.00000000000E+00 -0.00000000000E+00 -0.50320716162E+03  0.50320716163E+03  0.25500000000E-02 0. -1.
         23    2    1    2    0    0  0.00000000000E+00  0.00000000000E+00 -0.49904033388E+03  0.50737399015E+03  0.91581171896E+02 0.  0.
    9000005    2    3    3    0    0  0.12775724817E+02  0.43172716168E+02 -0.25832514703E+03  0.26248441556E+03  0.11793398858E+02 0.  0.
         22    1    3    3    0    0 -0.12775724817E+02 -0.43172716168E+02 -0.24071518685E+03  0.24488957459E+03  0.00000000000E+00 0.  1.
         22    1    4    4    0    0  0.65318353559E+01  0.18280173332E+02 -0.14474979247E+03  0.14604565051E+03  0.00000000000E+00 0.  1.
         22    1    4    4    0    0  0.62438894612E+01  0.24892542836E+02 -0.11357535456E+03  0.11643876505E+03  0.00000000000E+00 0.  1.
<mgrwt>
<rscale>  0 0.91581172E+02</rscale>
<asrwt>0</asrwt>
<pdfrwt beam="2">  1        2 0.77416438E-01 0.91581172E+02</pdfrwt>
<pdfrwt beam="1">  1       -2 0.64105088E-03 0.91581172E+02</pdfrwt>
<totfact> 0.21342863E+05</totfact>
</mgrwt>
</event>
